Title
43194
    1CHL1    C3    1   3.874   3.053   5.675  0.8555 -0.0881 -0.3571
    1CHL1    H3    2   3.814   2.959   5.681  0.5400  0.0741 -0.9574
    1CHL1    O3    3   3.906   3.100   5.808 -0.2644 -0.3256 -0.0761
    1CHL1   H3'    4   3.864   3.186   5.815 -0.0473 -0.0792 -1.6171
    1CHL1    C4    5   4.004   3.020   5.592  0.1953  0.0116 -0.7676
    1CHL1   H4A    6   4.067   3.108   5.615  0.7201 -0.9002  1.5454
    1CHL1   H4B    7   4.054   2.940   5.650  1.7636  2.0377  0.8343
    1CHL1    C5    8   3.988   2.984   5.452 -0.4005 -0.5429 -0.4007
    1CHL1    C6    9   4.054   2.882   5.401 -0.2938 -0.3824  0.0874
    1CHL1    H6   10   4.119   2.818   5.462  0.3151  0.4218  0.3007
    1CHL1    C7   11   4.047   2.856   5.249 -0.2937  0.8413  0.4652
    1CHL1   H7A   12   4.147   2.840   5.203 -1.1724 -1.4811 -0.7971
    1CHL1   H7B   13   3.997   2.760   5.226  0.9446 -0.3920  2.5637
    1CHL1    C8   14   3.981   2.963   5.161 -0.6000  0.5247  0.7427
    1CHL1    H8   15   4.064   3.034   5.146  0.1602 -0.7874 -1.8459
    1CHL1   C14   16   3.950   2.915   5.024 -0.0456  0.2329  0.5795
    1CHL1   H14   17   3.861   2.849   5.032 -2.6880  3.1566 -1.7023
    1CHL1   C15   18   4.055   2.830   4.949  0.4437  0.2919 -0.3341
    1CHL1  H15A   19   4.160   2.867   4.952  0.4461  0.4124 -1.3482
    1CHL1  H15B   20   4.052   2.724   4.979 -0.9841  0.5516  0.5324
    1CHL1   C16   21   3.994   2.831   4.798 -0.4046 -0.5935  0.2136
    1CHL1  H16A   22   4.079   2.874   4.741  0.0909 -0.7589  0.8133
    1CHL1  H16B   23   3.976   2.729   4.756 -1.6437 -0.4428  0.3489
    1CHL1   C17   24   3.872   2.928   4.807  0.6033 -0.4658  0.0519
    1CHL1   H17   25   3.788   2.862   4.839 -1.1407  0.8230 -1.6161
    1CHL1   C13   26   3.899   3.023   4.919  0.8859  0.5371  0.4791
    1CHL1   C18   27   4.018   3.127   4.880  0.5526 -0.0368 -0.4605
    1CHL1  H18A   28   4.093   3.065   4.827 -1.5819 -1.1511 -2.3452
    1CHL1  H18B   29   3.967   3.208   4.823 -0.8957  0.5472  1.5236
    1CHL1  H18C   30   4.049   3.173   4.976 -0.3376 -1.9395  0.8259
    1CHL1   C12   31   3.782   3.097   4.987  0.5806  0.5369 -0.2496
    1CHL1  H12A   32   3.754   3.187   4.929  0.6632  0.3746 -0.5461
    1CHL1  H12B   33   3.701   3.022   4.999  2.0851 -1.1379 -0.0394
    1CHL1   C11   34   3.800   3.138   5.130 -0.6631 -0.5070 -0.6053
    1CHL1  H11A   35   3.870   3.224   5.126 -0.9206 -0.2243  0.5401
    1CHL1  H11B   36   3.708   3.183   5.174  0.1975  0.4970  0.2023
    1CHL1    C9   37   3.859   3.030   5.225 -0.1042 -0.2666  0.3116
    1CHL1    H9   38   3.786   2.948   5.245  0.9815 -1.2270  0.4440
    1CHL1   C10   39   3.900   3.078   5.368  0.1953  0.3633  0.5171
    1CHL1   C19   40   3.989   3.212   5.354  0.0639  0.2234 -0.5352
    1CHL1  H19A   41   4.011   3.254   5.455 -1.2006 -2.6641  1.0675
    1CHL1  H19B   42   4.081   3.191   5.295 -0.5119 -0.1715 -1.2978
    1CHL1  H19C   43   3.937   3.294   5.300  0.2774 -0.0172 -1.1114
    1CHL1    C1   44   3.775   3.112   5.448  0.0222  0.1505 -0.8169
    1CHL1   H1A   45   3.719   3.187   5.388 -1.5915 -0.1240  0.2696
    1CHL1   H1B   46   3.710   3.022   5.452  2.2151 -1.4560  2.4596
    1CHL1    C2   47   3.794   3.154   5.598 -0.6695  0.4565  0.7061
    1CHL1   H2A   48   3.699   3.178   5.650 -0.5998  1.8105  0.2455
    1CHL1   H2B   49   3.847   3.252   5.602 -0.9287  0.6785 -0.6647
    1CHL1   C20   50   3.821   2.991   4.670 -0.3480 -0.4006 -0.2422
    1CHL1   H20   51   3.895   3.068   4.637  1.5069 -2.4197 -0.9884
    1CHL1   C21   52   3.685   3.072   4.686  0.5200  0.0904  0.3905
    1CHL1  H21A   53   3.682   3.176   4.725  1.0362  1.5126 -3.0135
    1CHL1  H21B   54   3.622   3.004   4.746  0.7430 -3.1828 -2.7096
    1CHL1  H21C   55   3.643   3.071   4.583  0.6670  0.3004  0.3286
    1CHL1   C22   56   3.817   2.895   4.552  0.6876  0.0502  0.4208
    1CHL1  H22A   57   3.896   2.817   4.552 -0.6684 -1.3870 -0.2246
    1CHL1  H22B   58   3.723   2.836   4.560 -0.0897  1.2275  0.3589
    1CHL1   C23   59   3.806   2.970   4.415  0.4029  0.6689 -0.2878
    1CHL1  H23A   60   3.718   3.039   4.416 -1.4316 -1.5139 -0.7717
    1CHL1  H23B   61   3.900   3.027   4.399  0.6832  0.3484  0.2278
    1CHL1   C24   62   3.795   2.866   4.307 -0.1467  0.0314  0.0201
    1CHL1  H24A   63   3.883   2.799   4.300  0.2250  0.2382  2.0090
    1CHL1  H24B   64   3.711   2.797   4.332  1.8552 -2.7690 -0.5200
    1CHL1   C25   65   3.773   2.926   4.168 -0.1190 -0.0257 -0.5556
    1CHL1   H25   66   3.695   3.004   4.182  1.5167  1.6838 -0.7410
    1CHL1   C26   67   3.905   3.000   4.125  0.0546  0.3037 -0.0165
    1CHL1  H26A   68   3.917   3.080   4.201 -0.3907 -0.9774  1.4557
    1CHL1  H26B   69   3.987   2.926   4.134  0.7134  1.1143  0.9369
    1CHL1  H26C   70   3.895   3.036   4.020 -1.1853  1.4420  0.4718
    1CHL1   C27   71   3.734   2.816   4.072  0.1288 -0.8555 -0.1932
    1CHL1  H27A   72   3.820   2.750   4.046  1.9759  2.1331 -2.3279
    1CHL1  H27B   73   3.654   2.743   4.099 -0.5140 -0.8313 -1.9258
    1CHL1  H27C   74   3.708   2.862   3.975 -1.4908 -0.0085  0.6175
    2CHL1    C3   75   3.581   2.539   5.957 -0.5485 -0.1569 -0.3755
    2CHL1    H3   76   3.474   2.516   5.939 -0.5231 -0.6934  0.1218
    2CHL1    O3   77   3.602   2.532   6.098  0.1413 -0.1526 -0.0160
    2CHL1   H3'   78   3.697   2.517   6.109  0.1770 -0.8316 -1.1216
    2CHL1    C4   79   3.680   2.444   5.877 -0.6062  0.5044 -0.2436
    2CHL1   H4A   80   3.784   2.480   5.895 -0.3634 -0.3800  0.1532
    2CHL1   H4B   81   3.652   2.348   5.925 -0.1060  0.9322  0.9480
    2CHL1    C5   82   3.647   2.430   5.723  0.0763 -0.1051 -0.3070
    2CHL1    C6   83   3.610   2.322   5.643 -0.7917 -0.1255 -0.3186
    2CHL1    H6   84   3.617   2.226   5.695 -0.1012 -0.6387 -1.3289
    2CHL1    C7   85   3.569   2.319   5.496  0.0141  0.0289  0.0348
    2CHL1   H7A   86   3.617   2.242   5.431 -1.9196  0.9150 -2.6536
    2CHL1   H7B   87   3.460   2.303   5.476 -0.0800  0.8109 -0.0979
    2CHL1    C8   88   3.596   2.461   5.433 -0.2535  0.3646 -0.2381
    2CHL1    H8   89   3.704   2.457   5.408 -0.0929 -0.7388  0.5773
    2CHL1   C14   90   3.519   2.483   5.302  0.0850 -0.6311 -0.5338
    2CHL1   H14   91   3.410   2.496   5.320  0.3107 -0.4937  0.8765
    2CHL1   C15   92   3.527   2.369   5.203  0.1757 -0.2711  0.1594
    2CHL1  H15A   93   3.622   2.315   5.222  0.0089 -0.4414  0.5143
    2CHL1  H15B   94   3.441   2.300   5.219  0.9110 -1.1427  0.3767
    2CHL1   C16   95   3.534   2.443   5.064 -1.1487  0.3205  0.4322
    2CHL1  H16A   96   3.637   2.443   5.023 -0.9539 -0.6391  0.8888
    2CHL1  H16B   97   3.475   2.392   4.985 -1.4669  0.9875  0.2343
    2CHL1   C17   98   3.496   2.593   5.094 -0.5213 -0.2425  0.3700
    2CHL1   H17   99   3.386   2.594   5.110 -0.5950 -1.8762  0.1303
    2CHL1   C13  100   3.565   2.610   5.227 -0.6773 -0.2788  0.1664
    2CHL1   C18  101   3.725   2.615   5.211  0.8507  0.4757 -0.5069
    2CHL1  H18A  102   3.780   2.633   5.305  0.8297  1.5277 -0.6819
    2CHL1  H18B  103   3.761   2.522   5.162 -0.1667 -0.1353 -0.1396
    2CHL1  H18C  104   3.755   2.700   5.146  1.3299  1.5489  1.0769
    2CHL1   C12  105   3.508   2.720   5.313  0.2694  0.2821 -0.1540
    2CHL1  H12A  106   3.538   2.818   5.270  1.1737 -1.0103 -2.7551
    2CHL1  H12B  107   3.398   2.707   5.307 -0.2936  3.7790  0.6321
    2CHL1   C11  108   3.562   2.722   5.454  0.3582  0.5274 -0.5066
    2CHL1  H11A  109   3.663   2.768   5.451  0.7242 -0.2798 -1.0900
    2CHL1  H11B  110   3.507   2.790   5.522 -0.6858  0.6271 -1.4244
    2CHL1    C9  111   3.563   2.580   5.524 -0.2823 -0.2968 -0.2853
    2CHL1    H9  112   3.456   2.556   5.542  0.0555 -1.7025 -0.0464
    2CHL1   C10  113   3.641   2.575   5.655  0.0433 -0.5190 -0.7560
    2CHL1   C19  114   3.787   2.625   5.613  0.0951 -0.3114  0.3094
    2CHL1  H19A  115   3.828   2.579   5.521  2.1768  0.9475  0.5437
    2CHL1  H19B  116   3.791   2.732   5.584 -1.0491 -0.2583  0.3279
    2CHL1  H19C  117   3.859   2.604   5.695  1.0397 -1.3604 -0.7534
    2CHL1    C1  118   3.580   2.687   5.750 -0.6156 -0.0331  0.2156
    2CHL1   H1A  119   3.590   2.788   5.706 -0.0330  0.3315  1.1484
    2CHL1   H1B  120   3.470   2.671   5.745 -0.4865 -0.6093 -0.9920
    2CHL1    C2  121   3.605   2.683   5.902 -0.0555 -0.1501  0.3092
    2CHL1   H2A  122   3.543   2.748   5.967  0.4376  0.3291  0.3108
    2CHL1   H2B  123   3.709   2.719   5.920 -0.1265 -0.0318  0.4814
    2CHL1   C20  124   3.526   2.680   4.975  1.0690  0.5776  0.4936
    2CHL1   H20  125   3.635   2.681   4.952  1.0103  1.2652  0.2298
    2CHL1   C21  126   3.476   2.823   5.009 -0.3453 -0.1039 -0.9947
    2CHL1  H21A  127   3.368   2.823   5.035 -0.2201 -1.3842 -0.4043
    2CHL1  H21B  128   3.502   2.883   4.919  3.1082  0.0693 -0.0355
    2CHL1  H21C  129   3.527   2.871   5.096 -3.6679  1.2983  0.3768
    2CHL1   C22  130   3.457   2.622   4.852 -0.5600 -0.2065  0.2463
    2CHL1  H22A  131   3.512   2.531   4.822  0.0151  0.2134  0.0046
    2CHL1  H22B  132   3.351   2.595   4.872 -0.4548  0.6861  2.1712
    2CHL1   C23  133   3.474   2.704   4.721 -0.5124  0.1470  0.0346
    2CHL1  H23A  134   3.409   2.794   4.731  0.2018  0.7074 -0.2965
    2CHL1  H23B  135   3.577   2.738   4.700 -1.5452  1.9861 -2.5271
    2CHL1   C24  136   3.424   2.630   4.592 -0.5020 -0.2570 -0.2459
    2CHL1  H24A  137   3.488   2.540   4.579  0.1734 -0.2249  2.2980
    2CHL1  H24B  138   3.323   2.594   4.622 -0.1722  1.5241  3.6353
    2CHL1   C25  139   3.432   2.714   4.464  0.1288  0.2526  0.2053
    2CHL1   H25  140   3.539   2.739   4.446  0.4934 -1.7917 -0.8181
    2CHL1   C26  141   3.378   2.632   4.344  0.1151  0.0401 -0.3349
    2CHL1  H26A  142   3.431   2.535   4.335 -1.2449 -0.7619  0.0089
    2CHL1  H26B  143   3.268   2.621   4.356  0.1715  0.8375  1.2188
    2CHL1  H26C  144   3.398   2.677   4.245 -0.4305 -1.3740 -1.1047
    2CHL1   C27  145   3.348   2.844   4.465 -0.0292 -0.1745 -0.7748
    2CHL1  H27A  146   3.363   2.894   4.367 -2.8920 -1.2068 -1.8216
    2CHL1  H27B  147   3.243   2.828   4.496  0.7073  0.3074  2.2974
    2CHL1  H27C  148   3.388   2.916   4.540  1.5933 -0.2669 -1.4931
    3CHL1    C3  149   4.663   3.532   6.064  0.2570 -0.1447  0.5198
    3CHL1    H3  150   4.689   3.640   6.065 -0.4921  0.0464  1.5844
    3CHL1    O3  151   4.610   3.493   6.185  0.4181  0.0195 -0.5566
    3CHL1   H3'  152   4.662   3.545   6.247 -0.8998  2.1971 -1.1506
    3CHL1    C4  153   4.568   3.495   5.942 -0.6688 -0.0071  0.0317
    3CHL1   H4A  154   4.545   3.388   5.963 -0.3492 -0.1304 -0.2333
    3CHL1   H4B  155   4.481   3.561   5.962 -0.1302  0.7940 -0.2306
    3CHL1    C5  156   4.630   3.502   5.804 -0.4906 -0.8118  0.3393
    3CHL1    C6  157   4.583   3.587   5.704  0.3997 -0.0119 -0.2483
    3CHL1    H6  158   4.492   3.643   5.728 -0.0618 -1.0604  0.5613
    3CHL1    C7  159   4.634   3.585   5.560 -0.1289  0.1425 -0.5664
    3CHL1   H7A  160   4.546   3.594   5.493 -1.0236  0.0214  0.5706
    3CHL1   H7B  161   4.694   3.679   5.559  1.8657 -1.0431  0.6590
    3CHL1    C8  162   4.718   3.461   5.538 -0.7771 -0.1050  0.8625
    3CHL1    H8  163   4.655   3.369   5.541  0.5060 -0.9770  2.3581
    3CHL1   C14  164   4.789   3.472   5.401  0.4341 -0.0998 -0.4316
    3CHL1   H14  165   4.854   3.562   5.412  0.8675 -0.2805 -1.4134
    3CHL1   C15  166   4.705   3.509   5.280 -0.4924 -0.1060  0.1618
    3CHL1  H15A  167   4.612   3.448   5.273 -1.0368  0.7350 -0.0000
    3CHL1  H15B  168   4.662   3.611   5.286 -1.6379 -0.4625 -1.1548
    3CHL1   C16  169   4.807   3.478   5.166 -0.7623 -0.0314  0.4585
    3CHL1  H16A  170   4.745   3.409   5.104 -0.5457 -0.5546  0.8254
    3CHL1  H16B  171   4.842   3.566   5.109  0.5408 -0.9309 -0.1713
    3CHL1   C17  172   4.927   3.400   5.232 -1.0288 -0.1864 -0.2031
    3CHL1   H17  173   5.002   3.476   5.260 -0.0454 -1.8521  2.0455
    3CHL1   C13  174   4.878   3.348   5.363 -0.3873 -0.2564 -0.2555
    3CHL1   C18  175   4.802   3.215   5.345 -0.2572  0.5781 -0.4049
    3CHL1  H18A  176   4.882   3.137   5.340 -1.5641 -0.8068 -0.4901
    3CHL1  H18B  177   4.751   3.183   5.439  0.2399 -1.5235 -0.7835
    3CHL1  H18C  178   4.742   3.221   5.252 -0.6917 -1.1994 -0.2859
    3CHL1   C12  179   4.986   3.343   5.478  0.0184  0.2282  0.1446
    3CHL1  H12A  180   5.056   3.258   5.462 -2.1096 -1.3607 -1.4449
    3CHL1  H12B  181   5.054   3.430   5.477 -0.1797  0.3846 -0.0062
    3CHL1   C11  182   4.927   3.325   5.622 -0.4765 -0.5502  0.1153
    3CHL1  H11A  183   4.885   3.222   5.628  0.7751 -1.0137  1.7333
    3CHL1  H11B  184   5.006   3.329   5.700 -1.0331 -0.8801  0.7122
    3CHL1    C9  185   4.818   3.433   5.654  0.0880  0.1383 -0.4322
    3CHL1    H9  186   4.873   3.530   5.661  0.2483  0.2174 -2.3562
    3CHL1   C10  187   4.748   3.409   5.790 -0.3304  0.4336 -0.0890
    3CHL1   C19  188   4.709   3.261   5.805  0.1125 -0.9463  0.2706
    3CHL1  H19A  189   4.661   3.241   5.904  1.6695 -0.7438  1.0859
    3CHL1  H19B  190   4.642   3.213   5.730 -0.5472 -0.0231  0.2563
    3CHL1  H19C  191   4.801   3.199   5.806 -0.7519 -2.2864 -0.3897
    3CHL1    C1  192   4.855   3.451   5.896 -1.0046 -0.5533 -0.9352
    3CHL1   H1A  193   4.949   3.394   5.878 -0.7606 -0.2016 -0.8022
    3CHL1   H1B  194   4.883   3.558   5.888 -0.9708 -0.1507  2.9014
    3CHL1    C2  195   4.788   3.446   6.036 -0.2023 -0.2509  0.1768
    3CHL1   H2A  196   4.864   3.473   6.113  0.9015 -2.3594 -0.1142
    3CHL1   H2B  197   4.763   3.343   6.067  0.1719  0.2738  2.3967
    3CHL1   C20  198   5.000   3.294   5.145 -0.2454  0.4543  0.1795
    3CHL1   H20  199   4.926   3.212   5.129  0.0599 -0.1549  1.6836
    3CHL1   C21  200   5.139   3.247   5.201 -0.1061  0.0662 -0.8544
    3CHL1  H21A  201   5.129   3.167   5.277 -0.2458 -0.5333 -1.4983
    3CHL1  H21B  202   5.182   3.333   5.257  0.0232 -0.5206 -0.0398
    3CHL1  H21C  203   5.196   3.211   5.113 -0.2327 -3.2383  0.2894
    3CHL1   C22  204   5.028   3.354   5.005 -0.4150 -0.4747  0.1101
    3CHL1  H22A  205   4.943   3.402   4.952  1.0922 -0.9040 -2.9219
    3CHL1  H22B  206   5.105   3.434   5.020 -1.3989  0.6930 -0.8672
    3CHL1   C23  207   5.070   3.261   4.889 -0.2452 -0.6908 -0.9361
    3CHL1  H23A  208   5.164   3.208   4.916  0.3492 -0.9067 -3.1613
    3CHL1  H23B  209   4.996   3.180   4.871  1.2969 -2.3245 -0.3532
    3CHL1   C24  210   5.115   3.352   4.775  0.5356 -0.5627 -0.1570
    3CHL1  H24A  211   5.034   3.413   4.730  0.4673 -1.1559 -0.8575
    3CHL1  H24B  212   5.190   3.420   4.822  0.3038 -0.2273 -0.2696
    3CHL1   C25  213   5.187   3.279   4.659  0.0248  0.2246 -0.2118
    3CHL1   H25  214   5.283   3.234   4.691  0.1545  0.4654 -0.2622
    3CHL1   C26  215   5.101   3.182   4.578 -0.2512 -0.3364 -0.4227
    3CHL1  H26A  216   5.076   3.086   4.628  3.0947  0.4322  3.1440
    3CHL1  H26B  217   5.003   3.230   4.553  0.5922  1.1477 -1.0268
    3CHL1  H26C  218   5.136   3.152   4.477 -0.4139 -0.0794 -0.5578
    3CHL1   C27  219   5.226   3.391   4.562 -0.4427 -0.2062 -0.3158
    3CHL1  H27A  220   5.258   3.345   4.466  1.1546 -2.7083  1.2996
    3CHL1  H27B  221   5.136   3.448   4.530 -0.7598  0.2510  1.3201
    3CHL1  H27C  222   5.294   3.468   4.604 -0.3955 -0.4054 -0.0188
    4CHL1    C3  223   2.532   3.400   5.885  0.1495 -0.3971  0.2423
    4CHL1    H3  224   2.586   3.306   5.858  0.0831 -1.2793  2.8450
    4CHL1    O3  225   2.563   3.413   6.024 -0.2048  0.0333 -0.2051
    4CHL1   H3'  226   2.658   3.409   6.035 -0.2163  0.3924  0.0506
    4CHL1    C4  227   2.585   3.526   5.817  0.0912  0.6194 -0.7788
    4CHL1   H4A  228   2.541   3.610   5.874 -1.0382 -1.0806  1.0084
    4CHL1   H4B  229   2.695   3.534   5.828 -0.0772  1.0606  0.6941
    4CHL1    C5  230   2.539   3.545   5.677 -0.1213  0.3981  0.0829
    4CHL1    C6  231   2.632   3.551   5.581 -0.2908 -0.3068  0.3492
    4CHL1    H6  232   2.733   3.564   5.624  0.0427  1.6670 -0.8764
    4CHL1    C7  233   2.604   3.564   5.429  0.8070  0.4713 -0.6538
    4CHL1   H7A  234   2.662   3.645   5.381  1.6562  2.3444  3.1151
    4CHL1   H7B  235   2.617   3.460   5.391 -1.0471 -0.6929  1.5771
    4CHL1    C8  236   2.450   3.593   5.411  0.0034 -0.9032  0.4865
    4CHL1    H8  237   2.434   3.701   5.431  0.0976 -0.5546 -1.1692
    4CHL1   C14  238   2.426   3.556   5.265  0.1712  0.2770 -0.0665
    4CHL1   H14  239   2.451   3.448   5.251 -2.4805 -0.2038 -1.9365
    4CHL1   C15  240   2.514   3.625   5.163  0.0952 -0.4616 -0.0039
    4CHL1  H15A  241   2.507   3.734   5.184 -1.4688 -0.3409 -1.0031
    4CHL1  H15B  242   2.621   3.592   5.162  0.0353 -0.7625  1.4757
    4CHL1   C16  243   2.430   3.603   5.037  0.6479 -0.1901 -0.4685
    4CHL1  H16A  244   2.408   3.704   4.996 -1.1579 -0.3031  0.1479
    4CHL1  H16B  245   2.480   3.542   4.958 -0.4588  0.6239 -1.8403
    4CHL1   C17  246   2.293   3.535   5.077  0.0331  0.2509  0.6295
    4CHL1   H17  247   2.320   3.427   5.078  1.0895  0.4977  2.1312
    4CHL1   C13  248   2.275   3.573   5.221  0.0986 -0.5790 -0.9769
    4CHL1   C18  249   2.222   3.721   5.236 -0.0783  0.8489  0.6540
    4CHL1  H18A  250   2.304   3.777   5.186  1.7057 -1.4350  0.8928
    4CHL1  H18B  251   2.122   3.718   5.187  0.9338  0.4060 -1.5141
    4CHL1  H18C  252   2.216   3.759   5.340 -1.2948  2.0673  0.1773
    4CHL1   C12  253   2.201   3.476   5.318 -0.2166  0.4178  0.3720
    4CHL1  H12A  254   2.091   3.481   5.303 -0.0525  1.1671 -0.7833
    4CHL1  H12B  255   2.244   3.375   5.305 -2.5818 -0.7063  0.8009
    4CHL1   C11  256   2.214   3.512   5.463  0.0862  0.9097 -0.1888
    4CHL1  H11A  257   2.175   3.611   5.493  1.1443  0.3208  3.7198
    4CHL1  H11B  258   2.159   3.439   5.528 -1.8109  2.9983  0.6747
    4CHL1    C9  259   2.362   3.509   5.506 -0.2190  0.3285  0.1050
    4CHL1    H9  260   2.388   3.403   5.488  0.5208  0.4801  0.2734
    4CHL1   C10  261   2.392   3.526   5.657 -0.2731 -0.7000  0.1328
    4CHL1   C19  262   2.327   3.654   5.703 -0.4471  0.7321 -0.8699
    4CHL1  H19A  263   2.364   3.729   5.631  1.3765 -1.6462 -2.5606
    4CHL1  H19B  264   2.218   3.631   5.706  0.0498 -1.8568 -0.5895
    4CHL1  H19C  265   2.355   3.687   5.806  1.1237  0.2373 -1.1115
    4CHL1    C1  266   2.337   3.410   5.731  0.4340  1.3175  0.4063
    4CHL1   H1A  267   2.226   3.407   5.728  0.4576 -0.4643  0.1582
    4CHL1   H1B  268   2.372   3.319   5.676 -3.3840  0.8343 -1.5250
    4CHL1    C2  269   2.378   3.393   5.881  0.6752 -0.6785  0.5521
    4CHL1   H2A  270   2.343   3.298   5.926  0.4322 -1.0756 -0.4503
    4CHL1   H2B  271   2.332   3.474   5.942 -1.3727 -1.3041 -0.0762
    4CHL1   C20  272   2.181   3.569   4.972  0.0847  0.3461 -0.4389
    4CHL1   H20  273   2.154   3.676   4.984 -0.3308  0.3982 -1.7366
    4CHL1   C21  274   2.056   3.488   5.006  0.0467  0.1698  0.9978
    4CHL1  H21A  275   2.014   3.519   5.104  0.9044 -3.0274  2.5016
    4CHL1  H21B  276   2.075   3.378   5.010 -0.7025 -0.1048 -1.4525
    4CHL1  H21C  277   1.979   3.495   4.927 -1.6228 -1.2695  2.4233
    4CHL1   C22  278   2.227   3.556   4.826  0.5570 -0.1237 -0.4638
    4CHL1  H22A  279   2.318   3.618   4.809 -0.3668  0.9154 -1.9354
    4CHL1  H22B  280   2.265   3.454   4.801  2.9934 -0.0164  2.2120
    4CHL1   C23  281   2.123   3.595   4.724 -0.3499 -0.5786 -0.2242
    4CHL1  H23A  282   2.024   3.550   4.745  0.3571 -1.3840  1.5508
    4CHL1  H23B  283   2.106   3.703   4.743 -3.2221 -1.2276  1.4072
    4CHL1   C24  284   2.161   3.578   4.576 -0.4766 -0.7646 -0.3881
    4CHL1  H24A  285   2.262   3.617   4.553 -1.3490  1.9227  0.0523
    4CHL1  H24B  286   2.168   3.469   4.553  2.4370 -0.5379 -0.9686
    4CHL1   C25  287   2.075   3.642   4.469 -0.0054  0.0817 -0.0537
    4CHL1   H25  288   1.984   3.579   4.461  0.2016 -0.3349  0.7406
    4CHL1   C26  289   2.015   3.773   4.513 -0.4287  0.0393 -0.3454
    4CHL1  H26A  290   2.091   3.844   4.552  0.3604 -1.5006  1.0142
    4CHL1  H26B  291   1.958   3.817   4.428  1.0691 -2.0110 -2.5545
    4CHL1  H26C  292   1.945   3.758   4.598  1.4163  0.1268  1.2546
    4CHL1   C27  293   2.148   3.647   4.336  0.1073  0.4399 -0.7588
    4CHL1  H27A  294   2.084   3.661   4.246 -2.1978  1.3486  0.9239
    4CHL1  H27B  295   2.225   3.726   4.328  0.5996  0.3800  2.1922
    4CHL1  H27C  296   2.200   3.550   4.318  0.7453  0.5526  0.3578
    5CHL1    C3  297   3.550   4.106   5.807  0.2303 -0.0725 -0.0391
    5CHL1    H3  298   3.650   4.137   5.768 -1.0256  2.0068 -1.8023
    5CHL1    O3  299   3.543   4.128   5.949 -0.3932 -0.2564 -0.4068
    5CHL1   H3'  300   3.452   4.105   5.969 -0.0606  0.1628  1.8802
    5CHL1    C4  301   3.437   4.175   5.728 -0.1744 -0.0445 -0.0797
    5CHL1   H4A  302   3.341   4.163   5.783 -0.2437  0.5295 -0.0641
    5CHL1   H4B  303   3.454   4.284   5.744  0.5733  0.1729 -2.0711
    5CHL1    C5  304   3.438   4.130   5.584  0.0518 -0.0791 -0.2415
    5CHL1    C6  305   3.462   4.224   5.493  0.6611 -0.3673 -0.1856
    5CHL1    H6  306   3.479   4.327   5.527  1.5388 -0.8773  1.0020
    5CHL1    C7  307   3.446   4.210   5.346 -0.1838  0.2287  0.6007
    5CHL1   H7A  308   3.394   4.296   5.297  0.6578  0.2421 -0.2982
    5CHL1   H7B  309   3.545   4.202   5.296 -1.2254 -1.5339 -1.3443
    5CHL1    C8  310   3.377   4.073   5.312 -0.3376  1.1086  0.6533
    5CHL1    H8  311   3.268   4.089   5.319 -0.4468  0.5669  0.2618
    5CHL1   C14  312   3.401   4.031   5.158  0.5035 -0.5311 -0.0781
    5CHL1   H14  313   3.512   4.017   5.155  0.8415  1.1042  2.4276
    5CHL1   C15  314   3.381   4.142   5.052  0.1694  0.3563  0.2003
    5CHL1  H15A  315   3.279   4.185   5.064 -0.6072 -0.7003 -1.9777
    5CHL1  H15B  316   3.461   4.219   5.047 -0.4828  1.0000 -0.6377
    5CHL1   C16  317   3.381   4.058   4.919 -1.0675 -0.3708  0.1190
    5CHL1  H16A  318   3.293   4.091   4.859  1.3156 -0.0635 -3.5126
    5CHL1  H16B  319   3.470   4.075   4.854 -0.7979 -0.7141  0.3926
    5CHL1   C17  320   3.370   3.903   4.961 -0.5561  0.1637 -1.2152
    5CHL1   H17  321   3.475   3.868   4.972 -0.6302  0.4512  0.6375
    5CHL1   C13  322   3.323   3.908   5.105  0.0864 -0.8372  0.2602
    5CHL1   C18  323   3.171   3.933   5.105  0.5589 -1.3148 -0.2430
    5CHL1  H18A  324   3.105   3.845   5.093 -0.7184 -0.4749  0.4655
    5CHL1  H18B  325   3.131   3.983   5.196  1.1090 -1.6039  0.1654
    5CHL1  H18C  326   3.148   4.006   5.025  0.0960  0.0662  1.1153
    5CHL1   C12  327   3.367   3.798   5.198 -0.0729 -0.3687 -0.1562
    5CHL1  H12A  328   3.323   3.701   5.165  0.0193 -0.0960 -1.1097
    5CHL1  H12B  329   3.476   3.784   5.188  0.4128  1.3304  2.0422
    5CHL1   C11  330   3.350   3.825   5.351  0.1057 -0.4862  0.1643
    5CHL1  H11A  331   3.240   3.832   5.348  0.2074  1.4772 -0.6051
    5CHL1  H11B  332   3.374   3.735   5.412 -0.1779 -0.2029  0.7079
    5CHL1    C9  333   3.421   3.950   5.399  0.0965  0.7832  0.1311
    5CHL1    H9  334   3.530   3.941   5.379  0.0437  1.2044 -0.3545
    5CHL1   C10  335   3.415   3.981   5.552 -0.3696  0.3889 -0.2058
    5CHL1   C19  336   3.274   3.955   5.603  0.0608  0.4049  0.1643
    5CHL1  H19A  337   3.266   3.849   5.634 -1.1788 -1.1019 -4.3872
    5CHL1  H19B  338   3.229   4.017   5.683  1.1813  2.2924 -0.5939
    5CHL1  H19C  339   3.188   3.954   5.532 -1.2216 -0.5829  1.6622
    5CHL1    C1  340   3.521   3.907   5.644  0.3240 -0.8707  0.1026
    5CHL1   H1A  341   3.502   3.797   5.636  1.6027 -1.0752 -0.2881
    5CHL1   H1B  342   3.621   3.929   5.601 -0.2483  2.4015  0.2600
    5CHL1    C2  343   3.526   3.960   5.790 -0.1077  0.0352  0.5956
    5CHL1   H2A  344   3.602   3.901   5.845  0.1213  0.5101  0.7917
    5CHL1   H2B  345   3.425   3.937   5.831  0.5725 -1.8476  1.3451
    5CHL1   C20  346   3.297   3.822   4.854 -0.3836 -0.2206  0.5939
    5CHL1   H20  347   3.197   3.856   4.819 -0.5968 -1.9289 -0.5773
    5CHL1   C21  348   3.275   3.674   4.903  0.4731  0.1020 -0.5267
    5CHL1  H21A  349   3.205   3.672   4.989  1.9085 -3.4792  0.7375
    5CHL1  H21B  350   3.371   3.634   4.942  0.5142  3.3230  3.4521
    5CHL1  H21C  351   3.231   3.620   4.817 -2.5441 -0.1552  1.0453
    5CHL1   C22  352   3.371   3.819   4.714 -0.5115  0.4456  0.4741
    5CHL1  H22A  353   3.394   3.923   4.683  2.3882 -0.5594 -1.0479
    5CHL1  H22B  354   3.473   3.777   4.712 -0.5569  0.3127 -2.0745
    5CHL1   C23  355   3.297   3.759   4.594  0.5903  0.1526 -0.6546
    5CHL1  H23A  356   3.267   3.655   4.620  0.2869  0.8380  2.1027
    5CHL1  H23B  357   3.203   3.815   4.578  1.7945  2.6607  0.5741
    5CHL1   C24  358   3.376   3.760   4.465  0.3720 -0.1337  0.3455
    5CHL1  H24A  359   3.406   3.863   4.435  0.0783 -0.5739 -1.5646
    5CHL1  H24B  360   3.463   3.693   4.484 -0.3635 -0.7990  1.4876
    5CHL1   C25  361   3.295   3.702   4.346  0.5261 -0.3763 -0.4107
    5CHL1   H25  362   3.230   3.619   4.382  0.8128 -0.2914  0.3138
    5CHL1   C26  363   3.196   3.803   4.282  0.7228  0.0468 -0.0583
    5CHL1  H26A  364   3.120   3.836   4.355 -1.8494 -2.1430 -1.5684
    5CHL1  H26B  365   3.256   3.887   4.240 -0.1968  0.6880 -0.1233
    5CHL1  H26C  366   3.153   3.745   4.198 -1.0632  0.8732  0.2470
    5CHL1   C27  367   3.391   3.655   4.236  0.1426 -0.1282  0.3885
    5CHL1  H27A  368   3.471   3.731   4.225 -0.9110  0.6465 -3.6385
    5CHL1  H27B  369   3.430   3.551   4.240 -2.2482 -1.0987  0.4167
    5CHL1  H27C  370   3.327   3.657   4.145 -1.1090  1.2606  1.2617
    6CHL1    C3  371   2.489   2.494   5.625  0.4136  0.0116  0.4102
    6CHL1    H3  372   2.394   2.441   5.599 -0.8489  1.3451  2.0622
    6CHL1    O3  373   2.512   2.471   5.762  0.0817  0.3486  0.2117
    6CHL1   H3'  374   2.575   2.537   5.794 -1.5967  1.0282  2.2989
    6CHL1    C4  375   2.598   2.425   5.552 -0.1634 -0.5011  0.1426
    6CHL1   H4A  376   2.701   2.464   5.567  0.0725 -0.7535 -0.7452
    6CHL1   H4B  377   2.612   2.316   5.568  1.5055 -0.8392 -2.8557
    6CHL1    C5  378   2.574   2.455   5.407 -0.0665  0.4353  0.7123
    6CHL1    C6  379   2.555   2.343   5.335  0.4092  0.5365  0.5890
    6CHL1    H6  380   2.560   2.241   5.376  1.2175  0.7927  1.1380
    6CHL1    C7  381   2.545   2.337   5.186  0.0926  0.3774 -0.3728
    6CHL1   H7A  382   2.610   2.256   5.146 -0.0657 -1.2776  2.5415
    6CHL1   H7B  383   2.438   2.317   5.166 -0.4915  2.4032  0.4387
    6CHL1    C8  384   2.578   2.478   5.128 -0.3687  0.6913 -0.0004
    6CHL1    H8  385   2.688   2.479   5.112 -0.4759  3.9834 -1.3924
    6CHL1   C14  386   2.537   2.486   4.980  0.5276 -0.4531  0.3045
    6CHL1   H14  387   2.426   2.493   4.973  0.5480 -1.3563 -1.4746
    6CHL1   C15  388   2.574   2.373   4.880  0.3650 -0.3173  0.1512
    6CHL1  H15A  389   2.683   2.351   4.889 -0.0901 -2.6834  0.4913
    6CHL1  H15B  390   2.529   2.276   4.909  1.3537 -0.6843  0.5272
    6CHL1   C16  391   2.531   2.428   4.748 -0.0844 -0.4089 -0.3154
    6CHL1  H16A  392   2.606   2.416   4.668 -0.1727 -1.2986 -0.2775
    6CHL1  H16B  393   2.438   2.381   4.708 -1.6276  2.0373  0.1340
    6CHL1   C17  394   2.512   2.587   4.764 -0.2526  0.2424 -0.1322
    6CHL1   H17  395   2.404   2.611   4.774  0.0904  1.3092  1.3253
    6CHL1   C13  396   2.574   2.615   4.903  0.0801  0.4016 -0.4371
    6CHL1   C18  397   2.724   2.635   4.894 -0.4567  0.0934 -0.2264
    6CHL1  H18A  398   2.749   2.740   4.869 -0.6605  0.4047  0.8202
    6CHL1  H18B  399   2.787   2.588   4.973 -0.1519  0.5839 -0.1694
    6CHL1  H18C  400   2.761   2.569   4.812 -0.5964 -0.3464  0.0588
    6CHL1   C12  401   2.505   2.731   4.991  0.4797 -0.5685  0.6301
    6CHL1  H12A  402   2.536   2.833   4.958 -0.8536  0.3861  2.1841
    6CHL1  H12B  403   2.394   2.719   4.996  0.1158  1.7129 -0.4522
    6CHL1   C11  404   2.552   2.739   5.139  0.1689 -0.0318  0.2609
    6CHL1  H11A  405   2.660   2.765   5.126  0.0866  1.0073  1.4535
    6CHL1  H11B  406   2.501   2.814   5.203 -1.2231 -0.7621  0.0492
    6CHL1    C9  407   2.529   2.602   5.211  0.0413  0.5475 -0.1372
    6CHL1    H9  408   2.418   2.600   5.214 -0.0766 -0.0568 -2.4999
    6CHL1   C10  409   2.576   2.597   5.360 -0.6195  0.6702  0.0353
    6CHL1   C19  410   2.719   2.659   5.366  0.5086  0.6482  0.1290
    6CHL1  H19A  411   2.767   2.655   5.466 -2.9732  3.1542  2.1315
    6CHL1  H19B  412   2.770   2.595   5.291 -1.2579  1.7307 -2.0987
    6CHL1  H19C  413   2.705   2.763   5.330 -1.6896 -0.1083 -1.4476
    6CHL1    C1  414   2.468   2.670   5.447  0.4073 -0.4026  0.0412
    6CHL1   H1A  415   2.476   2.777   5.419 -1.7489 -0.3182 -0.4039
    6CHL1   H1B  416   2.365   2.643   5.417 -0.7997 -1.5079  4.4307
    6CHL1    C2  417   2.483   2.648   5.597  0.3625 -0.1212 -0.3102
    6CHL1   H2A  418   2.393   2.695   5.641 -0.0101  0.2747 -1.4631
    6CHL1   H2B  419   2.583   2.685   5.628  0.6677 -1.3083  0.1700
    6CHL1   C20  420   2.573   2.663   4.644  0.4377 -0.1964  0.7695
    6CHL1   H20  421   2.683   2.644   4.643  0.6439  0.6697  2.5657
    6CHL1   C21  422   2.553   2.814   4.648 -0.0020 -0.4571 -0.5965
    6CHL1  H21A  423   2.447   2.848   4.647 -0.6234 -2.3426 -1.4288
    6CHL1  H21B  424   2.603   2.861   4.561 -0.7406 -0.2540 -0.9188
    6CHL1  H21C  425   2.599   2.848   4.744 -1.8030  2.1954 -0.5532
    6CHL1   C22  426   2.510   2.609   4.508  0.5109 -0.0825  0.2437
    6CHL1  H22A  427   2.512   2.498   4.498 -0.8890  0.0882 -2.9320
    6CHL1  H22B  428   2.406   2.648   4.515  1.1132  1.3114  3.2985
    6CHL1   C23  429   2.587   2.655   4.380  0.4465  0.2638  0.4398
    6CHL1  H23A  430   2.606   2.764   4.369 -0.5319  0.5004  0.9510
    6CHL1  H23B  431   2.688   2.611   4.376  0.9660  1.3188  1.3115
    6CHL1   C24  432   2.507   2.597   4.253 -0.3275 -0.1187 -0.1756
    6CHL1  H24A  433   2.514   2.486   4.262 -0.9292 -0.0835  1.1265
    6CHL1  H24B  434   2.401   2.622   4.275  0.4088  2.9414  0.3883
    6CHL1   C25  435   2.559   2.645   4.114  1.1018 -0.5521 -0.0532
    6CHL1   H25  436   2.546   2.755   4.108 -0.0002 -0.7341 -1.7227
    6CHL1   C26  437   2.705   2.608   4.093 -0.0214  0.6080  0.2554
    6CHL1  H26A  438   2.756   2.657   4.178 -1.3103  0.4948  1.1092
    6CHL1  H26B  439   2.717   2.498   4.105 -2.2845  0.0619 -1.6487
    6CHL1  H26C  440   2.739   2.647   3.994  0.8350 -0.0215  0.2962
    6CHL1   C27  441   2.462   2.595   4.006  0.9706 -0.0481 -0.4884
    6CHL1  H27A  442   2.359   2.634   4.022 -0.0187 -2.9145  0.7741
    6CHL1  H27B  443   2.496   2.616   3.902 -1.1513  3.0533 -0.7063
    6CHL1  H27C  444   2.454   2.485   4.018  0.1216  0.0046 -0.4795
    7CHL1    C3  445   4.671   4.087   6.094 -0.3265 -0.7928  1.0141
    7CHL1    H3  446   4.632   4.191   6.080 -0.2778 -0.9265 -0.1958
    7CHL1    O3  447   4.689   4.048   6.230 -0.3501  0.4501  0.1020
    7CHL1   H3'  448   4.730   3.962   6.226 -1.3698 -0.1061  1.1503
    7CHL1    C4  449   4.579   3.983   6.033  0.3252  0.1055  0.1788
    7CHL1   H4A  450   4.611   3.878   6.050 -1.9543 -0.9584 -1.4850
    7CHL1   H4B  451   4.480   3.994   6.083  2.0029  0.4625  3.7653
    7CHL1    C5  452   4.566   3.999   5.880 -0.2264  0.1245 -0.3414
    7CHL1    C6  453   4.448   4.019   5.813  0.1148  0.3888  0.1538
    7CHL1    H6  454   4.361   4.015   5.881  1.2030 -1.2457  1.5375
    7CHL1    C7  455   4.424   4.032   5.666 -0.2999 -0.8073 -0.2188
    7CHL1   H7A  456   4.345   3.959   5.638 -2.0264  0.5913  0.8604
    7CHL1   H7B  457   4.386   4.134   5.648 -0.6842 -0.5187  1.9060
    7CHL1    C8  458   4.551   4.007   5.586 -0.0624 -0.1893  0.4411
    7CHL1    H8  459   4.550   3.896   5.588  0.2834 -0.1975  2.0629
    7CHL1   C14  460   4.546   4.068   5.454  0.2859  0.3409  0.3039
    7CHL1   H14  461   4.552   4.178   5.469 -3.0124  0.6690 -0.1761
    7CHL1   C15  462   4.424   4.054   5.372 -0.3450 -0.1675  0.1820
    7CHL1  H15A  463   4.383   3.950   5.373 -0.3837 -0.1821  2.2174
    7CHL1  H15B  464   4.345   4.127   5.399 -0.6309 -0.2160 -0.5130
    7CHL1   C16  465   4.472   4.089   5.226 -0.2629 -0.4289  0.5537
    7CHL1  H16A  466   4.470   3.997   5.164 -1.8886 -0.4026  0.5355
    7CHL1  H16B  467   4.408   4.170   5.184  1.2204  0.9084  0.7327
    7CHL1   C17  468   4.624   4.121   5.224  0.2475  0.8848  0.1170
    7CHL1   H17  469   4.638   4.230   5.238  3.4360  0.7210 -1.0466
    7CHL1   C13  470   4.672   4.056   5.358  0.9194 -0.6203 -0.4768
    7CHL1   C18  471   4.705   3.907   5.319 -0.3447  0.4393 -0.6911
    7CHL1  H18A  472   4.711   3.835   5.404  0.0858 -2.8023 -3.2712
    7CHL1  H18B  473   4.617   3.873   5.261 -1.0072  0.1534  0.4363
    7CHL1  H18C  474   4.799   3.893   5.262  1.1200  3.3737  0.7755
    7CHL1   C12  475   4.790   4.111   5.434  0.6268 -0.1768  0.5994
    7CHL1  H12A  476   4.882   4.085   5.379  0.3911 -2.0512  1.0236
    7CHL1  H12B  477   4.776   4.218   5.461  4.4793  0.3420  1.1609
    7CHL1   C11  478   4.809   4.051   5.570 -0.6660  0.1630  0.1828
    7CHL1  H11A  479   4.838   3.946   5.553 -0.0433 -0.0802  2.3311
    7CHL1  H11B  480   4.897   4.099   5.618  0.0833 -0.9436 -0.0559
    7CHL1    C9  481   4.682   4.064   5.656 -0.0947 -0.1469  0.0128
    7CHL1    H9  482   4.655   4.171   5.672 -1.1696 -0.2206 -1.1531
    7CHL1   C10  483   4.706   4.014   5.803 -0.4890  0.0180 -0.3284
    7CHL1   C19  484   4.779   3.876   5.799 -0.1337 -0.0743  0.7784
    7CHL1  H19A  485   4.886   3.874   5.770 -0.3844 -3.8225 -0.4869
    7CHL1  H19B  486   4.774   3.821   5.896 -2.4501 -2.4227 -0.5258
    7CHL1  H19C  487   4.733   3.808   5.724 -1.4741  0.2459  1.2679
    7CHL1    C1  488   4.796   4.122   5.881 -0.0618  0.1541  0.4582
    7CHL1   H1A  489   4.896   4.107   5.836 -1.8559 -2.1342 -3.3391
    7CHL1   H1B  490   4.754   4.224   5.865 -0.6353  0.1486  1.7901
    7CHL1    C2  491   4.808   4.081   6.035 -0.8781 -1.0246 -0.1549
    7CHL1   H2A  492   4.865   4.164   6.082 -1.9657  0.3701 -1.2278
    7CHL1   H2B  493   4.870   3.991   6.054  1.8762  1.0839  1.6770
    7CHL1   C20  494   4.696   4.083   5.091 -0.0622 -0.4534 -0.5186
    7CHL1   H20  495   4.695   3.972   5.092  3.5966 -0.6390  2.2802
    7CHL1   C21  496   4.841   4.140   5.095  0.1318  0.3194  0.3896
    7CHL1  H21A  497   4.893   4.104   5.004 -2.4482 -0.4270 -0.8519
    7CHL1  H21B  498   4.901   4.111   5.184 -0.3246  1.9690  1.2736
    7CHL1  H21C  499   4.845   4.251   5.093  2.1019  0.2742 -0.7445
    7CHL1   C22  500   4.636   4.134   4.958 -0.3463 -0.7402 -0.1008
    7CHL1  H22A  501   4.526   4.145   4.973 -0.6266 -2.4491 -0.6459
    7CHL1  H22B  502   4.686   4.232   4.946  1.9791 -1.6262  1.7826
    7CHL1   C23  503   4.677   4.048   4.837 -0.9692  0.3654 -0.1804
    7CHL1  H23A  504   4.787   4.028   4.831 -1.0250  0.4197 -1.8671
    7CHL1  H23B  505   4.628   3.951   4.857  0.3406 -0.2665  0.1035
    7CHL1   C24  506   4.605   4.089   4.706  0.0232  0.2199  0.3537
    7CHL1  H24A  507   4.497   4.086   4.730 -0.4261  2.2443 -1.1310
    7CHL1  H24B  508   4.631   4.196   4.693 -2.3132  0.8055  0.0397
    7CHL1   C25  509   4.624   3.985   4.590 -0.3824 -0.1774 -0.1879
    7CHL1   H25  510   4.598   3.885   4.631  0.2655  0.1669  1.0992
    7CHL1   C26  511   4.518   4.005   4.480 -0.3373  0.0496  0.6522
    7CHL1  H26A  512   4.418   3.986   4.525 -1.3755 -0.9439 -1.8849
    7CHL1  H26B  513   4.526   4.108   4.440 -1.4928 -0.2859 -0.5007
    7CHL1  H26C  514   4.522   3.932   4.396 -0.5653 -0.6526  1.2441
    7CHL1   C27  515   4.760   3.989   4.537 -0.5152  0.3728  0.5450
    7CHL1  H27A  516   4.771   4.090   4.493 -0.6484  0.2910  0.3246
    7CHL1  H27B  517   4.837   3.960   4.613  0.4526  0.6193 -0.3191
    7CHL1  H27C  518   4.777   3.917   4.454  0.6626  1.7238 -0.4219
    8CHL1    C3  519   1.555   2.012   5.862  0.9132 -0.6285  0.2155
    8CHL1    H3  520   1.661   1.991   5.837  0.6624 -0.1921 -1.2924
    8CHL1    O3  521   1.547   2.021   6.001  0.0718 -0.4830 -0.0653
    8CHL1   H3'  522   1.454   2.042   6.009  0.4588  2.6905 -2.3807
    8CHL1    C4  523   1.512   2.147   5.805 -0.2800  0.1331  0.0999
    8CHL1   H4A  524   1.414   2.179   5.846  0.4578  1.1001  1.1473
    8CHL1   H4B  525   1.576   2.226   5.850  0.1337  0.1807 -0.5512
    8CHL1    C5  526   1.511   2.162   5.654  0.3207 -0.1343 -0.3495
    8CHL1    C6  527   1.580   2.263   5.591 -0.7291 -0.0460 -0.0596
    8CHL1    H6  528   1.640   2.332   5.652  1.9618  0.4565 -3.0182
    8CHL1    C7  529   1.597   2.271   5.438 -0.1514 -0.4622  0.1158
    8CHL1   H7A  530   1.570   2.371   5.397  0.6514  0.5603  1.9582
    8CHL1   H7B  531   1.705   2.258   5.417  0.9458  3.4736  2.2122
    8CHL1    C8  532   1.507   2.170   5.367  0.6553  0.1257 -0.8633
    8CHL1    H8  533   1.411   2.223   5.348  0.3587 -0.6148 -1.4898
    8CHL1   C14  534   1.561   2.155   5.226 -0.4911  0.5742  0.5545
    8CHL1   H14  535   1.658   2.104   5.246  0.6966  2.4617 -0.0629
    8CHL1   C15  536   1.604   2.282   5.137  0.5622  0.8438  0.2582
    8CHL1  H15A  537   1.509   2.340   5.130 -1.4592 -1.8379  2.7977
    8CHL1  H15B  538   1.695   2.340   5.167  1.2518 -0.7369  1.3799
    8CHL1   C16  539   1.613   2.215   4.993  0.8413  0.2300 -0.1810
    8CHL1  H16A  540   1.558   2.281   4.922  1.7504  1.1211 -0.0841
    8CHL1  H16B  541   1.716   2.208   4.952  0.2746 -3.2244 -1.3035
    8CHL1   C17  542   1.552   2.068   4.995  0.5810  0.3104  0.0137
    8CHL1   H17  543   1.642   2.005   5.009  0.3947  0.1446  0.4655
    8CHL1   C13  544   1.477   2.061   5.135 -0.2876 -0.3756 -0.1336
    8CHL1   C18  545   1.333   2.114   5.117 -0.5175  0.2697 -0.4755
    8CHL1  H18A  546   1.278   2.125   5.213  1.0314  0.1332  0.4656
    8CHL1  H18B  547   1.349   2.214   5.072  2.6178  0.0535 -0.0402
    8CHL1  H18C  548   1.272   2.048   5.052 -0.4345  1.0772 -1.3952
    8CHL1   C12  549   1.473   1.925   5.203  0.2423 -0.4793 -0.3444
    8CHL1  H12A  550   1.398   1.863   5.150  0.8167 -0.4207 -1.2329
    8CHL1  H12B  551   1.563   1.861   5.194 -0.2047 -0.8143 -3.1655
    8CHL1   C11  552   1.417   1.940   5.349  0.2038  0.5074  0.4403
    8CHL1  H11A  553   1.308   1.963   5.342 -0.2515 -1.3568  0.8504
    8CHL1  H11B  554   1.422   1.843   5.404  0.8852  0.1955 -0.1669
    8CHL1    C9  555   1.491   2.037   5.443  0.3256  0.2340  0.3992
    8CHL1    H9  556   1.592   1.989   5.446 -0.5896 -1.7482  0.9945
    8CHL1   C10  557   1.439   2.046   5.587 -0.2901 -0.3283  0.2571
    8CHL1   C19  558   1.284   2.070   5.593 -1.1461  0.4810  0.6300
    8CHL1  H19A  559   1.233   2.087   5.496  0.9190 -0.5409 -0.7097
    8CHL1  H19B  560   1.241   1.977   5.636 -0.0494  0.8108  2.5955
    8CHL1  H19C  561   1.254   2.154   5.659  0.4651  0.5964  1.2711
    8CHL1    C1  562   1.477   1.906   5.653  0.0008  0.2675  0.1445
    8CHL1   H1A  563   1.412   1.831   5.603  0.0043  1.1229 -1.1871
    8CHL1   H1B  564   1.583   1.882   5.627 -0.1400 -2.8447  1.9277
    8CHL1    C2  565   1.461   1.898   5.807  0.2360 -0.0982 -0.3559
    8CHL1   H2A  566   1.499   1.804   5.851 -0.3625 -0.4786 -0.6517
    8CHL1   H2B  567   1.354   1.904   5.837  0.7402 -1.5173  1.9632
    8CHL1   C20  568   1.483   2.028   4.862 -0.0771  0.0641 -0.1011
    8CHL1   H20  569   1.384   2.076   4.849  0.1445  0.4457 -0.4273
    8CHL1   C21  570   1.459   1.877   4.857  0.2564  0.0303 -1.0430
    8CHL1  H21A  571   1.399   1.850   4.767  0.7017  0.4000 -1.4529
    8CHL1  H21B  572   1.415   1.840   4.952  2.4989 -0.4117 -0.1014
    8CHL1  H21C  573   1.555   1.823   4.843 -0.0828 -0.5562 -1.1500
    8CHL1   C22  574   1.569   2.074   4.741 -0.5544  0.9888  0.6553
    8CHL1  H22A  575   1.595   2.182   4.735 -0.2218  1.0314  2.4234
    8CHL1  H22B  576   1.657   2.008   4.755 -0.9592  0.0942 -0.7840
    8CHL1   C23  577   1.495   2.041   4.603 -0.9242  0.4802 -0.8321
    8CHL1  H23A  578   1.503   1.934   4.576  0.2325  0.6766 -1.3072
    8CHL1  H23B  579   1.390   2.076   4.594 -0.7978  0.4415 -2.7416
    8CHL1   C24  580   1.569   2.114   4.488 -1.0393  0.0621 -0.0585
    8CHL1  H24A  581   1.578   2.223   4.506  0.0189  0.0132 -0.2174
    8CHL1  H24B  582   1.674   2.079   4.489 -0.9443  0.1664  2.6045
    8CHL1   C25  583   1.527   2.093   4.342  0.1970 -0.5071 -0.9627
    8CHL1   H25  584   1.508   1.987   4.316  1.2266 -1.1827  0.8800
    8CHL1   C26  585   1.401   2.180   4.312  0.2446 -0.5448 -0.5405
    8CHL1  H26A  586   1.424   2.286   4.335  1.2020 -0.6075 -1.1588
    8CHL1  H26B  587   1.382   2.177   4.203  1.0887  0.6156 -0.7393
    8CHL1  H26C  588   1.320   2.133   4.371  1.7382 -1.1200  1.1468
    8CHL1   C27  589   1.642   2.131   4.248 -0.1863 -0.3572  0.4356
    8CHL1  H27A  590   1.616   2.080   4.153  2.4583  0.7912 -1.0146
    8CHL1  H27B  591   1.641   2.241   4.232 -1.1111 -0.6218 -1.6088
    8CHL1  H27C  592   1.743   2.100   4.282  0.3179 -0.8370 -1.4275
    9CHL1    C3  593   6.064   3.615   6.037 -0.7113  0.1335 -0.0701
    9CHL1    H3  594   5.963   3.652   6.010 -1.3913  0.0280  2.0956
    9CHL1    O3  595   6.072   3.628   6.180 -0.7000 -0.3724  0.1118
    9CHL1   H3'  596   5.985   3.655   6.211 -0.3141 -0.4758  1.3222
    9CHL1    C4  597   6.079   3.468   5.999  0.0759  0.4847 -0.2169
    9CHL1   H4A  598   6.179   3.441   6.040  0.3756  3.1978  0.9930
    9CHL1   H4B  599   6.006   3.401   6.049  1.6873 -1.1331  0.0611
    9CHL1    C5  600   6.073   3.448   5.848 -0.2198  0.3147 -0.2056
    9CHL1    C6  601   5.995   3.353   5.789 -0.3133 -0.5573  0.0271
    9CHL1    H6  602   5.961   3.274   5.858 -0.3721 -0.3425  0.2422
    9CHL1    C7  603   5.978   3.335   5.639 -0.5056  0.1009  1.0483
    9CHL1   H7A  604   5.993   3.226   5.618  0.7328  0.2635  1.0091
    9CHL1   H7B  605   5.879   3.366   5.600  0.8063  3.1831 -0.1337
    9CHL1    C8  606   6.075   3.416   5.548 -0.1871 -0.7129 -0.1904
    9CHL1    H8  607   6.174   3.366   5.547  1.9070  3.1149 -0.5531
    9CHL1   C14  608   6.020   3.433   5.414  0.3616  0.2875 -0.6879
    9CHL1   H14  609   5.919   3.476   5.427 -0.3672 -1.5253 -0.0940
    9CHL1   C15  610   5.972   3.308   5.332 -0.2770 -0.1646  0.6673
    9CHL1  H15A  611   6.045   3.228   5.355  1.5043  2.0426  3.5096
    9CHL1  H15B  612   5.876   3.278   5.380 -0.7129 -3.0049 -1.6810
    9CHL1   C16  613   5.955   3.369   5.187 -1.2314 -0.4655  0.9060
    9CHL1  H16A  614   6.017   3.304   5.121  0.2043  4.0718 -2.7825
    9CHL1  H16B  615   5.854   3.365   5.140 -0.4184  0.0231 -0.9857
    9CHL1   C17  616   6.007   3.514   5.191 -0.5190  0.1169  0.7107
    9CHL1   H17  617   5.919   3.578   5.214 -0.1063  1.8081 -1.9176
    9CHL1   C13  618   6.104   3.519   5.317  0.3966 -0.0159  0.5128
    9CHL1   C18  619   6.227   3.444   5.274 -0.6645  0.2735 -0.9722
    9CHL1  H18A  620   6.291   3.512   5.214  1.0860 -1.3908 -1.0911
    9CHL1  H18B  621   6.292   3.419   5.361 -0.4309  0.4683 -1.0886
    9CHL1  H18C  622   6.220   3.345   5.225  1.5500 -1.2159  1.4729
    9CHL1   C12  623   6.128   3.654   5.376  0.7865 -0.6649  0.3415
    9CHL1  H12A  624   6.183   3.721   5.306 -1.2834  2.4766  1.5034
    9CHL1  H12B  625   6.031   3.706   5.392  0.8904 -0.6423  0.9062
    9CHL1   C11  626   6.185   3.639   5.521  0.1491  0.1203  1.0139
    9CHL1  H11A  627   6.276   3.578   5.501 -0.5507 -0.2615 -1.3013
    9CHL1  H11B  628   6.209   3.742   5.557 -0.6774  1.1828 -1.3015
    9CHL1    C9  629   6.099   3.555   5.617 -0.8243 -0.3013  0.5917
    9CHL1    H9  630   5.999   3.603   5.621 -1.2274 -0.8906 -1.3701
    9CHL1   C10  631   6.154   3.548   5.762 -0.5890  0.1058 -0.2596
    9CHL1   C19  632   6.300   3.508   5.760  0.8647 -0.3223  0.3711
    9CHL1  H19A  633   6.367   3.572   5.698  1.4093 -2.5895 -1.5063
    9CHL1  H19B  634   6.346   3.495   5.860  0.8332  1.2955  0.6263
    9CHL1  H19C  635   6.307   3.403   5.725 -2.0010 -0.9982  1.5429
    9CHL1    C1  636   6.137   3.688   5.821 -0.3313 -0.0084  0.0417
    9CHL1   H1A  637   6.205   3.750   5.759  0.8107 -0.0252  1.2239
    9CHL1   H1B  638   6.031   3.717   5.803 -0.0833 -0.0434 -1.6503
    9CHL1    C2  639   6.160   3.707   5.969 -0.5820 -0.1438 -0.3164
    9CHL1   H2A  640   6.137   3.813   5.990 -0.0867  0.3701 -2.1744
    9CHL1   H2B  641   6.264   3.675   5.990 -0.4805  1.9723  2.9755
    9CHL1   C20  642   6.048   3.576   5.057  0.3526 -1.1941  0.0826
    9CHL1   H20  643   6.158   3.580   5.045  0.2213  1.6175 -0.8914
    9CHL1   C21  644   6.016   3.722   5.066 -0.2074 -0.8466  0.5938
    9CHL1  H21A  645   6.075   3.769   4.986  0.5562 -0.0566  1.5942
    9CHL1  H21B  646   6.023   3.767   5.168  0.6530 -0.0740  0.2057
    9CHL1  H21C  647   5.909   3.741   5.043  0.5407  0.7620 -1.8570
    9CHL1   C22  648   5.977   3.521   4.937  0.7961  0.1180  0.7887
    9CHL1  H22A  649   5.988   3.410   4.935 -0.0229  0.0381  0.0297
    9CHL1  H22B  650   5.867   3.537   4.941  0.6535 -0.4596 -0.3486
    9CHL1   C23  651   6.025   3.573   4.798  0.4046 -0.0078  0.2465
    9CHL1  H23A  652   5.959   3.658   4.772  0.0125 -0.2973  0.2869
    9CHL1  H23B  653   6.133   3.601   4.803 -0.5154  4.2153  0.4391
    9CHL1   C24  654   6.003   3.459   4.690 -0.2320  0.4088  0.4290
    9CHL1  H24A  655   5.896   3.432   4.683 -0.3706  1.1498 -0.5377
    9CHL1  H24B  656   6.020   3.514   4.594 -3.0135  0.6081 -0.0300
    9CHL1   C25  657   6.093   3.335   4.694 -1.0925 -0.2724  0.0484
    9CHL1   H25  658   6.078   3.276   4.787  1.5737  2.0851  2.1382
    9CHL1   C26  659   6.068   3.258   4.556  0.2545  0.5582  0.3305
    9CHL1  H26A  660   6.099   3.151   4.554 -0.9039  0.2039 -1.8454
    9CHL1  H26B  661   5.961   3.269   4.527  0.4671  3.5443  0.4364
    9CHL1  H26C  662   6.119   3.305   4.469 -3.0745  1.6953 -1.2009
    9CHL1   C27  663   6.242   3.376   4.694  0.4877 -0.1902  0.2348
    9CHL1  H27A  664   6.274   3.376   4.800 -0.1414 -1.6759  0.4498
    9CHL1  H27B  665   6.295   3.302   4.630 -0.1359  0.3963 -0.9890
    9CHL1  H27C  666   6.250   3.474   4.642  0.6081  0.1689  0.9224
   10CHL1    C3  667   5.898   4.189   6.204 -0.4571 -0.3086 -0.4968
   10CHL1    H3  668   5.893   4.078   6.198 -1.3744 -0.2726 -0.5592
   10CHL1    O3  669   5.892   4.232   6.338 -0.7897 -0.0179  0.2508
   10CHL1   H3'  670   5.909   4.325   6.323 -2.5884  0.7420  2.3916
   10CHL1    C4  671   6.033   4.233   6.138  0.5810 -0.1717  0.1267
   10CHL1   H4A  672   6.054   4.340   6.160 -0.5013 -0.2612  1.8044
   10CHL1   H4B  673   6.109   4.183   6.203  1.9252  2.2006  0.5108
   10CHL1    C5  674   6.043   4.197   5.992 -0.4722  0.1437  0.1961
   10CHL1    C6  675   6.132   4.109   5.945 -0.1174 -0.1052  0.2435
   10CHL1    H6  676   6.205   4.066   6.015  0.7381  2.9384  1.3823
   10CHL1    C7  677   6.144   4.078   5.800  0.4285  0.1231  0.7141
   10CHL1   H7A  678   6.251   4.086   5.769  0.1755 -1.2719 -0.6267
   10CHL1   H7B  679   6.116   3.973   5.778 -0.0150  0.3785  0.0341
   10CHL1    C8  680   6.066   4.181   5.716 -0.1677  0.1357  0.2343
   10CHL1    H8  681   6.130   4.272   5.718  1.6669 -1.0846 -0.2096
   10CHL1   C14  682   6.045   4.133   5.574 -0.7221 -0.3773 -0.4772
   10CHL1   H14  683   5.982   4.041   5.579 -0.4660 -0.6585 -2.0748
   10CHL1   C15  684   6.169   4.077   5.503 -0.6993 -0.1185 -0.5862
   10CHL1  H15A  685   6.251   4.151   5.509 -1.2359  0.6053 -1.8342
   10CHL1  H15B  686   6.205   3.979   5.542  0.5427  0.2921 -0.6616
   10CHL1   C16  687   6.134   4.063   5.354  0.0181 -0.1254 -0.0663
   10CHL1  H16A  688   6.206   4.127   5.298 -0.8507 -0.0643 -1.1441
   10CHL1  H16B  689   6.132   3.958   5.320  0.3960 -0.4771  0.9549
   10CHL1   C17  690   5.992   4.136   5.340 -0.0998  0.5028 -0.6487
   10CHL1   H17  691   5.927   4.046   5.349  0.5684 -0.0707 -1.3600
   10CHL1   C13  692   5.980   4.224   5.465 -0.0539  0.2004 -0.2484
   10CHL1   C18  693   6.062   4.353   5.448  0.3062 -0.5141  0.3210
   10CHL1  H18A  694   6.154   4.333   5.389 -2.3141  0.2697 -4.5731
   10CHL1  H18B  695   5.995   4.426   5.396  2.3786  0.0121 -1.7895
   10CHL1  H18C  696   6.102   4.388   5.545 -0.4574 -0.0424  0.4758
   10CHL1   C12  697   5.837   4.246   5.523 -0.0126  0.5884 -0.4706
   10CHL1  H12A  698   5.771   4.312   5.461 -0.5274  0.2248 -0.3159
   10CHL1  H12B  699   5.783   4.149   5.529  0.2896  0.4942  1.3345
   10CHL1   C11  700   5.839   4.289   5.667  0.5234 -0.6441  0.2248
   10CHL1  H11A  701   5.860   4.398   5.667 -1.0702 -0.2979  1.4575
   10CHL1  H11B  702   5.738   4.269   5.707 -0.5103 -0.2424 -2.0388
   10CHL1    C9  703   5.924   4.202   5.768  0.0711 -0.3303  0.6147
   10CHL1    H9  704   5.870   4.105   5.763 -0.5128  0.0470 -1.3311
   10CHL1   C10  705   5.922   4.261   5.907 -1.1195  0.2720  0.2782
   10CHL1   C19  706   5.951   4.414   5.903  0.6153  0.7653  0.4514
   10CHL1  H19A  707   5.860   4.457   5.855  0.7619 -0.9255 -1.4794
   10CHL1  H19B  708   5.966   4.463   6.002  1.6570  0.6215  0.3695
   10CHL1  H19C  709   6.042   4.420   5.840  1.5122 -2.8750  1.1425
   10CHL1    C1  710   5.787   4.227   5.972 -0.2487  0.1931  0.0345
   10CHL1   H1A  711   5.702   4.278   5.921  0.9914  1.4896 -0.8397
   10CHL1   H1B  712   5.776   4.117   5.977 -1.2013  0.3271  1.3824
   10CHL1    C2  713   5.788   4.266   6.123 -0.3551  0.3024 -0.0529
   10CHL1   H2A  714   5.697   4.222   6.168 -0.9271  1.0830 -0.4253
   10CHL1   H2B  715   5.784   4.372   6.154  1.6541 -0.4124  3.1687
   10CHL1   C20  716   5.965   4.193   5.193 -0.1352  0.2785 -0.5751
   10CHL1   H20  717   6.034   4.279   5.183  0.1449 -0.0034 -1.1285
   10CHL1   C21  718   5.827   4.249   5.180 -0.1012  0.6930 -0.1097
   10CHL1  H21A  719   5.752   4.167   5.189 -0.2106  0.8612  0.4815
   10CHL1  H21B  720   5.819   4.303   5.083 -0.6077  1.1506  0.1888
   10CHL1  H21C  721   5.798   4.323   5.257  2.1345 -0.2714  1.8036
   10CHL1   C22  722   6.004   4.095   5.080  0.0226 -0.3809  0.1398
   10CHL1  H22A  723   6.114   4.083   5.073 -0.2088 -2.9357 -0.1291
   10CHL1  H22B  724   5.958   3.995   5.092  1.3624 -1.1407 -0.7069
   10CHL1   C23  725   5.975   4.140   4.935 -0.3253  0.3474 -0.5318
   10CHL1  H23A  726   5.865   4.146   4.920 -0.6051 -0.9810  0.7181
   10CHL1  H23B  727   6.031   4.236   4.935  0.4854 -0.0994  0.7454
   10CHL1   C24  728   6.030   4.037   4.836  0.4031  0.3235 -0.7670
   10CHL1  H24A  729   6.141   4.035   4.847  0.4604 -2.2076 -1.1308
   10CHL1  H24B  730   5.995   3.934   4.860 -1.8836  0.5027 -2.9259
   10CHL1   C25  731   5.992   4.061   4.694 -0.1012  0.2073 -0.2842
   10CHL1   H25  732   5.882   4.065   4.690 -0.0620  1.2083 -0.4809
   10CHL1   C26  733   6.037   4.201   4.645 -0.0387  0.1674 -0.4877
   10CHL1  H26A  734   6.144   4.189   4.619  0.2015  0.2328  0.4406
   10CHL1  H26B  735   5.970   4.220   4.559 -1.3129  0.8690  0.6275
   10CHL1  H26C  736   6.031   4.274   4.729  0.1521  0.0563 -0.3772
   10CHL1   C27  737   6.053   3.946   4.610  0.3847 -0.1757  0.6512
   10CHL1  H27A  738   6.016   3.957   4.506  2.5832 -2.2551 -0.4339
   10CHL1  H27B  739   6.164   3.945   4.618  0.5419 -0.5839 -1.2206
   10CHL1  H27C  740   5.998   3.863   4.658  0.7399 -0.2667  0.9052
   11CHL1    C3  741   1.747   0.666   6.137  0.3960  0.2055 -0.4245
   11CHL1    H3  742   1.639   0.671   6.113  0.1002 -1.3419  0.4668
   11CHL1    O3  743   1.768   0.663   6.275  0.2529  0.0624  0.8577
   11CHL1   H3'  744   1.862   0.649   6.282  0.0127 -0.9363  2.6022
   11CHL1    C4  745   1.815   0.539   6.080 -0.0009 -0.0392 -0.1108
   11CHL1   H4A  746   1.920   0.521   6.112  0.5197  1.4072 -0.9110
   11CHL1   H4B  747   1.768   0.449   6.125 -0.6803 -1.5897 -3.5908
   11CHL1    C5  748   1.789   0.531   5.932 -0.4511 -0.1997  0.3259
   11CHL1    C6  749   1.720   0.431   5.880 -0.1700 -0.1677 -0.4081
   11CHL1    H6  750   1.672   0.359   5.949 -1.0972  0.3259 -0.5213
   11CHL1    C7  751   1.709   0.401   5.738  1.1089 -0.6884 -0.1275
   11CHL1   H7A  752   1.728   0.293   5.720 -3.6030 -1.6923 -0.4422
   11CHL1   H7B  753   1.603   0.418   5.708  1.1937  0.3853  0.1137
   11CHL1    C8  754   1.800   0.494   5.658 -0.5941 -0.3418  0.6141
   11CHL1    H8  755   1.903   0.451   5.666  0.4111  1.5625 -1.0353
   11CHL1   C14  756   1.757   0.491   5.504  0.5609  0.4286 -0.9306
   11CHL1   H14  757   1.652   0.526   5.502  1.0739  2.1123 -0.2439
   11CHL1   C15  758   1.756   0.353   5.444  0.4436 -0.3302 -0.9377
   11CHL1  H15A  759   1.856   0.309   5.464  0.5427  0.5187  0.6354
   11CHL1  H15B  760   1.680   0.296   5.502  0.8847  1.0554  1.1377
   11CHL1   C16  761   1.730   0.380   5.298  0.9720 -0.3796 -0.0959
   11CHL1  H16A  762   1.791   0.316   5.231  0.6709 -2.4681  1.4972
   11CHL1  H16B  763   1.622   0.369   5.273  1.1343 -2.3486 -0.1046
   11CHL1   C17  764   1.753   0.537   5.279  0.0371 -0.0619 -0.5225
   11CHL1   H17  765   1.653   0.585   5.284 -0.2362 -0.4633 -1.8502
   11CHL1   C13  766   1.831   0.582   5.408  0.4874  0.0475  0.7718
   11CHL1   C18  767   1.983   0.558   5.390  0.3499  0.4978 -0.5869
   11CHL1  H18A  768   2.027   0.632   5.320 -0.6804  1.6553 -0.0481
   11CHL1  H18B  769   2.035   0.565   5.488 -1.5446  1.7149  0.3931
   11CHL1  H18C  770   1.996   0.454   5.353  0.5707 -1.2629  3.7696
   11CHL1   C12  771   1.810   0.724   5.456  0.0513  0.0156 -0.9133
   11CHL1  H12A  772   1.858   0.800   5.391 -0.9751  0.8828 -0.6733
   11CHL1  H12B  773   1.700   0.738   5.455  0.1249  0.5934 -1.1896
   11CHL1   C11  774   1.855   0.738   5.599 -0.8394 -0.2825 -0.2619
   11CHL1  H11A  775   1.965   0.727   5.600 -0.9567 -1.5047  0.6289
   11CHL1  H11B  776   1.829   0.841   5.632 -3.1163 -0.9946  0.3858
   11CHL1    C9  777   1.789   0.640   5.701 -0.3714 -0.5316  0.2230
   11CHL1    H9  778   1.682   0.672   5.703 -0.2673 -0.2074  1.1482
   11CHL1   C10  779   1.848   0.653   5.845  0.2675 -0.2142 -0.3396
   11CHL1   C19  780   2.007   0.642   5.859  0.4349  0.9726  0.2694
   11CHL1  H19A  781   2.035   0.548   5.807  0.8163  2.2846 -2.0732
   11CHL1  H19B  782   2.049   0.721   5.793 -1.3221  1.7294 -0.0182
   11CHL1  H19C  783   2.052   0.649   5.960  0.6954 -0.4294  0.2690
   11CHL1    C1  784   1.800   0.786   5.916  0.2251 -0.3364  1.1241
   11CHL1   H1A  785   1.851   0.870   5.864 -1.8795 -1.1033 -2.5519
   11CHL1   H1B  786   1.697   0.798   5.876  0.2785 -2.1737  0.3371
   11CHL1    C2  787   1.818   0.790   6.071 -0.1757  0.9301 -0.1953
   11CHL1   H2A  788   1.777   0.883   6.116 -3.3115 -1.0452  1.3373
   11CHL1   H2B  789   1.928   0.780   6.087  0.1412 -2.4002 -3.1381
   11CHL1   C20  790   1.804   0.584   5.143  0.5195  0.6923  0.3552
   11CHL1   H20  791   1.913   0.568   5.127  0.4495  1.4126 -1.0223
   11CHL1   C21  792   1.784   0.740   5.131 -0.1632  0.8369 -0.2656
   11CHL1  H21A  793   1.798   0.771   5.026  3.9269 -2.5846 -0.9777
   11CHL1  H21B  794   1.860   0.798   5.188 -2.1930  1.0529  2.4441
   11CHL1  H21C  795   1.685   0.775   5.168 -1.2760 -2.7209  0.4276
   11CHL1   C22  796   1.720   0.528   5.032 -0.2929 -0.4970  0.2414
   11CHL1  H22A  797   1.688   0.425   5.059 -1.6600 -1.5181 -4.3604
   11CHL1  H22B  798   1.631   0.592   5.019  0.4540  0.7757  1.0984
   11CHL1   C23  799   1.787   0.508   4.888 -0.0228 -0.1036 -0.5373
   11CHL1  H23A  800   1.788   0.612   4.849  0.1053  0.5760  1.1688
   11CHL1  H23B  801   1.891   0.477   4.910  0.5708  2.3438  0.4157
   11CHL1   C24  802   1.726   0.411   4.790 -0.1074  1.2041  0.1677
   11CHL1  H24A  803   1.742   0.306   4.820  0.4172  1.2911  0.2020
   11CHL1  H24B  804   1.616   0.417   4.777 -0.2076  0.2711  0.5403
   11CHL1   C25  805   1.783   0.418   4.642 -0.1285  0.5496 -0.4556
   11CHL1   H25  806   1.723   0.339   4.592 -1.3015  2.1277 -1.6718
   11CHL1   C26  807   1.757   0.552   4.572 -0.1071  0.0835  0.7562
   11CHL1  H26A  808   1.808   0.631   4.630  1.8321 -0.7211  0.2072
   11CHL1  H26B  809   1.808   0.541   4.474  0.3272  0.9584  0.8738
   11CHL1  H26C  810   1.648   0.571   4.560 -0.3070 -1.1704  0.4736
   11CHL1   C27  811   1.929   0.384   4.635  0.3786  0.2633  0.8175
   11CHL1  H27A  812   1.953   0.282   4.670 -3.4809 -0.6322  1.3570
   11CHL1  H27B  813   1.961   0.405   4.530  0.2979  1.0359  0.9435
   11CHL1  H27C  814   1.990   0.455   4.693  1.0992  0.8611 -0.6228
   12CHL1    C3  815   4.633   2.237   5.560 -0.1494  0.8178  0.0454
   12CHL1    H3  816   4.522   2.250   5.560 -0.7628 -2.9501 -2.1277
   12CHL1    O3  817   4.673   2.259   5.695 -1.1508  0.2011 -0.7222
   12CHL1   H3'  818   4.596   2.231   5.746 -1.3618  1.9451 -0.0099
   12CHL1    C4  819   4.659   2.092   5.516  0.5546  0.8965  0.5266
   12CHL1   H4A  820   4.764   2.062   5.537  0.1677 -3.0079 -2.0997
   12CHL1   H4B  821   4.590   2.026   5.573 -0.8040  1.3949 -0.4943
   12CHL1    C5  822   4.635   2.060   5.366 -0.4328  0.5318  0.3729
   12CHL1    C6  823   4.547   1.963   5.328 -0.2076  0.0967  0.4347
   12CHL1    H6  824   4.491   1.904   5.402  0.0567 -0.0110  0.5501
   12CHL1    C7  825   4.526   1.939   5.182 -0.1374  0.0247  0.4817
   12CHL1   H7A  826   4.522   1.831   5.157 -0.1512 -0.0274  0.7099
   12CHL1   H7B  827   4.429   1.981   5.148  0.1032  0.8251  0.7485
   12CHL1    C8  828   4.644   1.995   5.100 -0.3649 -0.6963  0.3440
   12CHL1    H8  829   4.726   1.927   5.133 -0.8130 -1.1916  0.4422
   12CHL1   C14  830   4.611   1.979   4.950 -0.7402  0.1214 -0.5001
   12CHL1   H14  831   4.530   2.053   4.935 -0.6096  0.9996  2.4782
   12CHL1   C15  832   4.573   1.833   4.907 -0.3425 -0.1279 -0.0704
   12CHL1  H15A  833   4.627   1.747   4.952  0.0819  0.1867  0.0258
   12CHL1  H15B  834   4.468   1.799   4.921 -0.3799 -0.1630 -0.4441
   12CHL1   C16  835   4.608   1.838   4.757  0.8946 -0.5804  0.2443
   12CHL1  H16A  836   4.660   1.745   4.725  2.6854 -0.0407  1.4145
   12CHL1  H16B  837   4.514   1.834   4.699  1.5683 -1.4066 -0.8476
   12CHL1   C17  838   4.673   1.978   4.718 -0.7223  0.6189  0.9721
   12CHL1   H17  839   4.585   2.041   4.693 -0.8242  0.7712  1.7047
   12CHL1   C13  840   4.721   2.031   4.855  0.5142  0.5455  0.3648
   12CHL1   C18  841   4.850   1.953   4.885 -0.4911 -1.2691 -0.1572
   12CHL1  H18A  842   4.873   1.952   4.993 -0.1904 -3.0395 -0.2029
   12CHL1  H18B  843   4.855   1.855   4.832 -0.1647 -0.2822 -2.0495
   12CHL1  H18C  844   4.934   2.005   4.835 -2.2415 -0.2582 -2.2068
   12CHL1   C12  845   4.739   2.184   4.874 -0.9653 -0.2500 -0.7434
   12CHL1  H12A  846   4.819   2.237   4.818 -0.4912  1.1206  1.1135
   12CHL1  H12B  847   4.642   2.236   4.863 -0.4104  1.6896  2.3353
   12CHL1   C11  848   4.761   2.222   5.025 -0.5763  0.0381  0.2554
   12CHL1  H11A  849   4.869   2.220   5.053 -0.7279 -0.3635  0.8454
   12CHL1  H11B  850   4.730   2.324   5.053 -1.0218 -0.2967  1.0166
   12CHL1    C9  851   4.675   2.142   5.132  0.9781  0.2121  0.0222
   12CHL1    H9  852   4.576   2.192   5.120  0.6940 -0.2397  0.4553
   12CHL1   C10  853   4.715   2.151   5.278 -0.6339  0.1866  0.5408
   12CHL1   C19  854   4.867   2.122   5.292  0.1785 -0.0662 -0.0419
   12CHL1  H19A  855   4.895   2.019   5.260  0.4294 -0.1244  0.3643
   12CHL1  H19B  856   4.923   2.198   5.233 -0.6177  0.8799  0.3932
   12CHL1  H19C  857   4.910   2.138   5.393  3.8034  0.3956 -1.4914
   12CHL1    C1  858   4.694   2.302   5.318 -0.0532  0.3576 -0.8619
   12CHL1   H1A  859   4.780   2.364   5.286  0.5810  0.0926  0.2945
   12CHL1   H1B  860   4.604   2.350   5.274 -0.4473  1.7265  1.2714
   12CHL1    C2  861   4.701   2.344   5.467  0.0888 -0.2572 -0.0928
   12CHL1   H2A  862   4.656   2.441   5.500 -1.4318 -2.1048  3.9948
   12CHL1   H2B  863   4.807   2.349   5.500 -0.1581 -0.8242  0.8351
   12CHL1   C20  864   4.763   1.966   4.591 -0.3471 -0.2260  0.1366
   12CHL1   H20  865   4.851   1.903   4.615 -0.1645 -0.4332 -1.0319
   12CHL1   C21  866   4.827   2.101   4.557 -0.2088  0.8150  0.8327
   12CHL1  H21A  867   4.743   2.172   4.570 -1.3832  0.0551 -1.8807
   12CHL1  H21B  868   4.872   2.116   4.457  0.9203 -0.3035  1.1444
   12CHL1  H21C  869   4.902   2.119   4.637  0.4380 -1.6815  0.8752
   12CHL1   C22  870   4.693   1.900   4.470 -0.4007  0.1322  0.9229
   12CHL1  H22A  871   4.771   1.885   4.392  0.5499  0.4267  1.7981
   12CHL1  H22B  872   4.667   1.794   4.491  1.0469 -0.5725 -0.5512
   12CHL1   C23  873   4.587   1.985   4.400 -0.3934 -0.5915 -0.5351
   12CHL1  H23A  874   4.525   2.031   4.480 -0.9806 -0.0292 -1.3069
   12CHL1  H23B  875   4.629   2.073   4.346 -1.4027 -0.0057 -0.3875
   12CHL1   C24  876   4.506   1.903   4.305 -0.0321  0.5316  0.6286
   12CHL1  H24A  877   4.571   1.887   4.217 -0.3812 -2.1371  0.8011
   12CHL1  H24B  878   4.484   1.808   4.357 -0.1699 -0.7835 -1.7270
   12CHL1   C25  879   4.369   1.969   4.273  0.0328  0.0058  0.5694
   12CHL1   H25  880   4.372   2.080   4.276  1.5854 -0.0333  1.8113
   12CHL1   C26  881   4.329   1.905   4.135 -0.2084 -0.2397 -1.0427
   12CHL1  H26A  882   4.311   1.796   4.138 -0.9698 -0.1145  2.0735
   12CHL1  H26B  883   4.226   1.938   4.108 -0.0488  0.2694 -1.0318
   12CHL1  H26C  884   4.405   1.928   4.057 -1.0289  1.8515 -1.3164
   12CHL1   C27  885   4.266   1.933   4.384  0.4103 -0.2641  0.3263
   12CHL1  H27A  886   4.296   1.981   4.480 -0.1160  0.4254  0.1523
   12CHL1  H27B  887   4.168   1.968   4.346  0.0389 -1.2461  0.3363
   12CHL1  H27C  888   4.265   1.823   4.401 -1.2183 -0.3842 -0.4418
   13CHL1    C3  889   3.946   2.135   5.842  0.9221  0.8377  0.3575
   13CHL1    H3  890   3.836   2.150   5.831  1.0844  1.6062 -0.3665
   13CHL1    O3  891   3.983   2.107   5.978  0.1319 -0.4904 -0.5727
   13CHL1   H3'  892   4.070   2.067   5.970  0.2322 -0.2013 -0.9557
   13CHL1    C4  893   3.979   2.004   5.767  0.2685 -0.7076  0.1774
   13CHL1   H4A  894   4.086   1.992   5.796  0.4385  2.3115  1.1641
   13CHL1   H4B  895   3.918   1.918   5.802 -1.8001 -0.0556 -1.6120
   13CHL1    C5  896   3.962   2.024   5.615 -0.0763  1.0234 -0.3413
   13CHL1    C6  897   3.881   1.936   5.547 -0.4862  0.1419  0.1035
   13CHL1    H6  898   3.826   1.860   5.605 -0.7474  0.7953  0.7329
   13CHL1    C7  899   3.862   1.956   5.398  0.3138 -0.2034 -0.7380
   13CHL1   H7A  900   3.846   1.857   5.352 -0.0015 -0.2598 -0.5138
   13CHL1   H7B  901   3.757   1.991   5.404  0.5451  0.2594  2.4039
   13CHL1    C8  902   3.952   2.052   5.321 -0.0191  0.0795 -0.5730
   13CHL1    H8  903   4.050   2.007   5.297 -0.7992 -1.6742 -0.5909
   13CHL1   C14  904   3.894   2.094   5.186 -0.1967  0.1746  0.9343
   13CHL1   H14  905   3.795   2.144   5.197 -1.6920 -1.9385 -1.5490
   13CHL1   C15  906   3.855   1.993   5.075  0.4559 -0.2426  0.3879
   13CHL1  H15A  907   3.928   1.910   5.065  0.0477 -0.4749 -0.7923
   13CHL1  H15B  908   3.761   1.938   5.096  0.0006  1.0700  1.9643
   13CHL1   C16  909   3.850   2.075   4.945  0.5192  0.6463  1.0469
   13CHL1  H16A  910   3.918   2.039   4.865 -0.4633  0.3457  0.3253
   13CHL1  H16B  911   3.745   2.082   4.910  0.6064  1.0008  0.8459
   13CHL1   C17  912   3.897   2.215   4.980  0.4950 -0.7013  1.1756
   13CHL1   H17  913   3.806   2.267   5.018  0.6010 -0.7909  1.5541
   13CHL1   C13  914   3.978   2.204   5.110  0.1146 -0.2963  0.0127
   13CHL1   C18  915   4.112   2.146   5.072  0.2108 -0.1526  0.1884
   13CHL1  H18A  916   4.183   2.223   5.035  0.3218  0.2023  1.1201
   13CHL1  H18B  917   4.163   2.097   5.158  0.1520 -0.9735 -0.2370
   13CHL1  H18C  918   4.098   2.082   4.983 -2.1928  2.5769 -1.6029
   13CHL1   C12  919   3.995   2.324   5.200  0.1471  0.0664  0.3961
   13CHL1  H12A  920   4.050   2.403   5.145  1.9082  0.0773  2.0925
   13CHL1  H12B  921   3.891   2.362   5.217  0.3740  1.1639 -0.5563
   13CHL1   C11  922   4.052   2.288   5.334 -0.1832 -0.7042  0.0359
   13CHL1  H11A  923   4.154   2.245   5.323 -0.2415 -0.9439  0.4127
   13CHL1  H11B  924   4.066   2.377   5.399  0.9411 -1.3464  0.6919
   13CHL1    C9  925   3.976   2.175   5.409 -0.1245  0.0341 -0.5149
   13CHL1    H9  926   3.877   2.222   5.428 -0.5200  0.1470 -2.5920
   13CHL1   C10  927   4.028   2.145   5.555 -0.2388 -0.0176  1.1424
   13CHL1   C19  928   4.186   2.111   5.554 -0.2953 -0.7191  0.4465
   13CHL1  H19A  929   4.237   2.198   5.506 -1.9969  0.6556  1.0106
   13CHL1  H19B  930   4.222   2.094   5.658  0.4222  0.4742  0.4195
   13CHL1  H19C  931   4.238   2.025   5.507  0.9893  0.1420  0.2397
   13CHL1    C1  932   4.010   2.273   5.640  0.0295  0.7193 -0.2368
   13CHL1   H1A  933   4.072   2.361   5.613 -0.9947  2.9794  3.8611
   13CHL1   H1B  934   3.904   2.303   5.629 -0.7921 -0.9729  2.1517
   13CHL1    C2  935   4.027   2.255   5.787  0.0444  0.3447 -0.1377
   13CHL1   H2A  936   4.007   2.348   5.844  2.4470 -0.2882  1.9629
   13CHL1   H2B  937   4.131   2.222   5.809 -0.4789 -1.3166  0.0220
   13CHL1   C20  938   3.955   2.299   4.859  0.4028  0.5484  0.0190
   13CHL1   H20  939   4.032   2.234   4.813  0.5206 -0.1878  1.2085
   13CHL1   C21  940   4.005   2.436   4.900  0.4847  0.4309  0.9726
   13CHL1  H21A  941   3.940   2.494   4.969 -0.2150  1.4433 -0.4903
   13CHL1  H21B  942   4.016   2.505   4.814  1.9577 -0.2775  0.5624
   13CHL1  H21C  943   4.108   2.425   4.940  1.7067  2.5804 -1.2957
   13CHL1   C22  944   3.841   2.316   4.750  0.8375  0.2365  0.1885
   13CHL1  H22A  945   3.794   2.217   4.728 -0.7695  0.9368  0.2851
   13CHL1  H22B  946   3.759   2.381   4.788 -1.6831 -2.6026  0.0127
   13CHL1   C23  947   3.892   2.367   4.614  0.8059  0.3331 -0.1306
   13CHL1  H23A  948   3.923   2.473   4.630  0.8206  0.1532  1.1724
   13CHL1  H23B  949   3.975   2.298   4.589  0.3596 -1.3142  2.5198
   13CHL1   C24  950   3.778   2.357   4.511  0.5071 -0.3439 -0.2700
   13CHL1  H24A  951   3.721   2.261   4.508  0.2062 -0.1830  0.1980
   13CHL1  H24B  952   3.708   2.439   4.535 -0.9366 -1.4743 -0.4557
   13CHL1   C25  953   3.823   2.382   4.365 -0.0622 -0.3659  0.0871
   13CHL1   H25  954   3.900   2.305   4.339  0.0285 -0.4595  0.6189
   13CHL1   C26  955   3.699   2.367   4.279 -0.2949  0.2438 -0.1682
   13CHL1  H26A  956   3.648   2.268   4.286  1.8111 -0.8843  0.1241
   13CHL1  H26B  957   3.634   2.452   4.308  0.0651 -0.3289  2.6674
   13CHL1  H26C  958   3.726   2.373   4.172  0.1269 -0.1833 -0.0902
   13CHL1   C27  959   3.887   2.525   4.342  0.4893 -0.4440 -0.0475
   13CHL1  H27A  960   3.910   2.553   4.237 -0.1453 -1.1220 -0.3766
   13CHL1  H27B  961   3.813   2.599   4.379 -1.1541 -0.9610 -2.1398
   13CHL1  H27C  962   3.977   2.538   4.407  1.3004  1.2245 -1.4241
   14CHL1    C3  963   3.767   6.280   5.951  0.0892  0.1948  0.2768
   14CHL1    H3  964   3.766   6.390   5.966 -0.0090  0.3954 -1.0739
   14CHL1    O3  965   3.780   6.237   6.079  0.1348  0.0493  0.2855
   14CHL1   H3'  966   3.784   6.143   6.063  1.6244  0.5658 -3.4524
   14CHL1    C4  967   3.636   6.240   5.882  0.4063  0.3662 -1.0010
   14CHL1   H4A  968   3.639   6.132   5.857  2.1987 -0.4493  2.1276
   14CHL1   H4B  969   3.551   6.250   5.954  0.5927  0.5425 -0.8035
   14CHL1    C5  970   3.620   6.306   5.754  0.3323  0.1338 -0.5062
   14CHL1    C6  971   3.510   6.378   5.729  0.0626  0.0372  0.0662
   14CHL1    H6  972   3.425   6.366   5.798 -2.1590 -0.1955 -2.5302
   14CHL1    C7  973   3.482   6.447   5.599 -0.3003  0.0880  0.0464
   14CHL1   H7A  974   3.378   6.443   5.560  0.2644  2.5932 -1.9426
   14CHL1   H7B  975   3.511   6.552   5.622 -3.5401  0.4116  3.7333
   14CHL1    C8  976   3.579   6.400   5.483 -0.2468  0.3111 -0.3402
   14CHL1    H8  977   3.543   6.297   5.460  1.0136 -0.9907  2.9537
   14CHL1   C14  978   3.581   6.500   5.370  0.3259  0.3055 -0.3645
   14CHL1   H14  979   3.637   6.588   5.409  0.1488  0.5511 -0.6582
   14CHL1   C15  980   3.447   6.561   5.314 -0.8564 -0.3511  0.3252
   14CHL1  H15A  981   3.358   6.494   5.316  0.2006 -1.7858  1.2957
   14CHL1  H15B  982   3.414   6.645   5.379 -0.8890  0.4489 -0.7037
   14CHL1   C16  983   3.476   6.597   5.168  0.9104  0.4152  0.1089
   14CHL1  H16A  984   3.424   6.519   5.108  1.9975 -0.4208  0.2294
   14CHL1  H16B  985   3.431   6.695   5.142 -1.2739 -0.4947  0.2957
   14CHL1   C17  986   3.626   6.574   5.152  0.3766 -0.2607  0.0415
   14CHL1   H17  987   3.678   6.666   5.183 -0.7172  1.0621 -1.8540
   14CHL1   C13  988   3.658   6.456   5.246 -0.2598 -0.4940 -0.4709
   14CHL1   C18  989   3.611   6.325   5.188  0.4397  0.0953 -0.2115
   14CHL1  H18A  990   3.604   6.243   5.263 -1.8478  0.2784 -0.1650
   14CHL1  H18B  991   3.505   6.333   5.156 -0.2958  1.7118  2.3357
   14CHL1  H18C  992   3.673   6.293   5.101  0.5352  0.1315 -0.1569
   14CHL1   C12  993   3.804   6.444   5.291 -0.0672 -0.8551  0.2511
   14CHL1  H12A  994   3.884   6.412   5.220  1.5915  0.1961  1.5503
   14CHL1  H12B  995   3.838   6.547   5.313  0.0230 -1.3624  2.7744
   14CHL1   C11  996   3.823   6.355   5.419  0.2998  0.3435  0.1962
   14CHL1  H11A  997   3.812   6.250   5.382  0.2029 -0.6504  2.8353
   14CHL1  H11B  998   3.931   6.360   5.446  0.7098 -2.4745 -0.5364
   14CHL1    C9  999   3.721   6.391   5.532  0.1266  0.1998  0.5630
   14CHL1    H9 1000   3.757   6.490   5.567 -0.0114  0.3210  0.3647
   14CHL1   C10 1001   3.738   6.293   5.657 -0.0318 -0.1638  0.1034
   14CHL1   C19 1002   3.725   6.150   5.602 -0.4819  0.0036  0.4799
   14CHL1  H19A 1003   3.732   6.073   5.681  1.1331  0.7836  1.1441
   14CHL1  H19B 1004   3.623   6.142   5.558 -1.1144  3.7460  0.9328
   14CHL1  H19C 1005   3.802   6.128   5.526  1.4749 -1.4009  2.7301
   14CHL1    C1 1006   3.875   6.308   5.722  0.1102 -0.0838  0.5610
   14CHL1   H1A 1007   3.948   6.270   5.649  0.9039  1.6416  0.4105
   14CHL1   H1B 1008   3.903   6.415   5.725 -0.1101  0.0304 -0.9913
   14CHL1    C2 1009   3.887   6.236   5.857 -0.0248 -0.3707 -0.3638
   14CHL1   H2A 1010   3.979   6.279   5.904  0.3147 -2.1642  0.6895
   14CHL1   H2B 1011   3.896   6.127   5.841  0.6007 -0.6420  1.5763
   14CHL1   C20 1012   3.661   6.547   5.001 -0.7310  0.5720  0.6005
   14CHL1   H20 1013   3.635   6.443   4.973 -0.8812 -0.0435  2.8249
   14CHL1   C21 1014   3.816   6.528   4.976 -0.8567  0.2158 -0.0841
   14CHL1  H21A 1015   3.840   6.428   5.018 -2.2480  0.4247  1.3166
   14CHL1  H21B 1016   3.865   6.618   5.019  0.3724 -0.6461  0.3743
   14CHL1  H21C 1017   3.827   6.519   4.866 -0.9086 -2.3815  0.0665
   14CHL1   C22 1018   3.598   6.639   4.898  0.3522 -0.0945  0.4410
   14CHL1  H22A 1019   3.632   6.605   4.798 -0.5725  1.1196 -0.3100
   14CHL1  H22B 1020   3.487   6.644   4.903 -0.0558 -0.5505 -4.1737
   14CHL1   C23 1021   3.643   6.786   4.909  0.4300 -0.0352  0.3272
   14CHL1  H23A 1022   3.605   6.837   5.000 -1.8458 -0.9696 -0.0445
   14CHL1  H23B 1023   3.753   6.780   4.920  0.5632  2.2771  0.9142
   14CHL1   C24 1024   3.608   6.868   4.782 -0.4175  0.3825  1.0431
   14CHL1  H24A 1025   3.659   6.814   4.699 -1.2034  2.8250 -1.1432
   14CHL1  H24B 1026   3.502   6.875   4.751 -0.0648 -0.2721 -0.3903
   14CHL1   C25 1027   3.662   7.012   4.791 -0.3314 -0.1833  0.4587
   14CHL1   H25 1028   3.767   7.015   4.829  0.9602 -3.9275 -2.1876
   14CHL1   C26 1029   3.670   7.084   4.657 -0.0614  0.0780  0.2465
   14CHL1  H26A 1030   3.686   7.193   4.675  1.9768 -0.1030 -0.2215
   14CHL1  H26B 1031   3.749   7.035   4.596  1.6754 -0.0147  2.4160
   14CHL1  H26C 1032   3.569   7.064   4.615 -1.0699  1.2631  1.9876
   14CHL1   C27 1033   3.567   7.085   4.883  0.0332 -0.3335 -0.2241
   14CHL1  H27A 1034   3.600   7.190   4.892  2.2062 -0.9414 -0.5236
   14CHL1  H27B 1035   3.464   7.076   4.843  0.6425 -0.2328 -1.8608
   14CHL1  H27C 1036   3.573   7.043   4.986  1.8212 -1.5603 -0.7862
   15CHL1    C3 1037   2.529   4.429   5.679  0.1059  0.6872 -0.4234
   15CHL1    H3 1038   2.482   4.521   5.718 -0.6932 -0.1544  0.6768
   15CHL1    O3 1039   2.565   4.348   5.794 -0.1489 -0.3181  0.0229
   15CHL1   H3' 1040   2.596   4.262   5.762 -1.8895 -0.9927  0.0134
   15CHL1    C4 1041   2.427   4.352   5.585 -0.6591  0.0678 -0.1833
   15CHL1   H4A 1042   2.472   4.251   5.579  0.1696  0.5054 -1.7123
   15CHL1   H4B 1043   2.334   4.333   5.644 -0.9464  0.2975 -0.5597
   15CHL1    C5 1044   2.402   4.403   5.449  0.6586 -1.1754  0.3965
   15CHL1    C6 1045   2.277   4.436   5.405 -0.0773  1.2385 -0.5868
   15CHL1    H6 1046   2.192   4.402   5.466 -0.4799  1.1456 -1.1945
   15CHL1    C7 1047   2.242   4.468   5.261 -0.1646  0.1442  0.2968
   15CHL1   H7A 1048   2.177   4.390   5.215 -0.6436  0.6459  0.1066
   15CHL1   H7B 1049   2.183   4.562   5.263  1.1882  1.2219 -3.3660
   15CHL1    C8 1050   2.369   4.470   5.167  0.3404 -0.4954 -0.3906
   15CHL1    H8 1051   2.392   4.365   5.141  2.7144  0.0594 -0.7595
   15CHL1   C14 1052   2.337   4.550   5.037  0.3665 -0.3048 -0.2704
   15CHL1   H14 1053   2.310   4.655   5.064  0.3531 -0.1219 -0.9568
   15CHL1   C15 1054   2.208   4.513   4.963 -0.3146 -0.8216  0.8566
   15CHL1  H15A 1055   2.168   4.409   4.968 -2.4610 -0.0026  2.8506
   15CHL1  H15B 1056   2.125   4.581   4.993 -0.2084  0.3701 -1.3749
   15CHL1   C16 1057   2.240   4.552   4.809  0.3103 -0.1816  0.1597
   15CHL1  H16A 1058   2.253   4.463   4.743  1.0285  1.3646 -1.8907
   15CHL1  H16B 1059   2.154   4.603   4.760 -0.6474 -1.2590  0.6462
   15CHL1   C17 1060   2.368   4.630   4.816 -0.2724  0.2096 -0.1562
   15CHL1   H17 1061   2.343   4.727   4.865 -1.2916  0.7860 -1.7665
   15CHL1   C13 1062   2.449   4.570   4.939  0.4716  0.1891 -0.0711
   15CHL1   C18 1063   2.498   4.430   4.886 -0.0314  0.2810 -0.0602
   15CHL1  H18A 1064   2.552   4.376   4.967  0.0892  0.8054  0.2150
   15CHL1  H18B 1065   2.409   4.366   4.868  0.3316 -1.0605  2.5093
   15CHL1  H18C 1066   2.554   4.434   4.790 -1.3778 -0.8447 -0.9437
   15CHL1   C12 1067   2.560   4.643   5.012 -0.0458 -0.3301  0.1645
   15CHL1  H12A 1068   2.652   4.640   4.950 -0.5210  2.4853 -0.8094
   15CHL1  H12B 1069   2.543   4.751   5.029  3.5443  0.2052  1.1334
   15CHL1   C11 1070   2.603   4.583   5.152  0.5771 -0.1602 -0.8684
   15CHL1  H11A 1071   2.674   4.502   5.124  1.5522  0.5908 -0.6548
   15CHL1  H11B 1072   2.677   4.653   5.198  2.5144 -1.2368 -2.1680
   15CHL1    C9 1073   2.489   4.537   5.242  0.0493 -0.1069 -0.1702
   15CHL1    H9 1074   2.459   4.633   5.290 -1.3194  1.5280 -3.8589
   15CHL1   C10 1075   2.524   4.447   5.367 -0.3815 -0.2368  0.0993
   15CHL1   C19 1076   2.602   4.322   5.307  1.0268  0.3868  0.3310
   15CHL1  H19A 1077   2.689   4.347   5.243  1.1773  0.8758  0.7156
   15CHL1  H19B 1078   2.640   4.263   5.394 -1.1972 -0.5878  0.7182
   15CHL1  H19C 1079   2.538   4.261   5.240 -1.4538  1.3958  1.6700
   15CHL1    C1 1080   2.626   4.518   5.456  0.0230  0.6261  0.1702
   15CHL1   H1A 1081   2.717   4.503   5.393 -0.1647 -1.9666  0.4079
   15CHL1   H1B 1082   2.589   4.622   5.465 -1.8068 -0.1715  2.8080
   15CHL1    C2 1083   2.656   4.453   5.595  0.3214 -0.1512  0.7299
   15CHL1   H2A 1084   2.731   4.520   5.642 -2.2631  2.0646  2.0159
   15CHL1   H2B 1085   2.714   4.359   5.583 -2.9507 -2.5314  2.2053
   15CHL1   C20 1086   2.428   4.679   4.686  0.1105  0.2655  0.4198
   15CHL1   H20 1087   2.509   4.608   4.658  0.6271  0.7765  0.5989
   15CHL1   C21 1088   2.507   4.804   4.709 -0.2041 -0.4465  0.2521
   15CHL1  H21A 1089   2.567   4.828   4.619  2.1055 -0.1069  1.8221
   15CHL1  H21B 1090   2.580   4.788   4.791  1.6429  1.4425 -0.9306
   15CHL1  H21C 1091   2.435   4.886   4.733  0.4292 -0.8261  4.0601
   15CHL1   C22 1092   2.321   4.678   4.574  0.0071 -0.3313  0.3484
   15CHL1  H22A 1093   2.269   4.584   4.548  0.6077 -0.8892  1.1296
   15CHL1  H22B 1094   2.238   4.744   4.608 -0.4602 -0.2984 -0.8145
   15CHL1   C23 1095   2.374   4.731   4.437  0.1137 -0.2993  0.1921
   15CHL1  H23A 1096   2.485   4.727   4.433  0.0678 -0.7071 -2.5124
   15CHL1  H23B 1097   2.334   4.665   4.357 -0.4209 -1.2155  1.1904
   15CHL1   C24 1098   2.329   4.879   4.409 -0.1355  0.0271  0.5051
   15CHL1  H24A 1099   2.356   4.942   4.496 -0.5154 -0.9913  1.3808
   15CHL1  H24B 1100   2.391   4.924   4.329  0.2157 -0.9024  0.2386
   15CHL1   C25 1101   2.186   4.903   4.369 -0.0445 -0.2724  0.8040
   15CHL1   H25 1102   2.115   4.867   4.446 -0.8682 -0.6672 -0.1225
   15CHL1   C26 1103   2.157   5.049   4.371 -0.0956 -0.3470 -1.4406
   15CHL1  H26A 1104   2.067   5.071   4.310  0.2058 -3.6087 -3.3031
   15CHL1  H26B 1105   2.138   5.089   4.472 -1.1503  1.4175 -2.2968
   15CHL1  H26C 1106   2.242   5.111   4.335  0.4072  0.1352  0.4726
   15CHL1   C27 1107   2.151   4.833   4.228  0.8443 -0.8999  0.0566
   15CHL1  H27A 1108   2.227   4.862   4.154 -0.9442 -0.6174 -1.7569
   15CHL1  H27B 1109   2.145   4.724   4.247  0.0485 -0.4740  2.6541
   15CHL1  H27C 1110   2.051   4.853   4.185  1.3504 -0.8455 -1.1158
   16CHL1    C3 1111   5.885   6.355   6.315 -1.0770  0.1004 -0.8982
   16CHL1    H3 1112   5.896   6.460   6.348 -0.8324 -0.4030  0.7216
   16CHL1    O3 1113   5.833   6.272   6.417  0.6790  0.6203  0.6639
   16CHL1   H3' 1114   5.882   6.189   6.421  0.7435  0.7051  2.3642
   16CHL1    C4 1115   5.793   6.360   6.192 -0.1901  0.0518  0.2713
   16CHL1   H4A 1116   5.772   6.253   6.169 -2.2630 -0.1288  2.5913
   16CHL1   H4B 1117   5.692   6.403   6.210 -0.2884 -0.3763  0.7569
   16CHL1    C5 1118   5.864   6.433   6.081 -0.2153 -0.4202 -1.1464
   16CHL1    C6 1119   5.800   6.532   6.010  0.0786 -0.1123  0.0505
   16CHL1    H6 1120   5.695   6.558   6.035  0.1075  1.1910 -1.0869
   16CHL1    C7 1121   5.863   6.614   5.899  0.0123 -0.0797  0.3154
   16CHL1   H7A 1122   5.789   6.632   5.818 -0.0562 -0.9527  0.1795
   16CHL1   H7B 1123   5.894   6.712   5.942  0.9832 -0.0198 -0.4809
   16CHL1    C8 1124   5.979   6.538   5.836  0.3268 -0.6470 -0.5357
   16CHL1    H8 1125   5.944   6.445   5.786 -0.4835 -3.1928  4.2244
   16CHL1   C14 1126   6.048   6.624   5.735 -0.0499 -0.3581 -0.0574
   16CHL1   H14 1127   6.082   6.718   5.782 -1.4555  1.0614 -1.7415
   16CHL1   C15 1128   5.959   6.672   5.623  0.4341 -0.8461 -0.5360
   16CHL1  H15A 1129   5.884   6.594   5.597 -2.8569  0.9206  2.7759
   16CHL1  H15B 1130   5.909   6.767   5.652  0.9169 -0.3226 -1.3504
   16CHL1   C16 1131   6.064   6.694   5.510 -0.5602 -0.2378  0.2790
   16CHL1  H16A 1132   6.027   6.631   5.427  0.2370 -1.4051  0.7856
   16CHL1  H16B 1133   6.071   6.798   5.471 -1.3504 -0.8875 -1.7103
   16CHL1   C17 1134   6.205   6.680   5.569 -0.2588  0.2307  0.2313
   16CHL1   H17 1135   6.239   6.769   5.626  4.5278 -1.5710  0.6542
   16CHL1   C13 1136   6.188   6.574   5.681 -0.2903 -0.0329  0.3813
   16CHL1   C18 1137   6.173   6.427   5.625 -0.1820 -0.0772 -0.0029
   16CHL1  H18A 1138   6.089   6.430   5.552 -0.5620 -0.3523  0.4177
   16CHL1  H18B 1139   6.267   6.400   5.573 -0.2902  0.8390 -0.6988
   16CHL1  H18C 1140   6.150   6.345   5.695  0.5670  0.7407  1.2428
   16CHL1   C12 1141   6.287   6.578   5.803  0.2725 -0.4805  0.0676
   16CHL1  H12A 1142   6.390   6.546   5.779 -0.6068 -3.0118 -0.6818
   16CHL1  H12B 1143   6.289   6.680   5.848  1.8612 -0.1588 -0.6702
   16CHL1   C11 1144   6.227   6.479   5.912 -0.2728  0.2191 -0.4216
   16CHL1  H11A 1145   6.230   6.376   5.870 -1.6209  0.0794 -0.2298
   16CHL1  H11B 1146   6.288   6.494   6.003  1.8000  1.2134 -1.8952
   16CHL1    C9 1147   6.078   6.511   5.953 -0.0322 -0.0701 -0.7185
   16CHL1    H9 1148   6.092   6.608   6.005 -1.4994  0.7938 -1.8631
   16CHL1   C10 1149   6.016   6.407   6.053  0.3011  0.6249  0.0137
   16CHL1   C19 1150   6.015   6.268   5.983 -0.2758 -0.4884  0.0042
   16CHL1  H19A 1151   5.986   6.271   5.875 -0.6632  0.6004  0.1232
   16CHL1  H19B 1152   6.119   6.229   5.979 -0.1447 -0.3593 -5.4677
   16CHL1  H19C 1153   5.949   6.189   6.025 -1.7579  0.1423 -1.0295
   16CHL1    C1 1154   6.100   6.390   6.183 -0.3263 -0.2793  0.2930
   16CHL1   H1A 1155   6.201   6.364   6.146 -0.9095  0.9368 -2.3963
   16CHL1   H1B 1156   6.118   6.490   6.230  0.3843 -0.5000  0.5027
   16CHL1    C2 1157   6.036   6.309   6.297  0.2524 -0.9197  0.1212
   16CHL1   H2A 1158   6.087   6.316   6.395 -0.4952 -2.2884  0.6277
   16CHL1   H2B 1159   6.035   6.203   6.264  0.1344 -0.7248 -0.5328
   16CHL1   C20 1160   6.320   6.660   5.474 -0.8626 -0.3736  0.3369
   16CHL1   H20 1161   6.333   6.551   5.456  2.9248 -0.0704  0.5163
   16CHL1   C21 1162   6.452   6.714   5.533  0.0963 -0.1010  0.7027
   16CHL1  H21A 1163   6.462   6.676   5.636 -1.1111 -1.9392  0.1857
   16CHL1  H21B 1164   6.445   6.825   5.536  2.8311  0.1031  2.1234
   16CHL1  H21C 1165   6.543   6.692   5.473  0.3832  3.0014 -0.1935
   16CHL1   C22 1166   6.297   6.703   5.332  0.0164 -0.5421 -0.2771
   16CHL1  H22A 1167   6.190   6.687   5.304  0.0967  1.0174 -1.6131
   16CHL1  H22B 1168   6.324   6.811   5.323  1.2148 -0.3873  3.4174
   16CHL1   C23 1169   6.390   6.632   5.229 -0.6851 -1.2805 -0.3378
   16CHL1  H23A 1170   6.499   6.637   5.254 -0.3069 -0.5371 -2.0101
   16CHL1  H23B 1171   6.352   6.533   5.195  1.2325 -2.1222 -0.1880
   16CHL1   C24 1172   6.377   6.714   5.101  0.2446 -0.6426 -0.4958
   16CHL1  H24A 1173   6.267   6.711   5.085 -0.0580 -0.2415  1.2467
   16CHL1  H24B 1174   6.405   6.821   5.115  2.1851 -1.0199 -1.2811
   16CHL1   C25 1175   6.451   6.661   4.978  0.4506 -0.1611 -0.3929
   16CHL1   H25 1176   6.443   6.550   4.979  0.7831 -0.1995 -1.4475
   16CHL1   C26 1177   6.403   6.725   4.848 -0.0427  0.5760  0.7321
   16CHL1  H26A 1178   6.439   6.830   4.837 -1.1886  1.0132  1.0322
   16CHL1  H26B 1179   6.437   6.672   4.756  1.4111  2.2187  0.2502
   16CHL1  H26C 1180   6.292   6.726   4.852 -0.0595 -1.3956  1.9169
   16CHL1   C27 1181   6.605   6.693   4.979  0.6723  0.3937 -0.0744
   16CHL1  H27A 1182   6.651   6.644   4.890 -0.7067 -0.8875 -0.1139
   16CHL1  H27B 1183   6.624   6.802   4.976 -1.5824  0.8455  0.5290
   16CHL1  H27C 1184   6.646   6.654   5.074  0.5644 -0.5837 -0.4179
   17CHL1    C3 1185   1.813   6.587   6.049 -0.0705  0.4432 -0.0390
   17CHL1    H3 1186   1.736   6.513   6.021  1.2399 -0.3185 -1.7941
   17CHL1    O3 1187   1.842   6.583   6.188 -0.0660 -0.2704  0.0873
   17CHL1   H3' 1188   1.900   6.659   6.201 -2.5759  1.5007  1.8846
   17CHL1    C4 1189   1.950   6.567   5.988 -0.3304 -0.3323 -0.4444
   17CHL1   H4A 1190   2.016   6.651   6.019 -0.0693 -1.2917  1.8263
   17CHL1   H4B 1191   2.000   6.479   6.034 -0.4839  0.3540  1.1164
   17CHL1    C5 1192   1.944   6.558   5.837  0.2370 -0.6096 -0.3950
   17CHL1    C6 1193   1.958   6.445   5.777 -0.5725  0.1663 -0.5234
   17CHL1    H6 1194   1.981   6.354   5.835  1.4506 -0.3849 -2.0644
   17CHL1    C7 1195   1.960   6.433   5.625  0.1691 -0.6285 -0.2677
   17CHL1   H7A 1196   2.048   6.372   5.596  0.0560 -1.4955  1.0954
   17CHL1   H7B 1197   1.864   6.383   5.597 -0.1034  0.9258 -2.2818
   17CHL1    C8 1198   1.963   6.570   5.557  0.2897 -0.5086  0.1605
   17CHL1    H8 1199   2.072   6.595   5.560  1.1591 -2.7297 -3.9060
   17CHL1   C14 1200   1.923   6.553   5.407 -0.2027 -0.1334 -0.1244
   17CHL1   H14 1201   1.825   6.502   5.419  0.2788 -1.1214 -0.3002
   17CHL1   C15 1202   1.995   6.443   5.329 -0.4269  0.1653 -0.0880
   17CHL1  H15A 1203   2.105   6.458   5.341 -0.4381 -0.4829  0.9172
   17CHL1  H15B 1204   1.955   6.341   5.345 -3.6156  0.9890 -1.9106
   17CHL1   C16 1205   1.952   6.477   5.178  0.6840  0.1049  0.7485
   17CHL1  H16A 1206   2.037   6.463   5.109  0.6985  0.8112  0.6116
   17CHL1  H16B 1207   1.859   6.425   5.145 -0.7059  3.5916 -1.3876
   17CHL1   C17 1208   1.903   6.634   5.179  0.0520 -0.5514  0.2035
   17CHL1   H17 1209   1.793   6.622   5.169 -0.2578  1.7464  0.3645
   17CHL1   C13 1210   1.925   6.677   5.325 -0.4040  0.1259 -0.0737
   17CHL1   C18 1211   2.069   6.744   5.317  0.2180  0.3920 -0.4909
   17CHL1  H18A 1212   2.110   6.767   5.418 -2.8212  1.7910  0.5368
   17CHL1  H18B 1213   2.131   6.672   5.259 -0.5927 -1.1133  0.4361
   17CHL1  H18C 1214   2.063   6.841   5.264  0.3623  1.4954  1.4164
   17CHL1   C12 1215   1.828   6.779   5.385  0.8757  0.1714  0.2320
   17CHL1  H12A 1216   1.832   6.874   5.327 -0.1157  0.0401 -0.0560
   17CHL1  H12B 1217   1.724   6.741   5.382  0.0064  2.2748  1.2660
   17CHL1   C11 1218   1.858   6.801   5.535  0.0351  0.0736  0.2768
   17CHL1  H11A 1219   1.949   6.864   5.549  0.0536 -0.4350  2.9742
   17CHL1  H11B 1220   1.772   6.858   5.576  0.0163 -0.2671  0.7157
   17CHL1    C9 1221   1.861   6.670   5.620 -0.2816 -0.5428 -0.1855
   17CHL1    H9 1222   1.759   6.627   5.613 -0.8588  0.6283  0.6433
   17CHL1   C10 1223   1.885   6.693   5.772 -0.2883 -0.5035 -0.2133
   17CHL1   C19 1224   1.977   6.822   5.788 -0.9645  1.3593  0.6276
   17CHL1  H19A 1225   1.991   6.849   5.895 -1.5997 -1.6626  1.5747
   17CHL1  H19B 1226   2.078   6.820   5.743  0.4205  2.9657  3.4497
   17CHL1  H19C 1227   1.936   6.918   5.749  0.0481  2.3669  1.9712
   17CHL1    C1 1228   1.748   6.723   5.849  0.2637  0.0927 -0.2699
   17CHL1   H1A 1229   1.701   6.821   5.824 -2.1028 -0.7874  0.5145
   17CHL1   H1B 1230   1.670   6.651   5.817 -2.0000  1.6061  1.4479
   17CHL1    C2 1231   1.756   6.724   6.004  0.1092  0.0280 -0.5407
   17CHL1   H2A 1232   1.655   6.722   6.051  0.1555  1.3339 -0.3562
   17CHL1   H2B 1233   1.816   6.805   6.051 -0.0515 -0.6198  0.8372
   17CHL1   C20 1234   1.945   6.728   5.059  0.7504  0.2617 -0.2826
   17CHL1   H20 1235   2.055   6.737   5.070  0.4323  1.5281  3.3191
   17CHL1   C21 1236   1.877   6.874   5.055  0.1197  0.1237 -0.4609
   17CHL1  H21A 1237   1.919   6.926   5.144 -0.3168 -1.1987  0.5457
   17CHL1  H21B 1238   1.770   6.874   5.084 -0.0604  1.1926 -1.0713
   17CHL1  H21C 1239   1.905   6.925   4.960 -3.1757 -2.8690 -3.3449
   17CHL1   C22 1240   1.929   6.652   4.917 -0.6656 -0.3149  0.6741
   17CHL1  H22A 1241   1.977   6.553   4.925 -0.2484 -0.2214 -0.4854
   17CHL1  H22B 1242   1.820   6.648   4.892 -0.5198  0.8638 -0.2410
   17CHL1   C23 1243   2.004   6.723   4.801  0.0172  0.5869  0.1561
   17CHL1  H23A 1244   1.987   6.830   4.778 -1.8197  0.1862 -0.5487
   17CHL1  H23B 1245   2.108   6.717   4.841  1.8620  0.6306 -4.0284
   17CHL1   C24 1246   1.994   6.635   4.676 -0.3280 -0.4392 -0.1756
   17CHL1  H24A 1247   1.989   6.530   4.713 -0.2913 -0.3034  0.2248
   17CHL1  H24B 1248   1.895   6.659   4.632 -0.6035 -0.5970  0.3484
   17CHL1   C25 1249   2.110   6.653   4.584  0.7140 -0.1810 -0.2527
   17CHL1   H25 1250   2.208   6.634   4.633 -0.1010  0.8363  1.8870
   17CHL1   C26 1251   2.099   6.547   4.476  0.3293  0.6231 -0.5415
   17CHL1  H26A 1252   2.177   6.565   4.400  1.2267 -1.0285 -0.0452
   17CHL1  H26B 1253   2.120   6.446   4.516  0.2801  1.1481  0.8630
   17CHL1  H26C 1254   1.997   6.533   4.433 -1.1555  0.3377  2.7901
   17CHL1   C27 1255   2.117   6.794   4.519 -0.1656 -0.3120  0.1033
   17CHL1  H27A 1256   2.190   6.789   4.435  0.3152  0.2432  0.4787
   17CHL1  H27B 1257   2.018   6.844   4.505 -0.0950  0.0869  0.9501
   17CHL1  H27C 1258   2.170   6.860   4.591 -1.7404  1.4885 -0.2814
   18CHL1    C3 1259   2.730   1.935   6.143  0.2697 -0.0070  0.3169
   18CHL1    H3 1260   2.726   1.825   6.132 -3.4086  0.0429 -0.3692
   18CHL1    O3 1261   2.727   1.967   6.278 -0.5485  0.4732 -0.3628
   18CHL1   H3' 1262   2.756   2.059   6.282  3.2981 -0.5484  4.0553
   18CHL1    C4 1263   2.862   1.991   6.090 -0.5510 -0.5420  0.1156
   18CHL1   H4A 1264   2.849   2.101   6.101 -2.1586 -0.7876  1.0095
   18CHL1   H4B 1265   2.948   1.952   6.149 -1.1522  0.3865  1.6709
   18CHL1    C5 1266   2.875   1.957   5.947  0.0396  0.5813  0.0616
   18CHL1    C6 1267   2.979   1.892   5.896 -0.1842  0.5458  0.1036
   18CHL1    H6 1268   3.069   1.871   5.955  0.3846 -0.3742 -1.0562
   18CHL1    C7 1269   2.999   1.858   5.747  0.0736  0.3222 -0.1363
   18CHL1   H7A 1270   3.098   1.891   5.708 -0.8436  0.9548 -2.0520
   18CHL1   H7B 1271   2.994   1.748   5.729  0.6874 -0.2184  2.5550
   18CHL1    C8 1272   2.892   1.925   5.653  0.1093  0.2615  0.1144
   18CHL1    H8 1273   2.927   2.030   5.643 -1.1792  0.6906 -0.1530
   18CHL1   C14 1274   2.886   1.858   5.516 -0.8017 -0.3539  0.8949
   18CHL1   H14 1275   2.839   1.761   5.539 -0.6892 -1.0484 -1.5253
   18CHL1   C15 1276   3.019   1.828   5.442  0.4328 -0.3745 -0.3182
   18CHL1  H15A 1277   3.075   1.924   5.442  0.3645 -0.3342 -0.3431
   18CHL1  H15B 1278   3.072   1.739   5.482 -0.4131 -1.5365 -1.6648
   18CHL1   C16 1279   2.969   1.804   5.300 -0.3005  0.5996  0.7852
   18CHL1  H16A 1280   3.038   1.852   5.228 -0.6000 -0.5348 -0.3054
   18CHL1  H16B 1281   2.971   1.696   5.275 -0.3118  1.1027 -1.7274
   18CHL1   C17 1282   2.826   1.853   5.289 -0.0440 -0.2610 -0.1322
   18CHL1   H17 1283   2.760   1.763   5.293  0.1886 -0.3986  0.8203
   18CHL1   C13 1284   2.792   1.926   5.418  0.0276  0.3195  0.1755
   18CHL1   C18 1285   2.833   2.077   5.393  0.1472  0.0736  0.0712
   18CHL1  H18A 1286   2.938   2.077   5.357  0.2412  3.9944 -0.0868
   18CHL1  H18B 1287   2.770   2.130   5.318  2.5360  2.7634 -0.2022
   18CHL1  H18C 1288   2.826   2.137   5.487 -0.8698  2.3997 -1.4049
   18CHL1   C12 1289   2.652   1.904   5.484  0.1840  0.0149 -0.8276
   18CHL1  H12A 1290   2.573   1.947   5.419  0.1270 -1.1204 -1.5392
   18CHL1  H12B 1291   2.621   1.798   5.496 -1.9230  0.6175 -0.5523
   18CHL1   C11 1292   2.649   1.978   5.622 -0.1255 -0.6970 -0.8568
   18CHL1  H11A 1293   2.659   2.089   5.611 -1.6818 -0.4603 -0.0561
   18CHL1  H11B 1294   2.552   1.953   5.670  0.3822  0.2072  0.7112
   18CHL1    C9 1295   2.756   1.922   5.726  0.3449 -0.7121  0.0574
   18CHL1    H9 1296   2.728   1.815   5.740 -1.3469 -0.2901  0.1937
   18CHL1   C10 1297   2.753   1.993   5.860 -0.0657  0.3775  0.2174
   18CHL1   C19 1298   2.758   2.149   5.846 -0.3757 -0.0172  0.3335
   18CHL1  H19A 1299   2.858   2.179   5.808 -1.1429 -0.0230 -1.8379
   18CHL1  H19B 1300   2.684   2.200   5.781 -0.4332  1.5317  1.5500
   18CHL1  H19C 1301   2.748   2.200   5.944 -0.3629  0.4763  0.0816
   18CHL1    C1 1302   2.614   1.960   5.923  0.0615  0.1952  0.1075
   18CHL1   H1A 1303   2.534   2.031   5.893 -0.2549 -0.3588 -0.3893
   18CHL1   H1B 1304   2.585   1.853   5.910  0.5657  0.1499 -0.7138
   18CHL1    C2 1305   2.603   1.984   6.071  0.1712  0.6741  0.8075
   18CHL1   H2A 1306   2.517   1.931   6.119 -0.3775 -1.5725 -2.3530
   18CHL1   H2B 1307   2.590   2.090   6.101 -0.6707  0.6667  0.4890
   18CHL1   C20 1308   2.791   1.914   5.153 -0.4378 -0.0426  0.0657
   18CHL1   H20 1309   2.854   2.004   5.135 -0.3004 -0.4613 -1.7547
   18CHL1   C21 1310   2.637   1.950   5.144 -0.0996 -0.0991  0.2991
   18CHL1  H21A 1311   2.613   2.029   5.218  3.3500 -0.3214  1.8576
   18CHL1  H21B 1312   2.576   1.857   5.142  0.5926 -0.5859 -2.5254
   18CHL1  H21C 1313   2.619   1.995   5.044  4.1409 -0.6391 -0.9026
   18CHL1   C22 1314   2.837   1.821   5.030 -0.2193 -0.1356  0.6435
   18CHL1  H22A 1315   2.934   1.770   5.045  0.5596  1.5587  1.6411
   18CHL1  H22B 1316   2.774   1.734   5.002  3.3111 -2.0231 -2.1568
   18CHL1   C23 1317   2.866   1.899   4.904 -0.2986 -0.2452  0.2635
   18CHL1  H23A 1318   2.778   1.952   4.863 -1.0117 -0.8138  1.0069
   18CHL1  H23B 1319   2.952   1.964   4.931  1.2057 -2.6347  1.5453
   18CHL1   C24 1320   2.898   1.793   4.795 -0.0572 -0.1356 -0.7700
   18CHL1  H24A 1321   2.969   1.719   4.839 -1.4781  0.0119  1.9870
   18CHL1  H24B 1322   2.802   1.740   4.776  0.4899 -0.7766 -1.8303
   18CHL1   C25 1323   2.964   1.852   4.666  0.4006 -0.1272 -0.0310
   18CHL1   H25 1324   3.062   1.899   4.690  0.9587 -0.4551 -1.4838
   18CHL1   C26 1325   3.012   1.734   4.578 -0.1596  0.1466  1.0744
   18CHL1  H26A 1326   2.921   1.696   4.527 -0.1302  1.7024 -0.2351
   18CHL1  H26B 1327   3.062   1.767   4.485 -1.6309 -0.3068  0.0764
   18CHL1  H26C 1328   3.070   1.659   4.636  2.6075  1.8499  0.7022
   18CHL1   C27 1329   2.875   1.951   4.584 -0.3594  0.1158  0.2100
   18CHL1  H27A 1330   2.781   1.898   4.558 -0.8134  0.9546  0.0939
   18CHL1  H27B 1331   2.834   2.037   4.641 -0.4718 -1.1797  2.1874
   18CHL1  H27C 1332   2.923   1.970   4.485  1.2612 -1.3083  0.6754
   19CHL1    C3 1333   0.864   6.376   6.375 -0.4483 -0.6060  0.3155
   19CHL1    H3 1334   0.918   6.472   6.359 -1.8517  0.1296 -0.2160
   19CHL1    O3 1335   0.829   6.372   6.516 -0.2363  0.5451  0.3072
   19CHL1   H3' 1336   0.745   6.325   6.519  0.4605 -0.7195  1.2678
   19CHL1    C4 1337   0.731   6.385   6.294  0.3651  0.0563  0.9042
   19CHL1   H4A 1338   0.673   6.293   6.316  0.2022  0.1660  0.9392
   19CHL1   H4B 1339   0.662   6.467   6.325  0.6230 -0.0151  1.6870
   19CHL1    C5 1340   0.770   6.402   6.148 -0.0957  0.2307  0.2083
   19CHL1    C6 1341   0.736   6.509   6.088  0.2375 -0.0297 -0.1921
   19CHL1    H6 1342   0.671   6.578   6.144 -0.5683  0.6144 -1.8394
   19CHL1    C7 1343   0.786   6.550   5.951  0.5282  0.5129  0.2466
   19CHL1   H7A 1344   0.714   6.590   5.876 -2.7591 -2.5966  1.4683
   19CHL1   H7B 1345   0.868   6.621   5.975  0.2872  0.6888  0.5499
   19CHL1    C8 1346   0.831   6.423   5.869 -0.3554  0.3655 -0.9855
   19CHL1    H8 1347   0.740   6.361   5.851  0.9598 -3.3135  3.0195
   19CHL1   C14 1348   0.890   6.464   5.740 -0.9938  0.5019  0.4413
   19CHL1   H14 1349   0.980   6.525   5.760  0.5108 -1.1238 -0.9908
   19CHL1   C15 1350   0.812   6.546   5.643  0.0515  0.3671  0.1283
   19CHL1  H15A 1351   0.711   6.502   5.633  1.6537 -3.5577 -0.5025
   19CHL1  H15B 1352   0.816   6.653   5.673 -0.6721 -0.1209  2.0649
   19CHL1   C16 1353   0.896   6.530   5.516 -0.0333  0.1168 -0.6151
   19CHL1  H16A 1354   0.826   6.529   5.429 -2.7629 -1.9043  1.4280
   19CHL1  H16B 1355   0.975   6.607   5.505  1.5470 -0.8647  2.5021
   19CHL1   C17 1356   0.995   6.405   5.528  0.7501  0.3166 -0.0140
   19CHL1   H17 1357   1.097   6.445   5.549  1.5737 -1.5434 -0.3104
   19CHL1   C13 1358   0.941   6.342   5.663 -0.7853  0.1092  0.2903
   19CHL1   C18 1359   0.833   6.242   5.627  0.5852 -0.4089  0.2887
   19CHL1  H18A 1360   0.762   6.281   5.550  0.0433 -2.3490 -0.2555
   19CHL1  H18B 1361   0.871   6.148   5.582  0.8273 -0.9567  1.5916
   19CHL1  H18C 1362   0.772   6.219   5.717  0.8056  0.0674  0.5649
   19CHL1   C12 1363   1.053   6.270   5.745  0.5903  0.2454  1.0764
   19CHL1  H12A 1364   1.078   6.176   5.693 -1.0803 -0.2293  1.0479
   19CHL1  H12B 1365   1.139   6.340   5.745  0.0651  0.9034  0.8169
   19CHL1   C11 1366   0.998   6.222   5.883  0.2845  0.2875 -0.1471
   19CHL1  H11A 1367   0.918   6.145   5.875  0.4223  0.2533 -1.6626
   19CHL1  H11B 1368   1.073   6.173   5.948 -0.4898 -0.9073 -0.1385
   19CHL1    C9 1369   0.930   6.342   5.955  0.2907  0.2899  0.6329
   19CHL1    H9 1370   1.018   6.408   5.969 -0.7338  1.9236 -0.3548
   19CHL1   C10 1371   0.875   6.295   6.090  0.4825  0.1086 -0.8119
   19CHL1   C19 1372   0.786   6.170   6.070 -0.3719  0.1603  0.4002
   19CHL1  H19A 1373   0.718   6.143   6.153 -0.9673  0.4358  0.0066
   19CHL1  H19B 1374   0.725   6.192   5.980  0.0976  0.4724  0.1513
   19CHL1  H19C 1375   0.856   6.085   6.053 -0.0592  0.4233  0.3674
   19CHL1    C1 1376   0.984   6.265   6.190 -0.3373  0.0965  0.1788
   19CHL1   H1A 1377   1.036   6.169   6.172  2.2445  1.0080  2.1269
   19CHL1   H1B 1378   1.056   6.349   6.177  1.0584 -1.1801 -0.6674
   19CHL1    C2 1379   0.946   6.252   6.333 -0.4358 -0.2293 -0.0877
   19CHL1   H2A 1380   1.034   6.254   6.401 -0.1516  0.6725 -0.4675
   19CHL1   H2B 1381   0.879   6.164   6.344 -0.4919 -0.0331  1.3839
   19CHL1   C20 1382   1.008   6.319   5.399 -0.2640  0.0612 -0.3764
   19CHL1   H20 1383   0.906   6.280   5.377 -0.5821  1.3110 -1.2884
   19CHL1   C21 1384   1.117   6.216   5.418 -0.0084  0.3450 -1.0130
   19CHL1  H21A 1385   1.084   6.130   5.480 -0.8750 -1.2345 -3.4946
   19CHL1  H21B 1386   1.211   6.263   5.454  0.1385 -0.0042 -0.9313
   19CHL1  H21C 1387   1.136   6.165   5.320 -0.0003  0.9086 -1.3072
   19CHL1   C22 1388   1.043   6.414   5.276  0.1683 -0.6281  0.0191
   19CHL1  H22A 1389   1.001   6.515   5.293  0.0178 -0.7498  0.3895
   19CHL1  H22B 1390   1.154   6.427   5.271 -0.1041  1.3823 -2.6838
   19CHL1   C23 1391   0.989   6.355   5.146 -0.0584 -0.5266  0.4435
   19CHL1  H23A 1392   1.062   6.280   5.110 -1.1209 -1.7262  0.7107
   19CHL1  H23B 1393   0.886   6.313   5.151 -1.0315  1.7886  2.2803
   19CHL1   C24 1394   1.000   6.464   5.040 -0.3985 -0.2188 -0.7875
   19CHL1  H24A 1395   0.973   6.566   5.075  1.4787  1.3123 -3.4596
   19CHL1  H24B 1396   1.108   6.479   5.021  0.2424  1.4263  3.2287
   19CHL1   C25 1397   0.928   6.429   4.909 -0.1507  0.3241 -0.3088
   19CHL1   H25 1398   0.944   6.320   4.894 -0.7328 -0.1081  1.8562
   19CHL1   C26 1399   0.774   6.441   4.918  1.9470  0.4670 -0.1569
   19CHL1  H26A 1400   0.735   6.438   4.814 -0.2997  1.2716  0.5993
   19CHL1  H26B 1401   0.732   6.364   4.986 -3.0096  0.0118 -3.2680
   19CHL1  H26C 1402   0.752   6.540   4.963 -0.9367  0.9395 -2.3376
   19CHL1   C27 1403   0.991   6.500   4.788 -0.5291 -0.3066 -0.2293
   19CHL1  H27A 1404   1.101   6.481   4.790 -0.4790  0.0347  2.1760
   19CHL1  H27B 1405   0.949   6.466   4.690 -0.7979 -0.7805  0.0489
   19CHL1  H27C 1406   0.981   6.609   4.804 -0.8686 -0.2424 -0.8214
   20CHL1    C3 1407   2.172   2.079   6.052 -0.7957  0.0673 -0.6171
   20CHL1    H3 1408   2.256   2.007   6.063 -1.2032 -0.3246 -0.0189
   20CHL1    O3 1409   2.162   2.133   6.185 -0.3963  0.8842  0.3890
   20CHL1   H3' 1410   2.071   2.161   6.184 -0.3662  1.0521 -1.4522
   20CHL1    C4 1411   2.210   2.197   5.950 -0.6376 -0.6489  0.0468
   20CHL1   H4A 1412   2.141   2.284   5.950 -0.0892 -0.1642  2.1452
   20CHL1   H4B 1413   2.312   2.230   5.976 -0.5480 -1.5515  0.8961
   20CHL1    C5 1414   2.208   2.140   5.807  0.5527  0.2291  0.2363
   20CHL1    C6 1415   2.310   2.157   5.723 -0.2266  0.6213 -0.4294
   20CHL1    H6 1416   2.394   2.225   5.744  0.1364  0.3622 -1.0276
   20CHL1    C7 1417   2.307   2.120   5.582 -0.1441 -0.2798  0.1235
   20CHL1   H7A 1418   2.341   2.208   5.524  2.4670  0.4969  2.6311
   20CHL1   H7B 1419   2.376   2.034   5.566  0.4066 -0.0177  1.0432
   20CHL1    C8 1420   2.164   2.087   5.527  0.3208  0.2130  0.4557
   20CHL1    H8 1421   2.110   2.183   5.514  0.3076  0.0323 -0.9913
   20CHL1   C14 1422   2.175   2.021   5.385 -0.3553  0.0246  0.0980
   20CHL1   H14 1423   2.226   1.924   5.403 -0.2305  0.3116  1.4050
   20CHL1   C15 1424   2.260   2.087   5.271 -0.1847 -0.1228  0.0977
   20CHL1  H15A 1425   2.252   2.197   5.264 -0.3720 -0.2286 -4.9899
   20CHL1  H15B 1426   2.367   2.069   5.292  0.4913  0.7173 -2.2843
   20CHL1   C16 1427   2.212   2.020   5.139  1.0453 -0.0403 -0.4147
   20CHL1  H16A 1428   2.181   2.101   5.069  2.2314  1.2803  0.5195
   20CHL1  H16B 1429   2.294   1.962   5.092  1.1745  0.7362 -1.1720
   20CHL1   C17 1430   2.081   1.937   5.179  0.1284 -0.2803 -0.1364
   20CHL1   H17 1431   2.119   1.835   5.204  0.2629  0.1115  1.3464
   20CHL1   C13 1432   2.039   1.994   5.317  0.0395 -0.4391  0.1630
   20CHL1   C18 1433   1.975   2.134   5.279  0.5237 -0.0150 -0.2276
   20CHL1  H18A 1434   1.873   2.112   5.241  0.4301 -0.4256  0.2448
   20CHL1  H18B 1435   1.958   2.212   5.356 -1.0969 -1.2665  0.7475
   20CHL1  H18C 1436   2.022   2.188   5.194  0.7219  1.7514  0.9491
   20CHL1   C12 1437   1.956   1.903   5.413  0.0493  0.6554 -0.1584
   20CHL1  H12A 1438   1.852   1.902   5.373  0.1593  1.0236 -0.4567
   20CHL1  H12B 1439   2.000   1.802   5.424 -1.5330  0.0008  0.5568
   20CHL1   C11 1440   1.952   1.957   5.557 -0.0679 -0.1040 -0.0287
   20CHL1  H11A 1441   1.891   2.048   5.541  1.1385  0.2883 -3.3530
   20CHL1  H11B 1442   1.904   1.885   5.627 -1.8438  0.4607 -0.6160
   20CHL1    C9 1443   2.088   1.994   5.622 -0.8517  0.2824  0.0758
   20CHL1    H9 1444   2.142   1.898   5.637 -2.0354 -0.8127 -2.2520
   20CHL1   C10 1445   2.080   2.061   5.766  0.7671 -0.5691 -0.1739
   20CHL1   C19 1446   1.962   2.162   5.760 -0.2492  0.4504 -0.2772
   20CHL1  H19A 1447   1.963   2.213   5.661 -1.7955 -1.4360 -1.3389
   20CHL1  H19B 1448   1.863   2.112   5.761  1.5399 -3.4817  0.9916
   20CHL1  H19C 1449   1.959   2.233   5.845 -1.4070  1.8781 -1.4648
   20CHL1    C1 1450   2.054   1.946   5.871  0.3562  0.2815  0.3835
   20CHL1   H1A 1451   1.957   1.903   5.838  0.7702 -0.1112 -0.3223
   20CHL1   H1B 1452   2.131   1.867   5.871  0.8185  0.7247  0.3333
   20CHL1    C2 1453   2.046   2.000   6.012 -0.3703  0.2069 -0.3886
   20CHL1   H2A 1454   2.047   1.915   6.084 -0.6459  0.5680  0.0493
   20CHL1   H2B 1455   1.956   2.065   6.018  1.2635  2.4983  1.1378
   20CHL1   C20 1456   1.973   1.908   5.068  0.2683  0.2551  0.4282
   20CHL1   H20 1457   1.909   1.999   5.064 -0.6582 -0.2528  2.2896
   20CHL1   C21 1458   1.895   1.781   5.095  0.2458  0.2649 -0.4342
   20CHL1  H21A 1459   1.844   1.779   5.194 -0.2738 -2.5856 -0.6752
   20CHL1  H21B 1460   1.965   1.695   5.086  3.0101  2.5130 -2.4387
   20CHL1  H21C 1461   1.819   1.758   5.017  1.6324 -1.7258 -1.2866
   20CHL1   C22 1462   2.037   1.884   4.930  0.6238 -0.6225 -0.0468
   20CHL1  H22A 1463   2.123   1.950   4.905  2.1183 -1.4009  2.6529
   20CHL1  H22B 1464   2.070   1.778   4.926 -0.6353 -1.0265 -0.0298
   20CHL1   C23 1465   1.938   1.898   4.804 -0.6495  0.4564 -0.3427
   20CHL1  H23A 1466   1.865   1.815   4.813 -0.0412 -0.0525 -0.0805
   20CHL1  H23B 1467   1.882   1.993   4.819 -0.6808 -0.0527  4.1495
   20CHL1   C24 1468   2.010   1.879   4.669  0.2594 -0.3749  1.2665
   20CHL1  H24A 1469   2.091   1.953   4.655 -0.3564 -0.2458 -3.2679
   20CHL1  H24B 1470   2.055   1.777   4.657  0.0334 -0.3115 -0.3091
   20CHL1   C25 1471   1.924   1.900   4.541 -0.5033 -0.0772 -0.0148
   20CHL1   H25 1472   1.872   1.997   4.557 -0.9804  0.0984 -2.3314
   20CHL1   C26 1473   2.009   1.907   4.417 -0.1735 -0.8630  1.2336
   20CHL1  H26A 1474   1.948   1.946   4.333  2.3540 -1.7938 -1.2203
   20CHL1  H26B 1475   2.097   1.972   4.442  0.9585 -2.4117  1.4292
   20CHL1  H26C 1476   2.033   1.801   4.395 -1.4306 -0.5694 -2.0709
   20CHL1   C27 1477   1.817   1.792   4.530  0.1090  0.5734  0.5889
   20CHL1  H27A 1478   1.753   1.815   4.443  0.8924  0.9732  0.0992
   20CHL1  H27B 1479   1.868   1.694   4.516  2.6983  1.4655  2.8090
   20CHL1  H27C 1480   1.764   1.782   4.627  0.5783 -1.6032  0.6802
   21CHL1    C3 1481   6.046   2.038   6.222 -0.1383 -0.0712  0.1053
   21CHL1    H3 1482   5.952   2.094   6.237 -0.1242  0.1513 -0.5816
   21CHL1    O3 1483   6.111   2.006   6.347 -0.3317 -0.0833 -0.1185
   21CHL1   H3' 1484   6.201   1.986   6.319  0.8290  0.4226  2.8630
   21CHL1    C4 1485   6.015   1.899   6.150  0.3192 -0.3033 -0.3908
   21CHL1   H4A 1486   6.109   1.840   6.154  0.8565  0.2291 -2.9474
   21CHL1   H4B 1487   5.950   1.833   6.211  2.7945 -1.7675  0.8197
   21CHL1    C5 1488   5.971   1.911   6.007 -0.4115 -0.0192  0.2503
   21CHL1    C6 1489   5.858   1.841   5.977 -0.5069 -0.0804  0.0092
   21CHL1    H6 1490   5.810   1.773   6.051  3.3355 -3.3497 -0.1660
   21CHL1    C7 1491   5.804   1.837   5.839  0.1236 -0.1385 -0.4633
   21CHL1   H7A 1492   5.794   1.729   5.813 -0.8126  0.0063 -0.7369
   21CHL1   H7B 1493   5.711   1.895   5.851  0.0235 -0.5367  0.7901
   21CHL1    C8 1494   5.889   1.912   5.727 -0.0522  0.7111 -0.6563
   21CHL1    H8 1495   5.953   1.826   5.699 -0.0124  0.3690  0.4174
   21CHL1   C14 1496   5.802   1.953   5.609  0.5610  0.5479 -0.4315
   21CHL1   H14 1497   5.737   2.037   5.641 -0.6124 -0.0508 -1.2131
   21CHL1   C15 1498   5.699   1.843   5.565  1.0707 -0.6541 -0.0148
   21CHL1  H15A 1499   5.727   1.736   5.559 -3.9847 -2.4032  2.4314
   21CHL1  H15B 1500   5.605   1.851   5.624  0.6090  0.3554 -0.8534
   21CHL1   C16 1501   5.671   1.889   5.417 -0.0487  0.5057 -0.4423
   21CHL1  H16A 1502   5.702   1.807   5.349 -0.8648 -0.7704  0.6723
   21CHL1  H16B 1503   5.562   1.909   5.413 -0.1440  0.6144  1.6391
   21CHL1   C17 1504   5.765   2.019   5.397  0.3082  1.2376  0.7661
   21CHL1   H17 1505   5.707   2.102   5.441 -0.3921 -0.0715  2.4196
   21CHL1   C13 1506   5.878   1.997   5.491  0.1399 -0.8862  0.7081
   21CHL1   C18 1507   5.970   1.886   5.436  0.4730 -0.1757 -0.0404
   21CHL1  H18A 1508   6.023   1.919   5.345 -0.0718  0.1505 -0.2490
   21CHL1  H18B 1509   6.040   1.850   5.514  0.9532 -0.1475 -0.4588
   21CHL1  H18C 1510   5.911   1.795   5.411  1.3704 -1.0419  0.9183
   21CHL1   C12 1511   5.967   2.121   5.547  0.2999 -0.8160  0.4280
   21CHL1  H12A 1512   6.029   2.164   5.465  0.0508  0.4811  0.9012
   21CHL1  H12B 1513   5.900   2.203   5.581  0.4706 -0.8260  0.7830
   21CHL1   C11 1514   6.055   2.086   5.660  0.6098 -0.0128 -0.2947
   21CHL1  H11A 1515   6.126   2.007   5.626 -1.1920 -1.0677 -1.7511
   21CHL1  H11B 1516   6.115   2.175   5.688  1.6829 -1.4123  2.1966
   21CHL1    C9 1517   5.972   2.029   5.778 -0.8641 -0.6290  0.3225
   21CHL1    H9 1518   5.903   2.113   5.804 -1.3908 -0.4927 -1.3792
   21CHL1   C10 1519   6.045   2.001   5.913  0.2392 -0.2591  0.6666
   21CHL1   C19 1520   6.184   1.939   5.871  0.2071  0.2936  0.6557
   21CHL1  H19A 1521   6.174   1.856   5.798  2.5995  1.2046 -0.8147
   21CHL1  H19B 1522   6.258   2.010   5.830  0.6718 -0.8443 -0.5153
   21CHL1  H19C 1523   6.237   1.902   5.961  0.8111  1.5029  0.8172
   21CHL1    C1 1524   6.074   2.133   5.993  0.3973  0.2336 -0.1786
   21CHL1   H1A 1525   6.140   2.191   5.925  1.0115 -1.5985 -1.1939
   21CHL1   H1B 1526   5.977   2.182   6.017 -0.1065  0.6540 -2.8451
   21CHL1    C2 1527   6.144   2.115   6.134  0.4248  0.5839  0.0867
   21CHL1   H2A 1528   6.165   2.215   6.179 -0.3034  0.7412  0.0977
   21CHL1   H2B 1529   6.236   2.054   6.126  0.6158  1.0578 -1.5779
   21CHL1   C20 1530   5.792   2.056   5.253 -0.2878  0.7307 -0.0717
   21CHL1   H20 1531   5.845   1.978   5.194  0.3730  0.8980  0.2877
   21CHL1   C21 1532   5.879   2.183   5.231 -0.8444 -0.0010 -0.1667
   21CHL1  H21A 1533   5.886   2.209   5.123 -0.1492 -0.0004 -0.1276
   21CHL1  H21B 1534   5.980   2.159   5.272 -0.8845  0.4342  0.1827
   21CHL1  H21C 1535   5.843   2.275   5.280 -0.1353 -0.4582  1.2571
   21CHL1   C22 1536   5.649   2.086   5.181 -0.4211  0.0860 -0.7550
   21CHL1  H22A 1537   5.581   2.000   5.196 -1.5096  0.6191 -2.4497
   21CHL1  H22B 1538   5.607   2.170   5.240  1.5011  0.8941 -0.4535
   21CHL1   C23 1539   5.648   2.113   5.028 -0.6638 -0.3186  0.5503
   21CHL1  H23A 1540   5.714   2.201   5.007  0.5388 -1.4510 -0.6232
   21CHL1  H23B 1541   5.693   2.027   4.974  0.8245  2.0226 -2.2646
   21CHL1   C24 1542   5.517   2.163   4.974  0.4511  0.3742  0.2873
   21CHL1  H24A 1543   5.473   2.262   5.002  0.6757  0.5077  0.1725
   21CHL1  H24B 1544   5.515   2.166   4.863 -0.5457 -2.5449  0.1522
   21CHL1   C25 1545   5.396   2.067   4.999 -0.2909  0.5576 -0.6473
   21CHL1   H25 1546   5.383   2.070   5.109 -0.0725  1.4377 -0.6414
   21CHL1   C26 1547   5.276   2.108   4.925  0.6357  0.5153 -0.1903
   21CHL1  H26A 1548   5.276   2.077   4.818 -0.9027  1.5500 -0.5144
   21CHL1  H26B 1549   5.182   2.058   4.958 -0.3722  0.9636 -2.2178
   21CHL1  H26C 1550   5.252   2.216   4.932  2.3517  0.8597  1.0495
   21CHL1   C27 1551   5.429   1.925   4.954  0.4562 -0.5906  0.5567
   21CHL1  H27A 1552   5.335   1.869   4.968 -1.1732  2.2249  1.6683
   21CHL1  H27B 1553   5.430   1.923   4.843  0.6593  0.0602  0.5403
   21CHL1  H27C 1554   5.516   1.888   5.013  1.6577  0.3682 -0.5413
   22CHL1    C3 1555   5.376   5.486   5.755  0.8126  0.2028 -0.5932
   22CHL1    H3 1556   5.457   5.562   5.761 -0.6426  1.7495  0.3232
   22CHL1    O3 1557   5.364   5.432   5.885 -0.2637  0.0618 -0.2692
   22CHL1   H3' 1558   5.387   5.499   5.950 -2.1958  0.6857 -0.1497
   22CHL1    C4 1559   5.251   5.566   5.735 -0.4368  0.1175 -0.1536
   22CHL1   H4A 1560   5.174   5.489   5.755  0.7243 -2.1426 -3.4586
   22CHL1   H4B 1561   5.237   5.647   5.809 -0.1830  0.4691 -0.4885
   22CHL1    C5 1562   5.235   5.622   5.590 -0.5840 -0.2550 -0.5242
   22CHL1    C6 1563   5.212   5.748   5.563  0.8493  0.0446  0.4079
   22CHL1    H6 1564   5.202   5.822   5.644  0.3472  1.3256 -0.7901
   22CHL1    C7 1565   5.195   5.799   5.424  0.1347 -0.2817 -0.1486
   22CHL1   H7A 1566   5.111   5.872   5.415 -1.1970 -1.8661 -1.2832
   22CHL1   H7B 1567   5.291   5.839   5.384 -0.8624 -0.3701 -2.8544
   22CHL1    C8 1568   5.158   5.685   5.327 -0.3529  0.1519  0.6653
   22CHL1    H8 1569   5.053   5.650   5.340 -0.3133 -0.6065 -0.8319
   22CHL1   C14 1570   5.163   5.738   5.178  0.3250 -0.0533 -0.5053
   22CHL1   H14 1571   5.267   5.772   5.160 -0.3366  1.8217 -1.0023
   22CHL1   C15 1572   5.086   5.864   5.149 -0.4354 -0.8728  0.7268
   22CHL1  H15A 1573   4.986   5.857   5.196 -0.7086  1.2770  0.5665
   22CHL1  H15B 1574   5.136   5.958   5.181 -0.9967 -0.7815  1.3534
   22CHL1   C16 1575   5.074   5.864   4.994  0.3764  0.5600 -0.6444
   22CHL1  H16A 1576   4.968   5.878   4.962  0.1494 -0.6134 -0.4474
   22CHL1  H16B 1577   5.143   5.936   4.944 -0.2535  0.0431 -2.2995
   22CHL1   C17 1578   5.112   5.715   4.959  0.1951  0.1342  0.6489
   22CHL1   H17 1579   5.218   5.717   4.926 -0.2032 -2.0333 -1.0263
   22CHL1   C13 1580   5.113   5.630   5.084  0.1686  0.4581  0.2726
   22CHL1   C18 1581   4.964   5.584   5.115  0.3513  0.0915  1.0336
   22CHL1  H18A 1582   4.959   5.529   5.211  2.0575 -1.0038  0.5637
   22CHL1  H18B 1583   4.910   5.681   5.121  1.9814  1.2155 -0.9116
   22CHL1  H18C 1584   4.932   5.506   5.042 -1.4077 -1.8230  3.6610
   22CHL1   C12 1585   5.213   5.518   5.091 -0.1060  0.6460  0.2422
   22CHL1  H12A 1586   5.186   5.438   5.018  0.3481  0.7686 -0.0692
   22CHL1  H12B 1587   5.317   5.550   5.066 -0.2464  0.5062 -0.5417
   22CHL1   C11 1588   5.221   5.457   5.228  0.1748 -0.7318  0.4228
   22CHL1  H11A 1589   5.118   5.417   5.239 -0.0664 -1.1865 -2.6756
   22CHL1  H11B 1590   5.302   5.381   5.232  1.5986  0.7486  0.6646
   22CHL1    C9 1591   5.248   5.566   5.342 -1.0492 -0.4757 -1.1709
   22CHL1    H9 1592   5.351   5.602   5.321 -1.3118  2.0187  1.2372
   22CHL1   C10 1593   5.239   5.511   5.484 -0.0722  0.5643 -0.1803
   22CHL1   C19 1594   5.118   5.405   5.503 -0.3576  0.0120  0.6508
   22CHL1  H19A 1595   5.017   5.448   5.487 -0.3459  0.3669  1.4644
   22CHL1  H19B 1596   5.141   5.321   5.435 -2.3141 -1.2923  1.4910
   22CHL1  H19C 1597   5.104   5.359   5.603  1.1378  0.0357  0.8951
   22CHL1    C1 1598   5.375   5.425   5.508  0.0525 -0.6265  0.3040
   22CHL1   H1A 1599   5.383   5.346   5.431 -1.2409  1.8391 -2.5792
   22CHL1   H1B 1600   5.473   5.475   5.491  1.4571 -2.3950  2.6241
   22CHL1    C2 1601   5.388   5.371   5.652 -0.5025  0.5725  0.6645
   22CHL1   H2A 1602   5.488   5.322   5.654  0.5721  2.5990 -0.5947
   22CHL1   H2B 1603   5.312   5.293   5.674  0.1056  0.3935  2.2929
   22CHL1   C20 1604   5.029   5.667   4.845  1.1149 -0.2231  0.8628
   22CHL1   H20 1605   4.922   5.664   4.875  0.7257  0.8031 -0.3473
   22CHL1   C21 1606   5.071   5.530   4.794 -0.8948  0.1969  0.0503
   22CHL1  H21A 1607   5.034   5.512   4.691  1.7145 -4.2653 -0.3709
   22CHL1  H21B 1608   5.025   5.449   4.855 -0.9995 -0.1500 -0.4863
   22CHL1  H21C 1609   5.182   5.522   4.785 -0.6815  1.5221  1.0689
   22CHL1   C22 1610   5.036   5.768   4.728  0.1902 -0.0353  0.0111
   22CHL1  H22A 1611   4.959   5.726   4.660 -0.7658  0.5621  0.6984
   22CHL1  H22B 1612   4.999   5.871   4.751  1.3520 -0.2859  3.7095
   22CHL1   C23 1613   5.182   5.783   4.657 -0.2600 -0.0399  0.4559
   22CHL1  H23A 1614   5.261   5.779   4.735 -0.2635 -0.8237  0.4179
   22CHL1  H23B 1615   5.203   5.700   4.587  0.0330  0.8199 -0.5059
   22CHL1   C24 1616   5.202   5.915   4.595 -0.7722 -0.7787 -0.6281
   22CHL1  H24A 1617   5.112   5.959   4.546 -0.1777  3.0252  1.3055
   22CHL1  H24B 1618   5.220   5.982   4.682 -0.7841 -0.7551 -0.6441
   22CHL1   C25 1619   5.328   5.935   4.496  0.5960 -0.1479 -0.2778
   22CHL1   H25 1620   5.334   6.035   4.448  0.4127  0.5153  1.0349
   22CHL1   C26 1621   5.451   5.910   4.580 -0.1739  0.3000 -0.6307
   22CHL1  H26A 1622   5.452   5.802   4.604 -0.1928  0.2644 -0.7941
   22CHL1  H26B 1623   5.542   5.927   4.520  0.3991 -1.9917 -0.4799
   22CHL1  H26C 1624   5.460   5.980   4.667 -3.7600 -0.7738  0.8155
   22CHL1   C27 1625   5.311   5.842   4.380 -0.2515 -0.0189  0.1991
   22CHL1  H27A 1626   5.204   5.850   4.350  0.3141  1.3506 -1.6919
   22CHL1  H27B 1627   5.371   5.868   4.290 -0.2941  2.5407  0.8401
   22CHL1  H27C 1628   5.339   5.740   4.413 -0.2381  0.1799  0.8098
   23CHL1    C3 1629   6.653   3.229   6.050 -0.0230 -0.4507  0.6952
   23CHL1    H3 1630   6.578   3.154   6.018 -1.3548  1.2827 -0.4964
   23CHL1    O3 1631   6.664   3.233   6.192  0.3522 -0.0954  0.3282
   23CHL1   H3' 1632   6.739   3.292   6.207  0.7855 -0.9625  1.8324
   23CHL1    C4 1633   6.791   3.188   5.998  0.5388 -0.4553  0.1071
   23CHL1   H4A 1634   6.871   3.263   6.018  1.7150 -1.4334 -0.7840
   23CHL1   H4B 1635   6.820   3.095   6.050  2.9430  0.7792  1.0901
   23CHL1    C5 1636   6.787   3.167   5.848  0.2314 -0.8102  0.0729
   23CHL1    C6 1637   6.811   3.053   5.788  0.6059  0.5815 -0.1743
   23CHL1    H6 1638   6.826   2.967   5.855  1.6557  0.9034  0.0218
   23CHL1    C7 1639   6.815   3.019   5.644  0.0023  0.0152 -0.4988
   23CHL1   H7A 1640   6.909   2.966   5.620  1.5376  1.5377  1.7226
   23CHL1   H7B 1641   6.730   2.948   5.640  0.3263 -0.4360  0.3665
   23CHL1    C8 1642   6.804   3.152   5.565  0.6330 -0.3368 -0.3988
   23CHL1    H8 1643   6.896   3.214   5.573 -0.3392  1.3083 -1.2643
   23CHL1   C14 1644   6.781   3.124   5.413 -0.7119 -0.2347 -0.1351
   23CHL1   H14 1645   6.692   3.058   5.405  0.7622 -2.2558 -0.6740
   23CHL1   C15 1646   6.883   3.038   5.345  0.2236  0.8718  0.4544
   23CHL1  H15A 1647   6.991   3.062   5.356  0.3316  1.1357 -1.0183
   23CHL1  H15B 1648   6.863   2.936   5.384 -2.2008  1.5967  1.2983
   23CHL1   C16 1649   6.834   3.042   5.201 -0.1829 -0.2887  0.5710
   23CHL1  H16A 1650   6.914   3.046   5.125 -0.6110 -2.5007 -0.0593
   23CHL1  H16B 1651   6.777   2.951   5.174  1.4181 -0.7353 -1.5634
   23CHL1   C17 1652   6.732   3.168   5.185  0.2681 -0.0596 -0.4155
   23CHL1   H17 1653   6.631   3.122   5.179  0.8492 -1.2832 -1.2882
   23CHL1   C13 1654   6.754   3.244   5.323  0.4775  0.2673  0.4760
   23CHL1   C18 1655   6.881   3.340   5.330  0.2093  0.5729  0.5986
   23CHL1  H18A 1656   6.901   3.382   5.431 -0.7038  1.8306  0.2728
   23CHL1  H18B 1657   6.972   3.292   5.286 -2.3881 -0.9748 -3.6932
   23CHL1  H18C 1658   6.872   3.432   5.270  1.7970 -0.0658 -0.6945
   23CHL1   C12 1659   6.631   3.320   5.379 -0.6578  1.0776 -0.3529
   23CHL1  H12A 1660   6.615   3.413   5.321  0.5589  1.1868 -0.5344
   23CHL1  H12B 1661   6.540   3.255   5.376  0.6830 -0.8845 -2.8431
   23CHL1   C11 1662   6.651   3.356   5.524  0.3788 -0.7474 -0.5764
   23CHL1  H11A 1663   6.723   3.441   5.528 -0.9615  0.3677  0.9881
   23CHL1  H11B 1664   6.552   3.400   5.550  0.5166 -0.2482 -0.8914
   23CHL1    C9 1665   6.696   3.243   5.621  1.2297  0.0380 -0.0252
   23CHL1    H9 1666   6.602   3.185   5.632 -0.4470  1.4154 -4.7219
   23CHL1   C10 1667   6.727   3.292   5.771  0.4572 -0.6447  0.7992
   23CHL1   C19 1668   6.831   3.404   5.762 -0.4697  0.6593 -0.0383
   23CHL1  H19A 1669   6.921   3.365   5.710 -0.7943 -4.5725  2.6284
   23CHL1  H19B 1670   6.790   3.491   5.707  1.0334  0.5420 -1.4291
   23CHL1  H19C 1671   6.861   3.439   5.863  1.6476 -0.5594 -0.1997
   23CHL1    C1 1672   6.589   3.330   5.841  0.0847 -0.1489 -0.3877
   23CHL1   H1A 1673   6.563   3.430   5.800  2.0686  0.3485 -0.5329
   23CHL1   H1B 1674   6.510   3.254   5.825  1.4721 -1.3344 -2.1480
   23CHL1    C2 1675   6.595   3.360   5.990 -0.8425 -1.4676  0.3550
   23CHL1   H2A 1676   6.492   3.382   6.025 -0.6836  1.6381 -0.8597
   23CHL1   H2B 1677   6.664   3.441   6.021 -1.1345 -1.3024  0.5769
   23CHL1   C20 1678   6.751   3.240   5.054  0.1995  0.6173  0.0674
   23CHL1   H20 1679   6.859   3.265   5.041  0.3042 -0.2095 -0.7657
   23CHL1   C21 1680   6.671   3.372   5.039 -0.1138  0.4668  0.3623
   23CHL1  H21A 1681   6.562   3.354   5.027  0.0702  0.6132 -2.2843
   23CHL1  H21B 1682   6.703   3.425   4.946 -0.9474  0.7954  0.2597
   23CHL1  H21C 1683   6.692   3.437   5.126  1.6101  0.6138 -0.1234
   23CHL1   C22 1684   6.730   3.147   4.930  0.4893  0.2207 -1.0912
   23CHL1  H22A 1685   6.767   3.045   4.953 -2.0417 -0.3848  0.8926
   23CHL1  H22B 1686   6.619   3.135   4.935  0.5995 -0.3472  0.9539
   23CHL1   C23 1687   6.779   3.200   4.800  0.1459 -0.4174 -0.1061
   23CHL1  H23A 1688   6.704   3.277   4.770  1.6456  1.1868  0.1308
   23CHL1  H23B 1689   6.876   3.252   4.814 -0.0009  0.4243 -1.9812
   23CHL1   C24 1690   6.768   3.101   4.683 -0.3680  0.5639  0.2710
   23CHL1  H24A 1691   6.836   3.012   4.687 -0.5685  0.3746 -0.3425
   23CHL1  H24B 1692   6.664   3.067   4.665 -0.3318  0.9503 -0.7404
   23CHL1   C25 1693   6.808   3.157   4.547 -0.0377 -1.1623  0.2053
   23CHL1   H25 1694   6.722   3.207   4.497 -0.3419 -0.6946  1.1778
   23CHL1   C26 1695   6.918   3.267   4.550 -0.2619 -0.1627 -0.0763
   23CHL1  H26A 1696   6.888   3.356   4.610 -0.0994  0.2492 -0.6010
   23CHL1  H26B 1697   7.004   3.230   4.610  0.6761  2.0064  0.0106
   23CHL1  H26C 1698   6.957   3.297   4.451  1.1675  0.1043  0.5358
   23CHL1   C27 1699   6.841   3.045   4.448 -0.4503 -0.6891  0.0488
   23CHL1  H27A 1700   6.850   3.083   4.344  1.0431 -1.1729 -0.0196
   23CHL1  H27B 1701   6.928   2.991   4.490 -0.9275 -1.6541 -0.1772
   23CHL1  H27C 1702   6.764   2.966   4.458 -0.0655 -0.9622  1.0075
   24CHL1    C3 1703   0.359   0.101   6.298  0.7544 -0.3353 -0.5467
   24CHL1    H3 1704   0.462   0.134   6.324  0.6045  0.2496 -0.6689
   24CHL1    O3 1705   0.273   0.101   6.410  0.4511  0.8028 -0.3072
   24CHL1   H3' 1706   0.318   0.153   6.477 -0.6208  0.1992  0.9307
   24CHL1    C4 1707   0.288   0.199   6.198 -0.0153 -0.7040 -0.8480
   24CHL1   H4A 1708   0.177   0.193   6.205 -0.2807  0.7857 -2.8737
   24CHL1   H4B 1709   0.302   0.302   6.237 -0.1086 -0.8704 -0.3746
   24CHL1    C5 1710   0.326   0.197   6.060 -0.2784  0.1889  0.4772
   24CHL1    C6 1711   0.382   0.297   5.994  0.8138  0.3431  0.3392
   24CHL1    H6 1712   0.381   0.399   6.034 -2.8083  1.4207 -1.9733
   24CHL1    C7 1713   0.437   0.283   5.859  0.0243  0.0741  0.0731
   24CHL1   H7A 1714   0.447   0.376   5.799  0.4516 -1.1868 -1.8669
   24CHL1   H7B 1715   0.539   0.242   5.874 -0.6123 -0.9724  1.8880
   24CHL1    C8 1716   0.361   0.170   5.781 -0.9331 -0.2304 -0.0629
   24CHL1    H8 1717   0.255   0.199   5.773 -0.8547 -0.0061 -0.2987
   24CHL1   C14 1718   0.438   0.156   5.644 -0.7424 -0.4650 -0.0804
   24CHL1   H14 1719   0.543   0.142   5.677 -0.6565  0.0440 -0.1292
   24CHL1   C15 1720   0.447   0.285   5.563  0.2752 -0.7167  0.0946
   24CHL1  H15A 1721   0.352   0.344   5.560  1.0522  0.6977  1.7133
   24CHL1  H15B 1722   0.529   0.349   5.601 -0.1941 -0.4494  0.6648
   24CHL1   C16 1723   0.472   0.226   5.420  0.9219 -0.2336 -0.4138
   24CHL1  H16A 1724   0.389   0.254   5.352  1.9369 -1.1229 -2.1139
   24CHL1  H16B 1725   0.562   0.269   5.369  0.8462  0.5506  0.1015
   24CHL1   C17 1726   0.460   0.070   5.427  0.1374  0.2434  0.0499
   24CHL1   H17 1727   0.562   0.032   5.447 -0.3741  0.0125  2.6121
   24CHL1   C13 1728   0.385   0.045   5.561 -0.1513 -0.4094  0.3989
   24CHL1   C18 1729   0.236   0.063   5.532 -0.3236 -0.4257 -0.2173
   24CHL1  H18A 1730   0.171   0.052   5.622 -0.2194  2.4969  0.3401
   24CHL1  H18B 1731   0.207   0.158   5.482 -3.7612 -3.0847 -3.8167
   24CHL1  H18C 1732   0.206  -0.021   5.467  1.9128  0.1130 -2.0772
   24CHL1   C12 1733   0.403  -0.085   5.645 -0.0176  1.3800  0.5835
   24CHL1  H12A 1734   0.378  -0.169   5.577  0.2927  0.4926  1.5293
   24CHL1  H12B 1735   0.512  -0.095   5.667 -0.1685  1.7732  1.5398
   24CHL1   C11 1736   0.328  -0.086   5.776 -0.5415  0.1574 -0.0312
   24CHL1  H11A 1737   0.219  -0.095   5.758 -1.0372  4.0646  0.1520
   24CHL1  H11B 1738   0.358  -0.183   5.821  1.0163 -1.2867 -3.7672
   24CHL1    C9 1739   0.379   0.040   5.857 -0.1588  0.0535 -0.2390
   24CHL1    H9 1740   0.488   0.020   5.868 -0.2250 -0.9786 -1.2412
   24CHL1   C10 1741   0.318   0.049   5.999  0.4281 -0.4791 -0.6339
   24CHL1   C19 1742   0.179   0.002   5.984  0.7329 -0.0882  0.4950
   24CHL1  H19A 1743   0.117   0.018   6.076 -0.2592  1.7298 -0.4293
   24CHL1  H19B 1744   0.125   0.063   5.909  0.0043 -1.7783 -0.4015
   24CHL1  H19C 1745   0.179  -0.107   5.964  4.4530 -0.6978  2.8121
   24CHL1    C1 1746   0.396  -0.054   6.093  0.3840 -0.4318 -0.6767
   24CHL1   H1A 1747   0.392  -0.158   6.055  0.2224 -2.1158  3.4641
   24CHL1   H1B 1748   0.506  -0.037   6.094  0.4868 -0.7233 -2.6440
   24CHL1    C2 1749   0.351  -0.038   6.237  0.3380  0.6937  0.8787
   24CHL1   H2A 1750   0.430  -0.093   6.293  1.7878  3.2858  1.5388
   24CHL1   H2B 1751   0.246  -0.075   6.245  0.4694 -0.1827 -1.0076
   24CHL1   C20 1752   0.410   0.008   5.296  0.2622  0.4137 -0.4784
   24CHL1   H20 1753   0.300   0.020   5.287 -0.0803 -0.8530  1.5031
   24CHL1   C21 1754   0.431  -0.145   5.298  0.0834 -0.3192 -0.0821
   24CHL1  H21A 1755   0.415  -0.195   5.200  2.2312 -0.1368 -0.5804
   24CHL1  H21B 1756   0.356  -0.186   5.368 -0.0798  2.5956  1.6406
   24CHL1  H21C 1757   0.532  -0.171   5.337  0.0713  1.3534  1.2022
   24CHL1   C22 1758   0.479   0.057   5.165  0.4864 -0.5845  1.1243
   24CHL1  H22A 1759   0.432  -0.005   5.086  0.9082 -1.0601  1.2426
   24CHL1  H22B 1760   0.456   0.165   5.153  2.8435 -0.2382 -0.8537
   24CHL1   C23 1761   0.632   0.041   5.153  0.6495 -0.5719 -0.7827
   24CHL1  H23A 1762   0.674   0.124   5.213  1.6788 -2.4611  1.2531
   24CHL1  H23B 1763   0.674  -0.051   5.200  0.7478  0.6803  1.7079
   24CHL1   C24 1764   0.664   0.067   5.011 -0.2156 -0.5480  0.4999
   24CHL1  H24A 1765   0.638  -0.007   4.932  0.0103  0.6896 -0.7667
   24CHL1  H24B 1766   0.618   0.164   4.984 -1.3746 -1.8579 -2.6828
   24CHL1   C25 1767   0.818   0.087   4.981 -0.0092  0.3275  0.8223
   24CHL1   H25 1768   0.882  -0.003   4.999  2.0059  0.4257 -4.2107
   24CHL1   C26 1769   0.836   0.107   4.835 -0.1625 -0.0168 -0.4933
   24CHL1  H26A 1770   0.780   0.199   4.808  0.6457  1.0407  1.2828
   24CHL1  H26B 1771   0.941   0.104   4.800 -0.2520 -1.0077 -0.7093
   24CHL1  H26C 1772   0.785   0.021   4.786 -0.5354 -0.9372  1.4309
   24CHL1   C27 1773   0.888   0.199   5.055 -0.1522 -0.5121  0.3917
   24CHL1  H27A 1774   0.999   0.190   5.044 -0.3299  0.2832 -3.2000
   24CHL1  H27B 1775   0.852   0.300   5.027  0.3818 -0.1121  1.1027
   24CHL1  H27C 1776   0.866   0.182   5.162 -0.3355 -1.7386  0.1782
   25CHL1    C3 1777   4.320   1.155   6.175 -0.5226  0.3986  0.8993
   25CHL1    H3 1778   4.226   1.098   6.161 -1.2913  1.9898 -0.9714
   25CHL1    O3 1779   4.330   1.193   6.312 -0.0533 -0.4320 -0.0685
   25CHL1   H3' 1780   4.239   1.218   6.332 -0.7922 -3.3384  0.6056
   25CHL1    C4 1781   4.440   1.062   6.147 -0.3035 -0.2383 -0.1446
   25CHL1   H4A 1782   4.528   1.116   6.188 -1.5367  0.8656  1.1895
   25CHL1   H4B 1783   4.427   0.975   6.215  0.4226 -0.7446 -0.6412
   25CHL1    C5 1784   4.464   1.028   6.000  0.2586  0.3414 -0.1319
   25CHL1    C6 1785   4.480   0.902   5.947  0.1630  0.2714 -0.2475
   25CHL1    H6 1786   4.473   0.809   6.006  3.2549 -1.8939 -2.9820
   25CHL1    C7 1787   4.502   0.868   5.798  0.8737  0.0139  0.0619
   25CHL1   H7A 1788   4.582   0.796   5.772 -0.9939 -1.6045 -1.6003
   25CHL1   H7B 1789   4.414   0.822   5.748  1.2811 -1.5493  0.7423
   25CHL1    C8 1790   4.527   0.993   5.712 -0.1957  0.6817  0.0617
   25CHL1    H8 1791   4.635   1.014   5.720 -0.2369  2.1829 -2.2623
   25CHL1   C14 1792   4.490   0.960   5.569 -0.6532 -0.9218  0.3266
   25CHL1   H14 1793   4.381   0.943   5.568 -0.4428 -2.4820 -1.6332
   25CHL1   C15 1794   4.564   0.838   5.511 -0.2812 -0.4718 -0.3515
   25CHL1  H15A 1795   4.665   0.830   5.556 -0.8985 -0.8435  1.0155
   25CHL1  H15B 1796   4.515   0.742   5.536  0.6319 -0.4364  1.7338
   25CHL1   C16 1797   4.560   0.865   5.360  0.2158 -0.0603  0.6625
   25CHL1  H16A 1798   4.662   0.883   5.319 -0.4137 -1.0649 -1.4833
   25CHL1  H16B 1799   4.525   0.768   5.317  1.0650 -0.7684  1.5157
   25CHL1   C17 1800   4.474   0.990   5.339  0.0101  0.6471 -0.0616
   25CHL1   H17 1801   4.370   0.950   5.335  0.2713  0.0858 -1.4897
   25CHL1   C13 1802   4.503   1.073   5.469  0.1026 -0.6787 -0.8260
   25CHL1   C18 1803   4.645   1.123   5.461 -0.7162 -0.3126  0.7286
   25CHL1  H18A 1804   4.716   1.051   5.416  1.6205  0.5489  2.7975
   25CHL1  H18B 1805   4.658   1.221   5.411  0.1818 -1.5316 -1.5859
   25CHL1  H18C 1806   4.690   1.151   5.559 -0.8559  1.8793  0.2069
   25CHL1   C12 1807   4.405   1.188   5.504 -0.3246  0.4525 -0.6590
   25CHL1  H12A 1808   4.420   1.272   5.433  0.8807 -1.3079 -2.6014
   25CHL1  H12B 1809   4.302   1.145   5.501 -0.1848  0.1414 -1.1728
   25CHL1   C11 1810   4.441   1.230   5.647  0.7318  0.4140 -0.0581
   25CHL1  H11A 1811   4.543   1.274   5.647  1.0950 -0.3947  0.8627
   25CHL1  H11B 1812   4.365   1.306   5.676  1.6658  1.0110  0.9275
   25CHL1    C9 1813   4.435   1.114   5.757  0.3082  0.0223  0.1344
   25CHL1    H9 1814   4.331   1.076   5.749 -0.0792  0.9957  0.3780
   25CHL1   C10 1815   4.452   1.152   5.908  0.1963  0.1978  0.3468
   25CHL1   C19 1816   4.590   1.234   5.914  0.3964 -0.1086 -0.1759
   25CHL1  H19A 1817   4.663   1.159   5.874 -0.3675 -0.6909 -0.5043
   25CHL1  H19B 1818   4.585   1.324   5.849  0.6085  2.0215  2.6100
   25CHL1  H19C 1819   4.618   1.258   6.019 -0.5144 -0.7135  0.2190
   25CHL1    C1 1820   4.331   1.248   5.939 -0.1718 -0.1576  0.1243
   25CHL1   H1A 1821   4.344   1.339   5.876  1.2267  0.1482  0.8042
   25CHL1   H1B 1822   4.241   1.188   5.915  1.9895 -2.7129 -2.3251
   25CHL1    C2 1823   4.311   1.279   6.091  0.0165 -0.3527 -0.2310
   25CHL1   H2A 1824   4.207   1.319   6.097  0.6602  1.3217  0.3415
   25CHL1   H2B 1825   4.376   1.360   6.130 -0.2060 -0.0590 -0.4588
   25CHL1   C20 1826   4.498   1.066   5.209  0.0740 -0.3329 -0.2991
   25CHL1   H20 1827   4.583   1.136   5.224 -0.7495  0.2377  2.0324
   25CHL1   C21 1828   4.375   1.148   5.175 -0.3420  0.3685 -1.0503
   25CHL1  H21A 1829   4.330   1.185   5.269  1.5291 -0.2085  0.1351
   25CHL1  H21B 1830   4.290   1.089   5.135  0.1605 -1.2917  0.2062
   25CHL1  H21C 1831   4.424   1.226   5.113  1.2140 -0.1784 -0.5709
   25CHL1   C22 1832   4.529   0.981   5.087  0.3079  0.2076 -0.2061
   25CHL1  H22A 1833   4.604   0.900   5.094  0.0621  0.0634  1.0043
   25CHL1  H22B 1834   4.435   0.924   5.066  1.3367 -1.7490  0.2760
   25CHL1   C23 1835   4.569   1.053   4.954  0.4373  0.6512 -0.0553
   25CHL1  H23A 1836   4.494   1.129   4.925  0.5741  0.1654 -1.7986
   25CHL1  H23B 1837   4.666   1.102   4.973  1.3179 -1.4838  1.4173
   25CHL1   C24 1838   4.569   0.949   4.828 -0.4757 -1.5480 -0.0096
   25CHL1  H24A 1839   4.653   0.880   4.853  0.5327 -0.0741  0.7982
   25CHL1  H24B 1840   4.479   0.885   4.824 -0.4981 -1.4627 -1.1726
   25CHL1   C25 1841   4.604   1.015   4.692  0.2966 -0.6923 -0.1158
   25CHL1   H25 1842   4.709   1.050   4.700 -0.6626  2.1995  1.9278
   25CHL1   C26 1843   4.592   0.905   4.592  0.4978  0.8250 -0.0511
   25CHL1  H26A 1844   4.487   0.892   4.557  0.8988 -1.4208 -0.6065
   25CHL1  H26B 1845   4.650   0.932   4.501  0.5639  1.1321  0.0830
   25CHL1  H26C 1846   4.629   0.808   4.632 -3.2537  0.1708  2.3735
   25CHL1   C27 1847   4.512   1.127   4.645 -0.2603 -0.6774  0.0815
   25CHL1  H27A 1848   4.521   1.213   4.714  1.9294 -1.1378  0.4678
   25CHL1  H27B 1849   4.540   1.163   4.543 -1.1132 -0.5973 -0.1256
   25CHL1  H27C 1850   4.408   1.089   4.637 -1.1654  1.4534  0.9322
   26CHL1    C3 1851   2.232   1.069   5.973  0.5359  0.1950 -0.9839
   26CHL1    H3 1852   2.302   0.984   5.986  1.0503  0.8979  1.3484
   26CHL1    O3 1853   2.198   1.115   6.108  0.2257 -0.5978  0.1297
   26CHL1   H3' 1854   2.266   1.172   6.146  0.4364 -0.5753 -0.2738
   26CHL1    C4 1855   2.303   1.175   5.895  0.0489 -0.4882 -0.6462
   26CHL1   H4A 1856   2.261   1.276   5.914  4.2978  1.9536 -2.6501
   26CHL1   H4B 1857   2.406   1.186   5.937  1.0718 -0.5389 -3.0038
   26CHL1    C5 1858   2.317   1.149   5.748  0.5566 -0.3851  0.4097
   26CHL1    C6 1859   2.430   1.152   5.676  0.4165  0.0769  0.2476
   26CHL1    H6 1860   2.524   1.184   5.723  0.2711 -2.7442  2.8175
   26CHL1    C7 1861   2.437   1.147   5.522  0.6737 -0.1397 -0.5361
   26CHL1   H7A 1862   2.511   1.220   5.482  1.4753  0.5055  1.9448
   26CHL1   H7B 1863   2.482   1.046   5.507 -0.8466 -1.3129  2.1770
   26CHL1    C8 1864   2.300   1.168   5.457  0.1469 -0.6374 -0.4312
   26CHL1    H8 1865   2.273   1.275   5.464 -0.9888 -0.9162 -0.3807
   26CHL1   C14 1866   2.310   1.121   5.318  0.1062  0.7658  0.4538
   26CHL1   H14 1867   2.329   1.012   5.322  0.1356  0.5615 -2.6143
   26CHL1   C15 1868   2.433   1.163   5.233 -0.0043  0.3576 -0.3330
   26CHL1  H15A 1869   2.438   1.274   5.242 -0.8850  0.3395  0.6441
   26CHL1  H15B 1870   2.535   1.126   5.258 -0.6312 -0.2038  1.5555
   26CHL1   C16 1871   2.394   1.123   5.084  0.3728 -0.1659 -0.0233
   26CHL1  H16A 1872   2.406   1.212   5.020 -0.7067 -0.2762 -0.4067
   26CHL1  H16B 1873   2.453   1.043   5.035 -1.7644  0.4837 -4.0207
   26CHL1   C17 1874   2.240   1.085   5.091 -0.1152  0.3556  0.6082
   26CHL1   H17 1875   2.248   0.974   5.089  0.4904  0.3990  0.4012
   26CHL1   C13 1876   2.187   1.135   5.223 -0.2388  0.4390  0.5124
   26CHL1   C18 1877   2.144   1.288   5.218 -0.2678  0.1385  0.2912
   26CHL1  H18A 1878   2.216   1.361   5.175  1.1424 -0.8052  0.9716
   26CHL1  H18B 1879   2.049   1.288   5.160  0.0645 -0.1057 -0.2611
   26CHL1  H18C 1880   2.121   1.322   5.321 -1.6730 -0.2944  0.1511
   26CHL1   C12 1881   2.082   1.057   5.300 -0.2794 -0.1042  0.0731
   26CHL1  H12A 1882   1.987   1.060   5.243  0.4516  1.1312 -1.1165
   26CHL1  H12B 1883   2.115   0.951   5.295  3.9658  0.9191  1.8255
   26CHL1   C11 1884   2.058   1.087   5.445  0.6517 -0.2272 -0.1305
   26CHL1  H11A 1885   2.025   1.193   5.443 -1.5489 -0.8805 -1.7656
   26CHL1  H11B 1886   1.976   1.027   5.489  0.3063  0.2492 -0.1165
   26CHL1    C9 1887   2.193   1.084   5.527 -0.1853  1.3119 -0.1647
   26CHL1    H9 1888   2.233   0.981   5.529 -0.1585  1.3193  2.3422
   26CHL1   C10 1889   2.181   1.124   5.677 -0.3710 -0.2482  0.8136
   26CHL1   C19 1890   2.099   1.261   5.689 -0.2171  0.3503 -0.1280
   26CHL1  H19A 1891   2.140   1.347   5.633  1.6130 -1.1440 -1.1743
   26CHL1  H19B 1892   1.992   1.251   5.661 -0.4206  0.2915  0.6254
   26CHL1  H19C 1893   2.093   1.287   5.797  0.4471  0.2778 -0.0736
   26CHL1    C1 1894   2.115   1.005   5.755  0.5823  0.2922 -0.4641
   26CHL1   H1A 1895   2.008   0.988   5.731  0.7038 -2.6622  0.5767
   26CHL1   H1B 1896   2.169   0.910   5.733 -1.1704 -0.9241  0.2074
   26CHL1    C2 1897   2.092   1.031   5.907 -0.2737  0.9569 -0.2388
   26CHL1   H2A 1898   2.071   0.934   5.957  0.9846  0.9389  0.2831
   26CHL1   H2B 1899   2.026   1.119   5.920  2.5174  2.8871  1.9318
   26CHL1   C20 1900   2.174   1.122   4.962 -0.6831 -0.4051  1.0921
   26CHL1   H20 1901   2.153   1.231   4.954  1.2464  0.0830  2.1045
   26CHL1   C21 1902   2.036   1.056   4.962  0.0329  0.0911  0.5362
   26CHL1  H21A 1903   1.971   1.090   5.046 -0.8547  0.2307 -0.1998
   26CHL1  H21B 1904   2.037   0.945   4.964 -0.8427  0.0718  0.2138
   26CHL1  H21C 1905   1.975   1.075   4.871  1.7477  1.3993 -0.4146
   26CHL1   C22 1906   2.254   1.077   4.836 -0.1261  0.8370  0.5157
   26CHL1  H22A 1907   2.355   1.123   4.834  0.7909 -1.0681  1.1170
   26CHL1  H22B 1908   2.268   0.969   4.854 -1.8794  0.9036  2.7527
   26CHL1   C23 1909   2.188   1.101   4.699  0.3931  0.3753 -0.1507
   26CHL1  H23A 1910   2.264   1.076   4.621  2.7583  0.2161  2.0706
   26CHL1  H23B 1911   2.107   1.025   4.696  0.2212  0.3717  2.6586
   26CHL1   C24 1912   2.152   1.249   4.671 -0.2775  0.1143  0.2529
   26CHL1  H24A 1913   2.075   1.275   4.746 -0.1292  1.1441  0.0592
   26CHL1  H24B 1914   2.229   1.329   4.685 -0.4324  0.2485  0.3350
   26CHL1   C25 1915   2.091   1.257   4.528 -0.5019 -0.3429  0.9544
   26CHL1   H25 1916   2.000   1.195   4.516  0.2097 -1.0887 -1.0506
   26CHL1   C26 1917   2.049   1.404   4.508 -0.0476  0.6795  0.0237
   26CHL1  H26A 1918   1.995   1.418   4.412  0.0129  1.7126  0.1287
   26CHL1  H26B 1919   1.986   1.432   4.596 -0.2989  1.2740 -0.3389
   26CHL1  H26C 1920   2.137   1.472   4.516 -0.2328  0.7659  1.7353
   26CHL1   C27 1921   2.192   1.217   4.415 -0.1457 -0.4194  0.6418
   26CHL1  H27A 1922   2.145   1.230   4.316  1.6205  0.6053 -0.1024
   26CHL1  H27B 1923   2.280   1.284   4.422 -0.0572 -0.5496  0.8031
   26CHL1  H27C 1924   2.233   1.114   4.425 -1.7294 -1.0925  0.5156
   27CHL1    C3 1925   6.714   5.664   6.234 -0.5761 -0.0210  0.3265
   27CHL1    H3 1926   6.819   5.641   6.207 -0.4094 -0.5191  1.3308
   27CHL1    O3 1927   6.726   5.664   6.373 -0.8788  0.9946 -0.6599
   27CHL1   H3' 1928   6.774   5.745   6.391 -0.3085  0.4501  0.3170
   27CHL1    C4 1929   6.679   5.802   6.181 -0.0030 -0.3408 -0.2580
   27CHL1   H4A 1930   6.573   5.827   6.204  0.3531  1.9917 -0.9266
   27CHL1   H4B 1931   6.742   5.876   6.235 -1.5587 -0.2101  1.4961
   27CHL1    C5 1932   6.695   5.810   6.034 -0.1826  0.6339  0.1189
   27CHL1    C6 1933   6.785   5.898   5.974  0.7631 -0.4790 -0.3027
   27CHL1    H6 1934   6.846   5.970   6.031  0.5970 -0.2386 -0.4243
   27CHL1    C7 1935   6.806   5.913   5.821 -0.5926  1.1278  0.4985
   27CHL1   H7A 1936   6.810   6.018   5.786  0.2281  0.8876 -0.1442
   27CHL1   H7B 1937   6.906   5.876   5.789 -0.8668 -0.1046  1.0107
   27CHL1    C8 1938   6.705   5.828   5.739 -0.1852  0.4653  0.3472
   27CHL1    H8 1939   6.614   5.892   5.737  0.1503  0.9322 -0.3437
   27CHL1   C14 1940   6.745   5.807   5.593  0.2993  1.0243 -0.2247
   27CHL1   H14 1941   6.839   5.749   5.606  0.3489  1.3310  0.9878
   27CHL1   C15 1942   6.792   5.927   5.514  0.4540 -0.8262  0.7285
   27CHL1  H15A 1943   6.714   6.005   5.506  1.5036  0.0287 -2.4843
   27CHL1  H15B 1944   6.884   5.982   5.545 -0.5001  0.4354  1.4289
   27CHL1   C16 1945   6.798   5.861   5.377  0.1520 -1.3236 -0.2446
   27CHL1  H16A 1946   6.734   5.914   5.303  2.4532  1.4090 -0.4375
   27CHL1  H16B 1947   6.902   5.859   5.338  0.5168 -1.3616  0.7018
   27CHL1   C17 1948   6.740   5.712   5.377 -0.0415 -0.1132 -0.6360
   27CHL1   H17 1949   6.827   5.650   5.409 -1.4586 -1.2575  1.2324
   27CHL1   C13 1950   6.655   5.719   5.507  0.6357 -0.2172 -0.1782
   27CHL1   C18 1951   6.526   5.800   5.492 -0.6769  0.4028  0.4444
   27CHL1  H18A 1952   6.462   5.751   5.417 -1.6919  1.0865  0.8496
   27CHL1  H18B 1953   6.462   5.820   5.581 -1.2199 -2.5825  0.8022
   27CHL1  H18C 1954   6.546   5.901   5.450  1.0955 -0.0364  0.1254
   27CHL1   C12 1955   6.637   5.584   5.579 -0.1268 -0.0420 -0.3133
   27CHL1  H12A 1956   6.569   5.514   5.526  0.4567 -1.3089  0.5690
   27CHL1  H12B 1957   6.740   5.550   5.603 -0.1403  0.8411  1.0724
   27CHL1   C11 1958   6.574   5.611   5.718  0.0118  0.0829  0.8257
   27CHL1  H11A 1959   6.474   5.653   5.694  0.6150  0.8032 -0.5136
   27CHL1  H11B 1960   6.557   5.510   5.763  1.6541 -0.0079  1.2794
   27CHL1    C9 1961   6.670   5.696   5.806 -0.5199  0.5137 -0.6109
   27CHL1    H9 1962   6.767   5.643   5.800 -0.5089 -0.6513  4.6176
   27CHL1   C10 1963   6.618   5.702   5.955 -1.0798 -0.1198 -0.4700
   27CHL1   C19 1964   6.470   5.728   5.964  0.1339 -0.4511  0.4780
   27CHL1  H19A 1965   6.438   5.819   5.909  2.0507 -0.3810 -0.5794
   27CHL1  H19B 1966   6.428   5.631   5.929  1.5437 -1.5073  1.6059
   27CHL1  H19C 1967   6.424   5.739   6.065 -0.4201  2.4207  0.0083
   27CHL1    C1 1968   6.652   5.564   6.020  0.2688  0.2170 -0.0897
   27CHL1   H1A 1969   6.604   5.479   5.968  1.7856  0.3123 -1.7743
   27CHL1   H1B 1970   6.763   5.553   6.010  0.3471 -2.0487  2.2712
   27CHL1    C2 1971   6.635   5.553   6.172  0.0538 -0.0257 -0.1390
   27CHL1   H2A 1972   6.676   5.453   6.196 -0.7708 -0.7182 -1.4879
   27CHL1   H2B 1973   6.528   5.546   6.203  0.2262 -0.6420  0.3170
   27CHL1   C20 1974   6.692   5.659   5.240 -0.0746 -0.8070 -0.2445
   27CHL1   H20 1975   6.592   5.703   5.217  0.8507  2.0712  0.8399
   27CHL1   C21 1976   6.683   5.509   5.233 -0.6275 -0.4755  0.2645
   27CHL1  H21A 1977   6.643   5.479   5.332 -0.9779 -2.6380 -0.4689
   27CHL1  H21B 1978   6.785   5.466   5.224  0.1628  1.1244  1.2815
   27CHL1  H21C 1979   6.607   5.472   5.160 -3.6272 -1.5711  3.6533
   27CHL1   C22 1980   6.787   5.701   5.122 -0.0294  0.1632  0.4830
   27CHL1  H22A 1981   6.773   5.811   5.108  1.7369  0.3592  0.0156
   27CHL1  H22B 1982   6.889   5.683   5.161  0.8783  1.6760 -1.0406
   27CHL1   C23 1983   6.767   5.632   4.985 -0.9191 -0.4195  0.0561
   27CHL1  H23A 1984   6.797   5.525   4.984 -0.4332 -0.2903 -1.1061
   27CHL1  H23B 1985   6.659   5.639   4.958 -0.9260 -1.2300 -0.1465
   27CHL1   C24 1986   6.867   5.692   4.883  0.6669 -0.2680  0.7279
   27CHL1  H24A 1987   6.832   5.797   4.873  0.0611 -0.6768 -2.7023
   27CHL1  H24B 1988   6.968   5.681   4.927  0.3186 -1.1810  1.3359
   27CHL1   C25 1989   6.862   5.633   4.733  0.3691 -0.6698 -1.1696
   27CHL1   H25 1990   6.871   5.524   4.747 -0.9312 -0.7026 -0.4965
   27CHL1   C26 1991   6.729   5.661   4.666 -0.6521 -0.1823  0.0965
   27CHL1  H26A 1992   6.640   5.614   4.714 -1.5399  1.9392  0.6393
   27CHL1  H26B 1993   6.707   5.770   4.666  0.6059  0.0857 -0.1339
   27CHL1  H26C 1994   6.743   5.623   4.563  1.0311 -0.1165  0.2810
   27CHL1   C27 1995   6.973   5.693   4.648 -0.2293  0.5987 -0.4606
   27CHL1  H27A 1996   7.076   5.655   4.667 -1.3305 -3.4647 -1.5592
   27CHL1  H27B 1997   6.943   5.687   4.542  0.6173 -1.5849 -0.6382
   27CHL1  H27C 1998   6.980   5.802   4.666  1.5509  0.3940  0.2619
   28CHL1    C3 1999   4.398   6.753   6.253  0.3474 -0.2636  0.5845
   28CHL1    H3 2000   4.294   6.792   6.255 -0.0134 -1.1346 -0.3757
   28CHL1    O3 2001   4.457   6.752   6.380  0.1802  0.2097  0.5463
   28CHL1   H3' 2002   4.543   6.710   6.372  1.2178  2.1869  0.7100
   28CHL1    C4 2003   4.396   6.611   6.181 -0.0689 -0.8443  0.0632
   28CHL1   H4A 2004   4.498   6.567   6.192  0.2262 -1.1268 -2.8534
   28CHL1   H4B 2005   4.313   6.566   6.238 -0.0199 -2.5391 -1.1328
   28CHL1    C5 2006   4.363   6.616   6.032  0.6668 -0.9411 -0.5111
   28CHL1    C6 2007   4.256   6.550   5.985  0.7153  0.4227 -0.0226
   28CHL1    H6 2008   4.198   6.489   6.056 -0.4758  0.6931 -0.7460
   28CHL1    C7 2009   4.212   6.553   5.843  0.7608  0.1361 -0.6575
   28CHL1   H7A 2010   4.186   6.447   5.823  0.9170 -0.4153  1.7473
   28CHL1   H7B 2011   4.113   6.604   5.841  1.0776  0.8408  0.5907
   28CHL1    C8 2012   4.313   6.612   5.744 -0.2766  0.4068 -0.6902
   28CHL1    H8 2013   4.398   6.541   5.739 -2.2695 -2.2422  0.5184
   28CHL1   C14 2014   4.250   6.638   5.608 -0.0421  0.1453  0.9352
   28CHL1   H14 2015   4.162   6.705   5.616 -1.6154 -1.6248 -0.5230
   28CHL1   C15 2016   4.187   6.518   5.542  0.1621  0.6132  0.0256
   28CHL1  H15A 2017   4.252   6.428   5.533  0.7560  0.8388  1.6810
   28CHL1  H15B 2018   4.096   6.479   5.592 -1.3864  0.0962 -2.9644
   28CHL1   C16 2019   4.168   6.566   5.392  0.1379  0.1306 -0.3672
   28CHL1  H16A 2020   4.191   6.488   5.317 -0.1690  0.5463 -0.8969
   28CHL1  H16B 2021   4.066   6.606   5.373  0.2818 -0.0169 -1.4714
   28CHL1   C17 2022   4.252   6.700   5.376 -0.0162  0.4456 -0.7527
   28CHL1   H17 2023   4.185   6.788   5.382 -1.5643 -0.6973 -0.9201
   28CHL1   C13 2024   4.339   6.701   5.499 -0.7933 -0.0060 -0.6459
   28CHL1   C18 2025   4.457   6.605   5.462 -0.4249  0.3144  0.7144
   28CHL1  H18A 2026   4.429   6.502   5.429 -0.8779  0.5261  0.4208
   28CHL1  H18B 2027   4.521   6.653   5.385 -1.1288 -0.0654 -0.1375
   28CHL1  H18C 2028   4.506   6.582   5.559 -1.7772  1.8841  1.8223
   28CHL1   C12 2029   4.387   6.834   5.571  0.1383  0.3319  0.1033
   28CHL1  H12A 2030   4.459   6.888   5.505 -0.5659  1.8296  0.5120
   28CHL1  H12B 2031   4.297   6.899   5.581 -0.0294  0.0386  0.5143
   28CHL1   C11 2032   4.449   6.815   5.701  0.2153 -0.4965 -0.6401
   28CHL1  H11A 2033   4.539   6.753   5.679 -1.3423 -2.2616 -2.2941
   28CHL1  H11B 2034   4.467   6.918   5.741  0.6728 -0.4166 -1.0387
   28CHL1    C9 2035   4.362   6.738   5.807 -0.1995 -0.3833  0.4043
   28CHL1    H9 2036   4.270   6.797   5.828 -0.4980 -0.9198  0.6088
   28CHL1   C10 2037   4.428   6.720   5.942  0.5376  0.1844 -0.0545
   28CHL1   C19 2038   4.572   6.666   5.918  0.0829 -0.7803 -0.2658
   28CHL1  H19A 2039   4.627   6.646   6.013  1.4310  1.6543 -0.4453
   28CHL1  H19B 2040   4.577   6.578   5.850  2.6669 -0.4644 -0.5517
   28CHL1  H19C 2041   4.636   6.744   5.872  1.1478  0.4504  2.9709
   28CHL1    C1 2042   4.434   6.850   6.026 -0.1875 -0.4982  0.2390
   28CHL1   H1A 2043   4.488   6.932   5.975 -0.5931 -0.2078  0.2690
   28CHL1   H1B 2044   4.330   6.890   6.030  0.3254  1.1769 -1.5242
   28CHL1    C2 2045   4.481   6.843   6.166 -0.6849 -0.1843 -0.7497
   28CHL1   H2A 2046   4.474   6.939   6.221  0.6089  0.3615 -1.4923
   28CHL1   H2B 2047   4.592   6.831   6.160 -0.2620  1.8060  1.4483
   28CHL1   C20 2048   4.310   6.724   5.237  0.1699 -0.0287 -0.0271
   28CHL1   H20 2049   4.393   6.653   5.217  0.9761  0.1957  2.1541
   28CHL1   C21 2050   4.353   6.869   5.218 -0.5614  0.3065 -0.0048
   28CHL1  H21A 2051   4.267   6.933   5.190 -1.0276 -0.5393 -0.5796
   28CHL1  H21B 2052   4.429   6.874   5.136  0.0223  1.0729  0.5747
   28CHL1  H21C 2053   4.401   6.918   5.305  1.3345 -1.1021 -0.1730
   28CHL1   C22 2054   4.201   6.687   5.120 -0.4498 -0.2925 -0.3416
   28CHL1  H22A 2055   4.171   6.580   5.124 -2.3375  0.1820 -0.7246
   28CHL1  H22B 2056   4.111   6.751   5.132 -1.1159 -1.4348  1.1254
   28CHL1   C23 2057   4.251   6.716   4.975 -0.6635  0.3624 -0.6653
   28CHL1  H23A 2058   4.281   6.822   4.965 -0.3256  0.2210 -1.1880
   28CHL1  H23B 2059   4.341   6.651   4.966  0.2891  1.4634  0.5069
   28CHL1   C24 2060   4.142   6.670   4.869  0.8574  0.2092 -0.6621
   28CHL1  H24A 2061   4.123   6.561   4.879  0.0082  0.3843 -0.2777
   28CHL1  H24B 2062   4.041   6.707   4.898  0.5672  0.9808 -2.4914
   28CHL1   C25 2063   4.167   6.724   4.735  0.6997 -0.1143  0.4567
   28CHL1   H25 2064   4.269   6.695   4.702 -0.1659 -3.2729  0.1974
   28CHL1   C26 2065   4.062   6.667   4.631  0.4720  0.2261 -1.0911
   28CHL1  H26A 2066   4.019   6.573   4.670 -1.4135  1.3379 -0.3680
   28CHL1  H26B 2067   3.983   6.745   4.627 -0.4199 -0.5990 -0.0263
   28CHL1  H26C 2068   4.108   6.651   4.531  0.0251 -1.2993 -1.0718
   28CHL1   C27 2069   4.172   6.885   4.735  1.0076 -0.2574 -0.3600
   28CHL1  H27A 2070   4.253   6.925   4.800 -0.2169 -0.9354  1.6850
   28CHL1  H27B 2071   4.181   6.923   4.631  0.1185  0.5061 -0.1703
   28CHL1  H27C 2072   4.076   6.924   4.774  0.9782 -0.9662  0.2907
   29CHL1    C3 2073   1.123   4.865   3.043 -0.1400  0.5959 -0.0734
   29CHL1    H3 2074   1.030   4.925   3.053 -1.5908 -0.7618 -3.6418
   29CHL1    O3 2075   1.169   4.865   2.903  0.5342  0.0589 -0.0582
   29CHL1   H3' 2076   1.215   4.782   2.890 -0.8211 -0.8596  0.7884
   29CHL1    C4 2077   1.239   4.914   3.140  0.2211 -0.7750  0.1801
   29CHL1   H4A 2078   1.332   4.861   3.113  0.6330 -0.4269  0.8944
   29CHL1   H4B 2079   1.267   5.019   3.115 -0.2747 -0.9622 -1.3021
   29CHL1    C5 2080   1.212   4.889   3.289 -0.1028  0.2906 -0.1275
   29CHL1    C6 2081   1.210   4.993   3.370  0.2075  0.3595  0.0752
   29CHL1    H6 2082   1.236   5.091   3.326 -0.1197  0.8149  0.8773
   29CHL1    C7 2083   1.205   4.985   3.524  0.7404  0.0567  0.6791
   29CHL1   H7A 2084   1.282   5.051   3.567  0.9234 -1.1304  2.2750
   29CHL1   H7B 2085   1.106   5.023   3.557  0.9800  2.3697 -1.0388
   29CHL1    C8 2086   1.219   4.830   3.572  0.5065 -0.1995  0.1417
   29CHL1    H8 2087   1.326   4.799   3.566  0.7228 -0.0192  2.3040
   29CHL1   C14 2088   1.180   4.822   3.715 -0.3153  0.2503 -0.3250
   29CHL1   H14 2089   1.078   4.865   3.717 -0.0983  0.7688 -0.0912
   29CHL1   C15 2090   1.254   4.902   3.820 -0.0921 -0.5105 -0.0133
   29CHL1  H15A 2091   1.364   4.893   3.806  0.0286 -0.2701  0.7183
   29CHL1  H15B 2092   1.234   5.011   3.827 -0.0642 -0.5045 -0.0280
   29CHL1   C16 2093   1.198   4.844   3.950 -0.2643 -0.6274  0.4888
   29CHL1  H16A 2094   1.286   4.808   4.008 -0.4403 -1.2806  0.3566
   29CHL1  H16B 2095   1.152   4.921   4.015  1.6927  0.4673  0.6794
   29CHL1   C17 2096   1.116   4.724   3.911  0.1967  0.2021 -0.7478
   29CHL1   H17 2097   1.018   4.772   3.892  0.2033  1.3560  1.7805
   29CHL1   C13 2098   1.163   4.681   3.774 -0.4863  0.3763 -0.3096
   29CHL1   C18 2099   1.305   4.602   3.777 -0.2261  0.1497 -0.5455
   29CHL1  H18A 2100   1.385   4.671   3.813 -1.7455  0.1688  3.2506
   29CHL1  H18B 2101   1.312   4.515   3.847  0.8047 -0.0066 -0.8204
   29CHL1  H18C 2102   1.321   4.574   3.671 -1.2550 -0.9349 -0.4388
   29CHL1   C12 2103   1.060   4.604   3.688 -0.5689  0.1145 -0.7231
   29CHL1  H12A 2104   1.073   4.500   3.724  0.1530  0.2812 -0.4819
   29CHL1  H12B 2105   0.958   4.645   3.708 -0.6913  1.0151 -2.9226
   29CHL1   C11 2106   1.091   4.607   3.540  0.3940  0.5101 -0.3402
   29CHL1  H11A 2107   1.175   4.540   3.513  0.4186  1.0153 -1.5735
   29CHL1  H11B 2108   0.998   4.577   3.487 -0.2545  0.0623  1.0004
   29CHL1    C9 2109   1.130   4.749   3.485  0.2757  0.6490 -0.1743
   29CHL1    H9 2110   1.037   4.809   3.488  0.9010  1.5870  1.4754
   29CHL1   C10 2111   1.173   4.752   3.332 -0.2496 -0.2086 -0.2159
   29CHL1   C19 2112   1.303   4.663   3.317  0.6094 -0.3509  0.4856
   29CHL1  H19A 2113   1.363   4.673   3.224  0.6280  1.2868  0.6384
   29CHL1  H19B 2114   1.368   4.672   3.407 -1.0971 -2.2678  2.0121
   29CHL1  H19C 2115   1.273   4.556   3.320  3.0227 -1.1726 -1.2974
   29CHL1    C1 2116   1.061   4.703   3.230  0.2319 -0.2966  0.1545
   29CHL1   H1A 2117   1.027   4.604   3.265 -1.0683  0.1356  0.1543
   29CHL1   H1B 2118   0.973   4.769   3.245 -0.0746  0.0203 -2.5666
   29CHL1    C2 2119   1.085   4.719   3.077  0.7682 -0.5863  0.5188
   29CHL1   H2A 2120   1.007   4.684   3.006  0.1007  0.7805  0.5374
   29CHL1   H2B 2121   1.170   4.656   3.045 -0.7841 -3.0190  0.8942
   29CHL1   C20 2122   1.099   4.629   4.031  0.3986  0.0152 -1.2552
   29CHL1   H20 2123   1.195   4.580   4.058  0.5062 -0.0668 -1.7810
   29CHL1   C21 2124   1.004   4.509   3.991  0.0407 -0.5460  0.2995
   29CHL1  H21A 2125   0.936   4.544   3.910 -0.8186 -1.8461  0.4200
   29CHL1  H21B 2126   0.938   4.489   4.079  0.2634 -0.9811  0.3737
   29CHL1  H21C 2127   1.049   4.410   3.970 -1.9951 -1.4200 -0.2321
   29CHL1   C22 2128   1.035   4.700   4.159  0.1616 -0.4788 -0.2063
   29CHL1  H22A 2129   1.082   4.799   4.176  3.5266 -1.5749 -2.0574
   29CHL1  H22B 2130   0.926   4.717   4.147  0.1977  0.7472  1.0234
   29CHL1   C23 2131   1.044   4.613   4.291 -0.5217  0.3793  0.3201
   29CHL1  H23A 2132   0.983   4.522   4.270 -1.5249  1.2466 -0.7415
   29CHL1  H23B 2133   1.151   4.607   4.320 -0.6035  1.1555  0.8270
   29CHL1   C24 2134   0.969   4.686   4.397 -0.0643 -0.1233 -0.0256
   29CHL1  H24A 2135   1.024   4.782   4.410 -0.5649  0.0546  0.8041
   29CHL1  H24B 2136   0.863   4.714   4.379  0.2896  1.4151  0.1274
   29CHL1   C25 2137   0.969   4.606   4.528 -0.3712 -0.5861  0.3813
   29CHL1   H25 2138   0.912   4.512   4.515 -0.9590 -0.0887 -0.6835
   29CHL1   C26 2139   1.110   4.581   4.588  0.1413 -0.2095  0.6425
   29CHL1  H26A 2140   1.169   4.675   4.603  1.2141 -0.5449 -1.1681
   29CHL1  H26B 2141   1.087   4.538   4.688 -4.3450 -1.5933 -0.7662
   29CHL1  H26C 2142   1.162   4.518   4.514 -2.2484 -0.6329 -0.7829
   29CHL1   C27 2143   0.890   4.674   4.644 -0.1798 -0.1366  0.0822
   29CHL1  H27A 2144   0.875   4.618   4.739 -0.3570  0.0496  0.1641
   29CHL1  H27B 2145   0.929   4.774   4.670 -0.4703  0.5391 -1.9012
   29CHL1  H27C 2146   0.788   4.688   4.602  0.3166 -0.0843 -1.1631
   30CHL1    C3 2147   0.388   5.455   3.066 -0.5012 -0.4437 -0.0880
   30CHL1    H3 2148   0.281   5.476   3.084 -0.5677 -0.9693  0.1212
   30CHL1    O3 2149   0.414   5.483   2.932  0.1469 -0.2101  0.1781
   30CHL1   H3' 2150   0.494   5.538   2.932 -0.1596  0.2997  2.1326
   30CHL1    C4 2151   0.478   5.549   3.159 -0.2910  0.0033 -0.2812
   30CHL1   H4A 2152   0.587   5.530   3.153 -0.4433 -0.5413 -2.3225
   30CHL1   H4B 2153   0.458   5.651   3.121  1.2523 -0.7531 -3.4912
   30CHL1    C5 2154   0.417   5.526   3.298 -0.2023 -1.1457 -0.8606
   30CHL1    C6 2155   0.376   5.626   3.373 -0.5265 -0.4148 -0.0239
   30CHL1    H6 2156   0.376   5.727   3.329 -0.8240 -0.5264 -0.2835
   30CHL1    C7 2157   0.322   5.618   3.512 -0.3376  0.1995 -0.2186
   30CHL1   H7A 2158   0.373   5.696   3.574  1.4278  0.1415 -1.5168
   30CHL1   H7B 2159   0.211   5.629   3.512 -0.5936 -1.8576  1.0641
   30CHL1    C8 2160   0.351   5.479   3.580 -0.7205 -0.3386  0.5818
   30CHL1    H8 2161   0.457   5.485   3.610 -0.4148  2.2192 -0.7326
   30CHL1   C14 2162   0.265   5.448   3.701  0.0504 -0.2976  0.3851
   30CHL1   H14 2163   0.160   5.441   3.665  0.3595 -2.5462 -0.2705
   30CHL1   C15 2164   0.271   5.555   3.808 -0.0512 -0.2933  0.3045
   30CHL1  H15A 2165   0.377   5.585   3.820  0.4985 -1.0782 -2.1253
   30CHL1  H15B 2166   0.202   5.639   3.785 -0.9742 -0.3705  2.5549
   30CHL1   C16 2167   0.227   5.479   3.930  0.0737 -0.4608  0.0796
   30CHL1  H16A 2168   0.315   5.495   3.997 -0.8909  1.7480  0.9108
   30CHL1  H16B 2169   0.156   5.542   3.987  1.3666  0.8078  0.3622
   30CHL1   C17 2170   0.194   5.336   3.886  0.4648 -0.6490 -0.7073
   30CHL1   H17 2171   0.089   5.337   3.848  1.0619  0.0573 -2.4073
   30CHL1   C13 2172   0.280   5.314   3.766 -0.4308 -0.2028 -0.8204
   30CHL1   C18 2173   0.426   5.289   3.810  0.3806 -0.5992  0.4381
   30CHL1  H18A 2174   0.469   5.360   3.885 -0.5795 -0.0762  0.5157
   30CHL1  H18B 2175   0.435   5.192   3.863  0.0184 -1.0925 -0.3964
   30CHL1  H18C 2176   0.499   5.303   3.727 -0.1125 -2.7094 -0.4116
   30CHL1   C12 2177   0.241   5.205   3.660 -0.3721  0.0150  0.7850
   30CHL1  H12A 2178   0.235   5.098   3.689 -0.3972  0.1883  1.4516
   30CHL1  H12B 2179   0.134   5.228   3.639 -0.7803 -0.9485  1.6885
   30CHL1   C11 2180   0.319   5.216   3.532 -0.3091 -0.1888 -0.0061
   30CHL1  H11A 2181   0.427   5.189   3.538  0.6312  2.8996 -1.0296
   30CHL1  H11B 2182   0.280   5.155   3.449 -0.8787 -0.6669  0.6004
   30CHL1    C9 2183   0.330   5.367   3.479  0.2622 -0.2158 -0.0724
   30CHL1    H9 2184   0.230   5.382   3.434  0.3505 -2.5653 -1.1612
   30CHL1   C10 2185   0.418   5.382   3.350 -0.5139 -0.0257  0.0997
   30CHL1   C19 2186   0.568   5.345   3.392 -0.4926  0.2489 -0.0167
   30CHL1  H19A 2187   0.579   5.358   3.501  0.6959  0.8269 -0.1826
   30CHL1  H19B 2188   0.587   5.241   3.357  2.4086  0.3635  0.9608
   30CHL1  H19C 2189   0.645   5.408   3.342  0.3684  0.4915  1.5589
   30CHL1    C1 2190   0.365   5.284   3.245  0.0279  0.1541 -0.8087
   30CHL1   H1A 2191   0.400   5.180   3.265  0.3040 -0.2034 -2.9315
   30CHL1   H1B 2192   0.254   5.288   3.241  0.0139 -0.2787 -0.8968
   30CHL1    C2 2193   0.417   5.308   3.103  0.2279 -0.3540 -0.0094
   30CHL1   H2A 2194   0.360   5.243   3.033 -1.0996  0.4525  0.2956
   30CHL1   H2B 2195   0.527   5.297   3.092  0.1708  0.2584 -1.5144
   30CHL1   C20 2196   0.194   5.244   4.009 -0.2617 -0.0967  0.0442
   30CHL1   H20 2197   0.296   5.252   4.053 -0.3427 -0.1143  0.2376
   30CHL1   C21 2198   0.165   5.101   3.959 -0.4950 -1.0199 -0.0932
   30CHL1  H21A 2199   0.086   5.113   3.882  1.4546  0.4358 -1.9662
   30CHL1  H21B 2200   0.130   5.029   4.036 -0.6082  0.8937  1.7493
   30CHL1  H21C 2201   0.257   5.065   3.909  0.6094  1.1414  0.2341
   30CHL1   C22 2202   0.089   5.284   4.123 -0.0866  0.6041  1.0301
   30CHL1  H22A 2203   0.086   5.394   4.136  1.6803  1.0068 -1.3579
   30CHL1  H22B 2204  -0.007   5.244   4.082  1.4181  0.8824 -3.2123
   30CHL1   C23 2205   0.112   5.220   4.251 -0.5703  0.1009  0.0318
   30CHL1  H23A 2206   0.114   5.110   4.240 -0.1359  0.0073  0.9556
   30CHL1  H23B 2207   0.208   5.251   4.298  0.8195 -2.5135 -0.8974
   30CHL1   C24 2208  -0.010   5.235   4.345 -0.4704 -0.5639  0.9332
   30CHL1  H24A 2209  -0.013   5.343   4.372  0.1288  0.0584 -1.3271
   30CHL1  H24B 2210  -0.106   5.218   4.292 -0.2062  0.1893  0.2083
   30CHL1   C25 2211   0.004   5.157   4.471 -0.2728  0.1028 -0.4935
   30CHL1   H25 2212   0.022   5.051   4.441 -0.2565  0.0078 -0.1542
   30CHL1   C26 2213   0.125   5.204   4.551  0.0676  0.2175 -0.0165
   30CHL1  H26A 2214   0.138   5.159   4.652  0.8904 -0.2597 -0.3229
   30CHL1  H26B 2215   0.220   5.192   4.494 -1.6530 -1.5237 -2.7582
   30CHL1  H26C 2216   0.133   5.314   4.560 -1.8067  0.4396 -0.6730
   30CHL1   C27 2217  -0.127   5.166   4.552 -0.6379  0.2116  1.1006
   30CHL1  H27A 2218  -0.206   5.115   4.493  0.2641  2.5621 -2.4266
   30CHL1  H27B 2219  -0.116   5.110   4.647  2.3121  0.4114  0.9751
   30CHL1  H27C 2220  -0.142   5.275   4.570 -1.2134  0.2794  0.2624
   31CHL1    C3 2221   1.591   5.968   2.571 -0.1649 -0.5489  0.1225
   31CHL1    H3 2222   1.649   6.063   2.573  2.0536 -1.8379 -0.1225
   31CHL1    O3 2223   1.556   5.948   2.439 -0.1427  0.5003  0.6429
   31CHL1   H3' 2224   1.565   5.852   2.435  2.2397  0.6422  1.2210
   31CHL1    C4 2225   1.684   5.862   2.626 -0.1297  0.6799 -0.0591
   31CHL1   H4A 2226   1.635   5.765   2.604  0.8686  0.0984  0.2523
   31CHL1   H4B 2227   1.780   5.866   2.571 -0.7246  0.0573 -1.1864
   31CHL1    C5 2228   1.715   5.869   2.775 -0.3312  0.2262 -0.1198
   31CHL1    C6 2229   1.843   5.859   2.821 -0.2210  0.5239  0.5043
   31CHL1    H6 2230   1.926   5.860   2.749 -1.4810  3.0944 -1.0646
   31CHL1    C7 2231   1.875   5.868   2.969  0.2147 -0.2941  0.1451
   31CHL1   H7A 2232   1.945   5.787   2.998  0.0402 -1.1039 -1.5581
   31CHL1   H7B 2233   1.933   5.962   2.975 -1.5127  0.7393  1.3465
   31CHL1    C8 2234   1.756   5.866   3.071  0.7508 -1.1463  0.7944
   31CHL1    H8 2235   1.723   5.761   3.082  1.5539 -1.8228 -2.2316
   31CHL1   C14 2236   1.799   5.926   3.202 -0.1613  0.3182 -0.1826
   31CHL1   H14 2237   1.833   6.028   3.175 -1.3443  1.1199  1.2621
   31CHL1   C15 2238   1.913   5.850   3.276  0.0615 -0.4331  0.5225
   31CHL1  H15A 2239   1.904   5.740   3.260  1.5939 -0.5847  0.4925
   31CHL1  H15B 2240   2.013   5.875   3.235 -0.3352  2.4523  1.1320
   31CHL1   C16 2241   1.907   5.892   3.423 -0.4911  0.5129 -1.0555
   31CHL1  H16A 2242   1.881   5.801   3.482  1.0556 -0.0362 -1.1618
   31CHL1  H16B 2243   2.003   5.935   3.458 -0.3879 -1.5444  1.4921
   31CHL1   C17 2244   1.788   5.981   3.420 -0.0847 -0.0813  0.0261
   31CHL1   H17 2245   1.832   6.073   3.377  1.6543 -0.6966  0.3752
   31CHL1   C13 2246   1.689   5.938   3.306 -0.4832 -0.4507 -0.7575
   31CHL1   C18 2247   1.619   5.805   3.350 -0.5084  0.2045 -0.5193
   31CHL1  H18A 2248   1.530   5.818   3.416 -1.9534  1.3291 -2.5553
   31CHL1  H18B 2249   1.574   5.751   3.264 -3.6529 -2.1630  2.3165
   31CHL1  H18C 2250   1.691   5.731   3.391  0.7772  1.0797 -1.1769
   31CHL1   C12 2251   1.581   6.040   3.254 -0.7951  0.5162 -0.3860
   31CHL1  H12A 2252   1.482   6.045   3.304 -0.2714  2.5941  0.5373
   31CHL1  H12B 2253   1.619   6.144   3.244 -1.2536  0.5038 -2.9152
   31CHL1   C11 2254   1.537   6.000   3.112  0.4209 -0.4075 -0.1367
   31CHL1  H11A 2255   1.465   5.916   3.120 -0.3600  0.0426 -2.0493
   31CHL1  H11B 2256   1.478   6.087   3.077 -1.0289 -1.7214 -1.0685
   31CHL1    C9 2257   1.645   5.956   3.007  0.5439 -0.4406  0.2643
   31CHL1    H9 2258   1.686   6.056   2.981 -1.7298  0.5370  0.1856
   31CHL1   C10 2259   1.598   5.909   2.867 -0.8522 -0.4074  0.6765
   31CHL1   C19 2260   1.512   5.781   2.883  0.4522  0.2072  0.4215
   31CHL1  H19A 2261   1.462   5.764   2.785  0.1354 -1.1082  0.7984
   31CHL1  H19B 2262   1.569   5.694   2.921  0.0820 -0.5261 -0.6400
   31CHL1  H19C 2263   1.434   5.803   2.959 -0.0904  0.8427 -0.2866
   31CHL1    C1 2264   1.512   6.031   2.794  0.7358 -0.0543 -0.2330
   31CHL1   H1A 2265   1.427   6.050   2.863  0.6748  1.1710 -0.6323
   31CHL1   H1B 2266   1.579   6.119   2.806  1.9330 -0.8732 -0.7105
   31CHL1    C2 2267   1.466   5.989   2.661 -0.4258 -0.0269  0.6392
   31CHL1   H2A 2268   1.412   6.073   2.611 -0.5290 -0.5610 -0.1773
   31CHL1   H2B 2269   1.398   5.901   2.655  0.8827 -1.0746  0.7401
   31CHL1   C20 2270   1.723   6.000   3.556  0.8018 -0.7718 -0.0971
   31CHL1   H20 2271   1.666   5.908   3.581  2.0812 -1.0080  2.2204
   31CHL1   C21 2272   1.627   6.122   3.564  0.1660  0.2956  0.1296
   31CHL1  H21A 2273   1.579   6.138   3.663  1.2007  0.5177  0.6061
   31CHL1  H21B 2274   1.542   6.113   3.494 -0.8797 -1.1513  1.4985
   31CHL1  H21C 2275   1.689   6.213   3.549  0.5211 -0.1435 -1.1473
   31CHL1   C22 2276   1.824   6.017   3.674  0.0031  0.1251  0.2615
   31CHL1  H22A 2277   1.900   5.936   3.670  0.9648  1.0374 -1.1837
   31CHL1  H22B 2278   1.880   6.105   3.635  0.2808 -0.2809 -0.2680
   31CHL1   C23 2279   1.792   6.032   3.822  0.3373  0.0788  0.6302
   31CHL1  H23A 2280   1.880   5.999   3.881 -0.8023 -3.2947  0.6551
   31CHL1  H23B 2281   1.773   6.141   3.835  1.5350  0.9070 -3.1973
   31CHL1   C24 2282   1.670   5.951   3.869  0.2066  0.0398  0.1586
   31CHL1  H24A 2283   1.583   5.973   3.804  1.1604  0.5452 -0.9745
   31CHL1  H24B 2284   1.679   5.840   3.873 -2.8721 -0.2871  0.6529
   31CHL1   C25 2285   1.625   6.004   4.005 -0.5276  0.2122  0.6138
   31CHL1   H25 2286   1.610   6.114   4.004  3.9908  1.0137  1.0876
   31CHL1   C26 2287   1.485   5.941   4.038 -0.7736 -0.3555  0.0449
   31CHL1  H26A 2288   1.472   5.946   4.148 -1.1092 -0.2222  0.0005
   31CHL1  H26B 2289   1.399   5.997   3.995 -0.8119  1.5241  2.3813
   31CHL1  H26C 2290   1.477   5.835   4.005 -1.1338  0.1085 -1.4657
   31CHL1   C27 2291   1.735   5.964   4.109 -0.0566 -0.1097 -0.2485
   31CHL1  H27A 2292   1.828   6.024   4.098 -0.2045  0.1799  0.0458
   31CHL1  H27B 2293   1.690   5.998   4.205 -2.0680  0.4649 -1.3437
   31CHL1  H27C 2294   1.770   5.859   4.102 -0.0940 -0.0063 -3.4811
   32CHL1    C3 2295   0.544   4.728   2.896 -0.3684 -0.2950 -0.0681
   32CHL1    H3 2296   0.485   4.636   2.911  1.5427 -1.6227 -0.4072
   32CHL1    O3 2297   0.542   4.759   2.756  0.1414  0.6615 -0.3855
   32CHL1   H3' 2298   0.615   4.707   2.722 -0.2005 -0.0495 -0.0520
   32CHL1    C4 2299   0.480   4.841   2.965  0.3127  0.1551  0.4833
   32CHL1   H4A 2300   0.525   4.942   2.952  0.2873 -0.1449 -2.5815
   32CHL1   H4B 2301   0.380   4.847   2.917  0.1790  0.3809  0.7877
   32CHL1    C5 2302   0.473   4.817   3.115  0.5739 -0.3708  0.1179
   32CHL1    C6 2303   0.358   4.811   3.175 -0.4703  0.3492 -0.0970
   32CHL1    H6 2304   0.269   4.831   3.113 -1.0125 -0.6598  0.3205
   32CHL1    C7 2305   0.336   4.785   3.320 -0.5177 -0.6700 -0.5091
   32CHL1   H7A 2306   0.267   4.862   3.361  2.7066  1.3908  1.4618
   32CHL1   H7B 2307   0.288   4.687   3.340 -1.0469 -0.3187 -0.0170
   32CHL1    C8 2308   0.467   4.812   3.396  0.2015  0.3032 -0.5787
   32CHL1    H8 2309   0.475   4.922   3.396 -0.4113  0.3507 -0.9672
   32CHL1   C14 2310   0.458   4.768   3.538  0.0032  0.5655 -0.0390
   32CHL1   H14 2311   0.441   4.659   3.524 -0.9322  0.7244 -0.2241
   32CHL1   C15 2312   0.332   4.814   3.611  0.2224 -0.0479 -0.1254
   32CHL1  H15A 2313   0.321   4.923   3.592 -0.0261 -0.3863 -2.1272
   32CHL1  H15B 2314   0.235   4.766   3.588 -0.1537 -1.1062  3.1559
   32CHL1   C16 2315   0.369   4.789   3.760 -0.1752  0.5060  0.0546
   32CHL1  H16A 2316   0.364   4.889   3.810  1.5809  0.2918  0.7201
   32CHL1  H16B 2317   0.309   4.716   3.817  1.6405 -0.8099  0.3723
   32CHL1   C17 2318   0.523   4.755   3.770  0.1454  0.2221  0.2980
   32CHL1   H17 2319   0.528   4.645   3.783  2.0436  0.0896 -1.1403
   32CHL1   C13 2320   0.578   4.795   3.627 -0.2273  0.6641  0.2000
   32CHL1   C18 2321   0.603   4.945   3.640  0.6093  0.1449  0.1623
   32CHL1  H18A 2322   0.689   4.953   3.709  0.9479 -1.2294 -0.0747
   32CHL1  H18B 2323   0.631   4.983   3.539 -1.1041 -1.1711 -0.8761
   32CHL1  H18C 2324   0.515   5.003   3.676  1.1150  1.6279 -0.8583
   32CHL1   C12 2325   0.691   4.711   3.572  0.0701  0.3439  0.0656
   32CHL1  H12A 2326   0.791   4.735   3.612  0.1878 -1.3020  0.8153
   32CHL1  H12B 2327   0.672   4.604   3.597 -3.6769  1.0387  0.8576
   32CHL1   C11 2328   0.709   4.732   3.419  0.1594 -0.0293  0.0274
   32CHL1  H11A 2329   0.763   4.829   3.416  0.0939 -0.0129 -2.6156
   32CHL1  H11B 2330   0.786   4.656   3.391 -0.1013 -0.2352 -0.1329
   32CHL1    C9 2331   0.578   4.739   3.327 -0.1125 -0.3837  0.5023
   32CHL1    H9 2332   0.537   4.636   3.322 -0.4615 -0.2349  0.2556
   32CHL1   C10 2333   0.606   4.785   3.183 -0.2975 -0.0410  0.1955
   32CHL1   C19 2334   0.690   4.916   3.183  0.1069 -0.1952 -0.2683
   32CHL1  H19A 2335   0.689   4.960   3.081 -1.2701 -0.8889 -0.5684
   32CHL1  H19B 2336   0.640   4.995   3.244 -1.7122  0.0964 -2.0331
   32CHL1  H19C 2337   0.793   4.893   3.219 -0.3187  0.8650  1.7988
   32CHL1    C1 2338   0.686   4.679   3.101  0.6558  0.2253  0.9220
   32CHL1   H1A 2339   0.792   4.671   3.133  0.5922 -0.1033  1.0556
   32CHL1   H1B 2340   0.631   4.583   3.116  2.1031 -0.6387  0.8976
   32CHL1    C2 2341   0.686   4.710   2.954 -0.7563 -0.4032  0.0063
   32CHL1   H2A 2342   0.734   4.630   2.894 -1.4862  0.0781 -1.2452
   32CHL1   H2B 2343   0.755   4.796   2.938  0.3521 -1.2683  0.0078
   32CHL1   C20 2344   0.596   4.798   3.898 -0.1088 -0.0400 -0.0444
   32CHL1   H20 2345   0.586   4.906   3.920  1.1006 -0.0903  0.8733
   32CHL1   C21 2346   0.746   4.761   3.883 -0.3479  0.1907  0.1583
   32CHL1  H21A 2347   0.791   4.780   3.983 -0.3867  2.2673 -0.1796
   32CHL1  H21B 2348   0.803   4.821   3.809  1.5441 -0.1547  1.2885
   32CHL1  H21C 2349   0.763   4.653   3.864 -0.0546  0.0181  1.3081
   32CHL1   C22 2350   0.530   4.734   4.018  0.0382  0.6247 -0.8238
   32CHL1  H22A 2351   0.421   4.714   4.005  0.1301 -0.3378 -0.2860
   32CHL1  H22B 2352   0.584   4.641   4.046 -0.0284  0.9094  0.3143
   32CHL1   C23 2353   0.542   4.824   4.144 -0.3974  0.5312  0.4925
   32CHL1  H23A 2354   0.649   4.814   4.173 -0.7711  0.9297  2.0871
   32CHL1  H23B 2355   0.516   4.929   4.119 -1.0777 -0.0150 -1.2787
   32CHL1   C24 2356   0.471   4.764   4.269  0.0163  0.2898  0.1928
   32CHL1  H24A 2357   0.364   4.781   4.245 -0.4363 -1.9271  0.5046
   32CHL1  H24B 2358   0.509   4.664   4.299  0.3057  0.7389  1.3895
   32CHL1   C25 2359   0.495   4.849   4.396 -0.2301 -0.2225 -0.4001
   32CHL1   H25 2360   0.599   4.886   4.382  0.3303 -1.4536  0.3399
   32CHL1   C26 2361   0.402   4.976   4.400 -0.2722  0.9922 -0.4193
   32CHL1  H26A 2362   0.300   4.940   4.372  0.1819 -1.8680  1.1952
   32CHL1  H26B 2363   0.412   5.011   4.505 -0.7289  0.0244 -0.0330
   32CHL1  H26C 2364   0.437   5.054   4.330 -1.0201  2.7206  1.0699
   32CHL1   C27 2365   0.498   4.763   4.523  0.2060  0.5989  0.0087
   32CHL1  H27A 2366   0.524   4.657   4.504 -3.1988 -0.2103 -0.8202
   32CHL1  H27B 2367   0.571   4.810   4.593  0.4347 -1.2577  1.1047
   32CHL1  H27C 2368   0.396   4.769   4.568 -0.0064  0.3877 -0.4388
   33CHL1    C3 2369   6.120   5.592   3.232  0.1951 -0.3597 -0.7309
   33CHL1    H3 2370   6.082   5.693   3.255  0.0563 -0.3202 -1.1311
   33CHL1    O3 2371   6.163   5.590   3.098 -0.3241 -0.1965 -0.0183
   33CHL1   H3' 2372   6.100   5.649   3.057 -0.5027 -0.2940  0.1132
   33CHL1    C4 2373   6.237   5.559   3.333  0.1487  0.1950  0.7749
   33CHL1   H4A 2374   6.266   5.455   3.309  0.1725  0.6341 -1.3254
   33CHL1   H4B 2375   6.321   5.625   3.302 -0.5680  0.5279 -0.5402
   33CHL1    C5 2376   6.190   5.582   3.470 -0.8604 -1.1455 -0.3845
   33CHL1    C6 2377   6.241   5.671   3.555 -0.1310  0.5790  0.4603
   33CHL1    H6 2378   6.335   5.719   3.525 -0.5510  2.0679  1.4226
   33CHL1    C7 2379   6.200   5.691   3.696  0.2960  0.1521  0.4349
   33CHL1   H7A 2380   6.291   5.683   3.759  0.7806 -0.7103 -0.3481
   33CHL1   H7B 2381   6.159   5.794   3.710  1.7162  0.8857 -0.5137
   33CHL1    C8 2382   6.106   5.583   3.740 -0.0083 -0.3755 -0.3483
   33CHL1    H8 2383   6.166   5.495   3.771  0.1076  0.5110  2.2509
   33CHL1   C14 2384   6.044   5.630   3.872 -0.5755  0.5642 -0.0519
   33CHL1   H14 2385   5.994   5.726   3.847 -1.0256  0.4339  0.3297
   33CHL1   C15 2386   6.137   5.668   3.994  0.1758 -0.1126  0.5528
   33CHL1  H15A 2387   6.220   5.594   3.998 -1.2954 -1.7950  1.2503
   33CHL1  H15B 2388   6.184   5.768   3.983  0.1832 -0.2162 -0.4046
   33CHL1   C16 2389   6.051   5.665   4.119  1.1739  0.7791 -0.1767
   33CHL1  H16A 2390   6.076   5.574   4.178 -0.4079  0.8260  0.6328
   33CHL1  H16B 2391   6.058   5.747   4.194  0.2355  0.1174  0.6632
   33CHL1   C17 2392   5.905   5.635   4.064  0.1994  0.4883 -1.0226
   33CHL1   H17 2393   5.875   5.737   4.033 -2.9043  0.4625  1.3621
   33CHL1   C13 2394   5.937   5.545   3.933  0.7706 -0.3015 -0.1350
   33CHL1   C18 2395   5.972   5.391   3.963  0.5282 -0.1605  0.1324
   33CHL1  H18A 2396   5.888   5.329   4.002  0.0282  0.0941 -0.5109
   33CHL1  H18B 2397   6.008   5.349   3.867 -2.1296 -0.6622 -0.7210
   33CHL1  H18C 2398   6.040   5.381   4.050 -2.3561 -1.4308  2.4425
   33CHL1   C12 2399   5.821   5.544   3.831  0.1720  0.5354 -0.4866
   33CHL1  H12A 2400   5.743   5.482   3.881  1.0814  0.4055  0.8094
   33CHL1  H12B 2401   5.778   5.646   3.824  0.7280  0.6828 -2.1072
   33CHL1   C11 2402   5.865   5.493   3.691 -0.4664 -0.4784 -0.6486
   33CHL1  H11A 2403   5.879   5.384   3.708  3.1848 -0.0247  0.1635
   33CHL1  H11B 2404   5.782   5.516   3.621 -0.2588  0.6924 -0.5228
   33CHL1    C9 2405   6.000   5.564   3.636  0.4405 -0.2902 -0.0998
   33CHL1    H9 2406   5.963   5.668   3.621 -0.2983 -0.3598  1.0987
   33CHL1   C10 2407   6.059   5.505   3.506 -0.4599 -0.5043  0.1459
   33CHL1   C19 2408   6.090   5.354   3.522  0.4910  0.4601  0.5282
   33CHL1  H19A 2409   6.005   5.305   3.575 -0.5452 -0.1107 -1.5382
   33CHL1  H19B 2410   6.082   5.302   3.424 -3.2608 -4.5059  2.9670
   33CHL1  H19C 2411   6.176   5.332   3.588  1.4196 -0.4618 -0.9327
   33CHL1    C1 2412   5.954   5.527   3.399 -0.0164 -0.1827 -0.1824
   33CHL1   H1A 2413   5.865   5.464   3.422  0.6064 -0.5373  1.4454
   33CHL1   H1B 2414   5.924   5.633   3.412 -0.0120 -0.2789  0.7016
   33CHL1    C2 2415   6.005   5.505   3.255  0.1148  0.8700  0.1949
   33CHL1   H2A 2416   5.927   5.521   3.178 -0.9263  0.7387  1.1886
   33CHL1   H2B 2417   6.023   5.397   3.236  0.1885  0.7453  0.9183
   33CHL1   C20 2418   5.800   5.576   4.161  0.8050 -0.4303 -0.4629
   33CHL1   H20 2419   5.783   5.467   4.160 -4.5544  0.1099  0.5308
   33CHL1   C21 2420   5.666   5.659   4.141 -0.3857  0.4523  0.7746
   33CHL1  H21A 2421   5.580   5.610   4.193 -0.9279 -1.3033 -1.6233
   33CHL1  H21B 2422   5.636   5.644   4.036  1.7167 -1.9355  0.4192
   33CHL1  H21C 2423   5.698   5.764   4.158  3.6767 -0.4941  0.1081
   33CHL1   C22 2424   5.836   5.598   4.312  0.2751  0.1430  0.5599
   33CHL1  H22A 2425   5.936   5.557   4.335 -0.4250 -1.8567  0.2432
   33CHL1  H22B 2426   5.831   5.708   4.328 -0.9633  0.2392 -0.3640
   33CHL1   C23 2427   5.726   5.559   4.411 -0.7156  0.1578  0.3596
   33CHL1  H23A 2428   5.632   5.618   4.401  0.7649  2.2932 -2.3853
   33CHL1  H23B 2429   5.704   5.451   4.395  1.4426 -0.0049 -2.0544
   33CHL1   C24 2430   5.775   5.578   4.562  0.4762 -0.4346 -0.4316
   33CHL1  H24A 2431   5.882   5.549   4.570 -0.0503 -2.2625  0.7214
   33CHL1  H24B 2432   5.768   5.682   4.599 -1.0070 -0.9783  0.9356
   33CHL1   C25 2433   5.693   5.493   4.665  0.2388 -0.0585  0.5133
   33CHL1   H25 2434   5.692   5.386   4.635  1.0637  0.1299 -0.2282
   33CHL1   C26 2435   5.768   5.483   4.801  0.4220  0.6001  0.7631
   33CHL1  H26A 2436   5.879   5.483   4.792  0.2641  1.5283 -2.4583
   33CHL1  H26B 2437   5.748   5.576   4.858 -1.8294 -0.7673  2.3693
   33CHL1  H26C 2438   5.731   5.406   4.871  1.5517 -0.5533  0.1378
   33CHL1   C27 2439   5.549   5.544   4.674  0.2816  0.3071  0.0888
   33CHL1  H27A 2440   5.494   5.541   4.578  1.6839  1.2744 -0.7832
   33CHL1  H27B 2441   5.488   5.487   4.747  0.0687  0.6909  0.2161
   33CHL1  H27C 2442   5.551   5.654   4.695  3.0567  1.3273 -4.1662
   34CHL1    C3 2443   2.109   6.396   2.437  0.8443  0.0645 -0.0324
   34CHL1    H3 2444   2.170   6.314   2.481  1.4598  1.3429  1.6059
   34CHL1    O3 2445   2.128   6.397   2.295  0.4339 -0.0007 -0.1298
   34CHL1   H3' 2446   2.147   6.305   2.274  0.5221  0.0565 -0.3046
   34CHL1    C4 2447   1.955   6.380   2.461 -0.5466 -0.4343  0.0054
   34CHL1   H4A 2448   1.911   6.457   2.394 -0.7453 -0.0206  0.5932
   34CHL1   H4B 2449   1.930   6.284   2.412 -0.5509 -0.8747  0.8392
   34CHL1    C5 2450   1.936   6.388   2.620  0.3375  0.3297 -0.0514
   34CHL1    C6 2451   1.884   6.287   2.694  0.1251  0.1402 -0.4395
   34CHL1    H6 2452   1.840   6.196   2.649  1.7605 -0.9305  0.0256
   34CHL1    C7 2453   1.852   6.305   2.833 -0.7698 -0.3450 -0.0664
   34CHL1   H7A 2454   1.742   6.285   2.839 -1.1330  1.3400 -0.5834
   34CHL1   H7B 2455   1.910   6.229   2.890 -0.9097  0.1639  0.7706
   34CHL1    C8 2456   1.864   6.443   2.902  0.5114 -0.0054  0.4583
   34CHL1    H8 2457   1.771   6.500   2.879  0.6457  1.1641  2.4869
   34CHL1   C14 2458   1.879   6.430   3.053  0.5742  0.4348 -0.5587
   34CHL1   H14 2459   1.963   6.359   3.070  1.1318  0.9166 -1.2499
   34CHL1   C15 2460   1.764   6.363   3.122  0.1490 -0.3517 -0.1448
   34CHL1  H15A 2461   1.663   6.386   3.080  0.1763  2.6505  1.1920
   34CHL1  H15B 2462   1.780   6.253   3.114  0.1223 -0.5613  2.0637
   34CHL1   C16 2463   1.779   6.404   3.269 -0.0264 -0.0383  0.7234
   34CHL1  H16A 2464   1.674   6.428   3.295 -0.2919 -0.7942  0.3825
   34CHL1  H16B 2465   1.804   6.317   3.333 -1.1558 -0.0477  1.1772
   34CHL1   C17 2466   1.892   6.513   3.270  0.2821 -0.0167  0.5018
   34CHL1   H17 2467   1.983   6.450   3.270  0.0529 -0.4377 -1.7836
   34CHL1   C13 2468   1.899   6.567   3.128  0.2814  0.6330  0.1442
   34CHL1   C18 2469   1.784   6.666   3.100 -0.1861  0.5163 -0.2897
   34CHL1  H18A 2470   1.749   6.674   2.995 -1.1942 -1.9518 -0.2207
   34CHL1  H18B 2471   1.696   6.639   3.163 -0.2841 -0.3004 -0.7685
   34CHL1  H18C 2472   1.815   6.766   3.138 -2.5554  0.8198  1.0653
   34CHL1   C12 2473   2.022   6.623   3.072  0.3318  0.2622 -0.9100
   34CHL1  H12A 2474   2.045   6.721   3.119  3.2733 -0.7408 -0.0350
   34CHL1  H12B 2475   2.113   6.563   3.092  1.4324  2.5717  1.6340
   34CHL1   C11 2476   2.021   6.650   2.921 -0.3703  0.1061 -0.0363
   34CHL1  H11A 2477   1.943   6.726   2.900  1.3142  2.0782  0.5286
   34CHL1  H11B 2478   2.120   6.685   2.885 -1.0244  0.2172 -1.8687
   34CHL1    C9 2479   1.989   6.516   2.850  0.4746  0.5289 -0.0174
   34CHL1    H9 2480   2.067   6.443   2.881  0.3687  0.0853 -0.7650
   34CHL1   C10 2481   1.993   6.520   2.693 -0.3928 -0.4550  0.2356
   34CHL1   C19 2482   1.911   6.657   2.663  0.1159 -0.3086  0.2407
   34CHL1  H19A 2483   1.816   6.662   2.720 -0.2993 -0.2007 -0.4524
   34CHL1  H19B 2484   1.980   6.742   2.685  1.0640 -0.6150 -1.3825
   34CHL1  H19C 2485   1.890   6.664   2.555 -0.7390  0.8287  0.4594
   34CHL1    C1 2486   2.141   6.538   2.640 -0.2046  1.0686  0.3152
   34CHL1   H1A 2487   2.190   6.634   2.669 -1.2681  1.3524  1.2640
   34CHL1   H1B 2488   2.198   6.456   2.689 -1.2180 -0.9533 -1.7472
   34CHL1    C2 2489   2.150   6.528   2.485 -0.6008 -0.2775  0.0066
   34CHL1   H2A 2490   2.255   6.543   2.454  0.2146 -0.9435  2.2392
   34CHL1   H2B 2491   2.082   6.604   2.439 -0.5596 -0.8561 -1.0319
   34CHL1   C20 2492   1.874   6.612   3.386 -0.0822 -0.2919 -0.5606
   34CHL1   H20 2493   1.817   6.697   3.343 -2.3570 -1.5679 -0.2131
   34CHL1   C21 2494   2.015   6.653   3.422 -0.2933 -0.4758 -0.6264
   34CHL1  H21A 2495   2.025   6.748   3.478  0.9355 -1.0245  0.1385
   34CHL1  H21B 2496   2.066   6.660   3.324 -1.7991  3.1820 -1.2796
   34CHL1  H21C 2497   2.064   6.573   3.483  0.8094 -0.6175 -1.6576
   34CHL1   C22 2498   1.799   6.558   3.513 -1.1352 -1.0839 -0.0219
   34CHL1  H22A 2499   1.708   6.500   3.488 -1.7646 -0.1860  0.1650
   34CHL1  H22B 2500   1.874   6.488   3.557  1.1812  0.5194 -1.1698
   34CHL1   C23 2501   1.771   6.673   3.609 -0.1542  0.0175  0.1593
   34CHL1  H23A 2502   1.863   6.712   3.659 -0.9465  0.5173  1.2621
   34CHL1  H23B 2503   1.708   6.752   3.564 -0.9617  0.5058  2.0324
   34CHL1   C24 2504   1.685   6.626   3.723 -0.0392  0.0529  0.6720
   34CHL1  H24A 2505   1.659   6.700   3.802 -1.9647 -0.0940  0.2252
   34CHL1  H24B 2506   1.588   6.603   3.674  0.7477  0.1710 -1.0407
   34CHL1   C25 2507   1.735   6.506   3.810 -0.2474  0.5317 -0.1501
   34CHL1   H25 2508   1.732   6.415   3.748 -1.1628  0.5442 -0.1304
   34CHL1   C26 2509   1.875   6.528   3.871  0.1547 -0.2850 -0.3672
   34CHL1  H26A 2510   1.945   6.559   3.790  2.9627 -1.9017  1.2810
   34CHL1  H26B 2511   1.884   6.608   3.947  1.1930 -0.5539 -0.1882
   34CHL1  H26C 2512   1.919   6.436   3.915  0.5895  1.0365  2.1100
   34CHL1   C27 2513   1.640   6.475   3.922 -0.9981  0.2387 -0.5370
   34CHL1  H27A 2514   1.606   6.566   3.975  1.1430  0.4390  0.5664
   34CHL1  H27B 2515   1.554   6.418   3.880  0.5128 -0.4528 -2.9127
   34CHL1  H27C 2516   1.691   6.420   4.004  0.7826  2.8448  0.2082
   35CHL1    C3 2517   6.068   0.788   2.926 -0.4375 -0.5069 -0.7019
   35CHL1    H3 2518   6.147   0.711   2.937 -0.2890 -0.0918  1.4240
   35CHL1    O3 2519   6.036   0.808   2.789 -0.4276  0.2183 -0.5179
   35CHL1   H3' 2520   5.996   0.895   2.785  2.1202  1.7541  2.6820
   35CHL1    C4 2521   5.943   0.734   2.995  0.2591 -0.1979  0.0492
   35CHL1   H4A 2522   5.869   0.814   2.974  1.1840  1.5943  2.9428
   35CHL1   H4B 2523   5.914   0.635   2.954  2.7980 -1.4846  1.1302
   35CHL1    C5 2524   5.963   0.727   3.150 -0.1446 -0.2532  0.2613
   35CHL1    C6 2525   5.931   0.617   3.213  0.1603 -0.0011 -0.5002
   35CHL1    H6 2526   5.899   0.525   3.163  3.1327 -1.2701 -0.2823
   35CHL1    C7 2527   5.942   0.611   3.366 -0.5931  0.0987  0.5915
   35CHL1   H7A 2528   5.852   0.554   3.395 -1.4895 -0.0048 -2.1266
   35CHL1   H7B 2529   6.025   0.540   3.385 -1.1147 -0.4349  0.9019
   35CHL1    C8 2530   5.964   0.741   3.441  0.0689  0.0585 -0.1856
   35CHL1    H8 2531   5.868   0.794   3.455  0.7542  1.4426 -0.6039
   35CHL1   C14 2532   6.010   0.721   3.587  0.3838 -0.2590  0.1849
   35CHL1   H14 2533   6.112   0.676   3.583  0.5318  0.1165 -0.2999
   35CHL1   C15 2534   5.933   0.615   3.676 -0.0134  0.1299 -0.2414
   35CHL1  H15A 2535   5.826   0.617   3.646  0.3263 -1.2895 -1.7432
   35CHL1  H15B 2536   5.977   0.516   3.652  0.1977  0.3942 -0.9754
   35CHL1   C16 2537   5.959   0.651   3.823 -0.4629 -0.4553 -0.1389
   35CHL1  H16A 2538   5.861   0.683   3.864 -0.1168 -0.4622  0.7289
   35CHL1  H16B 2539   5.995   0.572   3.893 -0.2248  1.1562  1.6554
   35CHL1   C17 2540   6.058   0.772   3.806 -0.4959 -0.6361  0.0045
   35CHL1   H17 2541   6.160   0.732   3.785 -0.7360 -2.9372  2.7195
   35CHL1   C13 2542   6.024   0.842   3.669 -0.2590  0.5001  0.4696
   35CHL1   C18 2543   5.897   0.928   3.666  0.1576  1.3716 -0.5143
   35CHL1  H18A 2544   5.808   0.865   3.688 -0.6340  2.7347  0.3148
   35CHL1  H18B 2545   5.903   1.002   3.749  0.9894  0.1002  0.6059
   35CHL1  H18C 2546   5.868   0.978   3.571 -2.5992  1.6979  0.4016
   35CHL1   C12 2547   6.137   0.927   3.601 -0.4894  0.5586 -0.1551
   35CHL1  H12A 2548   6.138   1.030   3.645 -0.9975  0.6865 -0.4285
   35CHL1  H12B 2549   6.236   0.878   3.605 -0.5157  0.4583 -0.7019
   35CHL1   C11 2550   6.112   0.946   3.449  0.1942 -0.1286 -0.4964
   35CHL1  H11A 2551   6.036   1.027   3.446  0.4894  0.1483 -0.4686
   35CHL1  H11B 2552   6.199   0.991   3.397 -0.8706  2.5360 -0.1262
   35CHL1    C9 2553   6.069   0.821   3.368 -0.4333  0.2643  0.2514
   35CHL1    H9 2554   6.157   0.754   3.363 -2.2065 -2.2943  1.0003
   35CHL1   C10 2555   6.020   0.853   3.222 -0.3747 -0.2690 -0.0809
   35CHL1   C19 2556   5.909   0.960   3.223 -0.0702 -0.0702  0.2812
   35CHL1  H19A 2557   5.845   0.958   3.132  1.5531 -0.2231 -0.8930
   35CHL1  H19B 2558   5.836   0.948   3.307 -1.5112  3.3087 -0.3086
   35CHL1  H19C 2559   5.956   1.058   3.247 -2.1481  1.1096 -0.1816
   35CHL1    C1 2560   6.138   0.908   3.134 -0.2113 -0.1795 -0.1521
   35CHL1   H1A 2561   6.167   1.006   3.178 -1.2757  1.0310 -2.0028
   35CHL1   H1B 2562   6.227   0.844   3.148  0.7247  1.5678  2.5820
   35CHL1    C2 2563   6.121   0.923   2.981 -0.0861 -0.8890 -0.4578
   35CHL1   H2A 2564   6.213   0.960   2.931 -0.6725 -0.3503 -1.1558
   35CHL1   H2B 2565   6.046   1.004   2.968 -1.0101 -1.8702 -1.3822
   35CHL1   C20 2566   6.066   0.869   3.928 -0.2261 -0.5292  0.3614
   35CHL1   H20 2567   5.988   0.946   3.912  1.2757  0.8968 -0.4556
   35CHL1   C21 2568   6.201   0.935   3.933 -0.0610  0.3937 -0.9038
   35CHL1  H21A 2569   6.277   0.857   3.954  0.9304  1.6486  0.3586
   35CHL1  H21B 2570   6.205   1.003   4.021 -0.0375 -1.3280  0.4731
   35CHL1  H21C 2571   6.224   0.996   3.843 -0.2830 -0.9625 -1.9194
   35CHL1   C22 2572   6.032   0.792   4.061 -0.4215 -0.4274 -0.2790
   35CHL1  H22A 2573   5.923   0.769   4.058 -0.2066 -1.7431  0.6663
   35CHL1  H22B 2574   6.079   0.691   4.069 -0.4668 -0.6631 -2.5172
   35CHL1   C23 2575   6.034   0.882   4.187 -0.0701 -0.4988 -0.0318
   35CHL1  H23A 2576   6.141   0.905   4.204  0.0377 -0.4736 -0.7244
   35CHL1  H23B 2577   5.971   0.971   4.166 -0.3630  0.2789  3.4885
   35CHL1   C24 2578   5.990   0.804   4.311 -0.5588  0.3044 -0.3216
   35CHL1  H24A 2579   5.893   0.753   4.290  0.0231 -0.6534 -0.7695
   35CHL1  H24B 2580   6.067   0.727   4.332 -0.2220  0.7125 -0.0527
   35CHL1   C25 2581   5.969   0.894   4.436  0.6116 -0.1182 -0.4577
   35CHL1   H25 2582   5.897   0.972   4.405 -1.1901 -1.6774 -0.3445
   35CHL1   C26 2583   5.907   0.806   4.542  0.9553  0.0060 -0.1116
   35CHL1  H26A 2584   5.970   0.718   4.570 -0.0491 -0.3507  1.1366
   35CHL1  H26B 2585   5.890   0.858   4.639  1.5155 -0.4771  0.2594
   35CHL1  H26C 2586   5.818   0.756   4.498 -0.0783  1.5568  0.1250
   35CHL1   C27 2587   6.101   0.951   4.495  0.4587 -0.4172 -0.0574
   35CHL1  H27A 2588   6.176   0.987   4.421 -0.9741 -1.3666 -2.0546
   35CHL1  H27B 2589   6.072   1.040   4.556  0.5228  1.7520 -2.9856
   35CHL1  H27C 2590   6.156   0.880   4.560  1.6087  0.1415 -0.3966
   36CHL1    C3 2591   6.356   1.977   2.736 -0.1842  0.4130 -0.7592
   36CHL1    H3 2592   6.447   1.913   2.747  1.6624  2.8939 -0.8007
   36CHL1    O3 2593   6.338   1.983   2.594  0.1471 -0.5202 -1.2012
   36CHL1   H3' 2594   6.409   2.040   2.565 -1.1020  1.9972  0.3976
   36CHL1    C4 2595   6.243   1.915   2.814  0.6620  0.6760 -0.8601
   36CHL1   H4A 2596   6.149   1.966   2.787 -0.8785 -0.2334  2.3112
   36CHL1   H4B 2597   6.221   1.816   2.770  0.4802  0.7832 -1.0094
   36CHL1    C5 2598   6.257   1.917   2.969 -0.1065  0.4866 -0.4288
   36CHL1    C6 2599   6.249   1.810   3.048  0.4653 -0.1092 -0.1113
   36CHL1    H6 2600   6.230   1.716   2.995 -0.3979 -0.5651  0.9608
   36CHL1    C7 2601   6.256   1.808   3.199 -0.0075  0.3458 -0.1645
   36CHL1   H7A 2602   6.173   1.747   3.241 -0.0391  0.4280 -0.1080
   36CHL1   H7B 2603   6.356   1.767   3.226 -0.1602 -1.1113 -1.6649
   36CHL1    C8 2604   6.261   1.955   3.260  0.5113 -0.3028  0.0098
   36CHL1    H8 2605   6.158   1.996   3.260  0.5296 -0.2537 -0.3652
   36CHL1   C14 2606   6.323   1.950   3.395  0.5974  1.0807 -0.5954
   36CHL1   H14 2607   6.431   1.922   3.387  0.8802  1.0971  2.2451
   36CHL1   C15 2608   6.258   1.848   3.498  0.2253 -0.6051  0.1119
   36CHL1  H15A 2609   6.148   1.861   3.484  0.2867 -1.5050 -1.4508
   36CHL1  H15B 2610   6.292   1.745   3.477  0.5500  0.0444 -3.0471
   36CHL1   C16 2611   6.297   1.904   3.635 -0.1202  0.3290 -0.1176
   36CHL1  H16A 2612   6.209   1.928   3.699  1.3685  1.4735  1.5772
   36CHL1  H16B 2613   6.356   1.822   3.681  0.1583  0.3066 -0.5117
   36CHL1   C17 2614   6.390   2.029   3.612 -0.1320  0.0766 -0.4935
   36CHL1   H17 2615   6.491   1.998   3.576  0.3026  0.4154  0.3848
   36CHL1   C13 2616   6.330   2.081   3.475 -0.2172  0.2485  0.2321
   36CHL1   C18 2617   6.189   2.146   3.502  0.2264  0.7270 -0.8033
   36CHL1  H18A 2618   6.131   2.135   3.408 -0.4228 -2.2653 -0.1384
   36CHL1  H18B 2619   6.141   2.082   3.579  0.0891 -1.0264 -2.2823
   36CHL1  H18C 2620   6.196   2.255   3.522 -2.4282  0.6944  0.7828
   36CHL1   C12 2621   6.416   2.181   3.390  0.1603  0.9083 -0.7890
   36CHL1  H12A 2622   6.428   2.284   3.429 -0.1653  1.1935 -1.4168
   36CHL1  H12B 2623   6.521   2.145   3.385  0.1008  0.6467 -0.2441
   36CHL1   C11 2624   6.355   2.191   3.244 -0.0955 -0.6058 -0.1743
   36CHL1  H11A 2625   6.249   2.224   3.253  0.4679  1.1854  0.2258
   36CHL1  H11B 2626   6.403   2.262   3.173 -2.0033 -0.4591 -1.3936
   36CHL1    C9 2627   6.352   2.051   3.178 -0.0201 -0.2065 -0.0729
   36CHL1    H9 2628   6.450   1.999   3.178  0.2519  0.1985  2.2150
   36CHL1   C10 2629   6.304   2.053   3.027 -0.0912 -0.9931  0.5284
   36CHL1   C19 2630   6.177   2.138   3.010  0.3913 -0.1635 -0.1351
   36CHL1  H19A 2631   6.146   2.132   2.904 -1.3931  1.7044  0.2051
   36CHL1  H19B 2632   6.088   2.104   3.067 -0.3712  3.6160  1.2303
   36CHL1  H19C 2633   6.197   2.244   3.037  0.1306  0.2843 -1.6076
   36CHL1    C1 2634   6.427   2.108   2.941  0.2479 -0.0303 -0.4809
   36CHL1   H1A 2635   6.455   2.209   2.977 -0.5083  0.2832 -0.7523
   36CHL1   H1B 2636   6.513   2.039   2.947 -1.1612 -2.1632 -2.8534
   36CHL1    C2 2637   6.395   2.113   2.786 -0.2131 -0.0170  0.3601
   36CHL1   H2A 2638   6.490   2.144   2.737 -1.0793  0.4381 -1.0788
   36CHL1   H2B 2639   6.327   2.196   2.756  0.0467  0.1874  0.3314
   36CHL1   C20 2640   6.400   2.120   3.737 -0.1000 -0.2013  0.4726
   36CHL1   H20 2641   6.296   2.140   3.770 -0.5960 -1.1398 -0.4598
   36CHL1   C21 2642   6.471   2.246   3.703  0.5114  0.6285  0.4939
   36CHL1  H21A 2643   6.414   2.315   3.637  2.2510  0.4562 -1.2741
   36CHL1  H21B 2644   6.563   2.218   3.647 -1.6821 -2.5369 -1.8793
   36CHL1  H21C 2645   6.499   2.310   3.790  0.6906 -0.2021  1.0518
   36CHL1   C22 2646   6.475   2.037   3.854  0.0339 -0.5649 -0.0989
   36CHL1  H22A 2647   6.417   1.945   3.878  0.7924 -1.3047 -1.0509
   36CHL1  H22B 2648   6.575   2.005   3.817  1.6086 -0.9593  3.9789
   36CHL1   C23 2649   6.492   2.114   3.982 -0.1095 -0.4397 -0.2541
   36CHL1  H23A 2650   6.586   2.174   3.982  0.3425 -1.1230  0.6327
   36CHL1  H23B 2651   6.411   2.188   3.999  0.8287  0.6397 -0.3275
   36CHL1   C24 2652   6.511   2.019   4.099 -0.4216 -0.5314  0.4967
   36CHL1  H24A 2653   6.417   1.960   4.100  0.0136 -1.2317  0.7815
   36CHL1  H24B 2654   6.607   1.969   4.072 -1.0639 -1.3148 -0.3989
   36CHL1   C25 2655   6.522   2.084   4.243 -0.0572 -0.4870  0.0759
   36CHL1   H25 2656   6.427   2.130   4.274  0.5394  0.3092  0.7559
   36CHL1   C26 2657   6.553   1.990   4.358  0.5518  0.5291 -0.0333
   36CHL1  H26A 2658   6.474   1.912   4.364  1.2176 -0.1887 -0.4752
   36CHL1  H26B 2659   6.635   1.919   4.333 -2.6648 -3.3649 -0.5655
   36CHL1  H26C 2660   6.571   2.032   4.459 -1.5947 -1.2562  1.1918
   36CHL1   C27 2661   6.634   2.199   4.246  0.3928 -0.0543 -0.5705
   36CHL1  H27A 2662   6.642   2.232   4.351 -0.9840 -2.3111  0.3219
   36CHL1  H27B 2663   6.730   2.150   4.222  2.0567  1.1281  3.0392
   36CHL1  H27C 2664   6.617   2.284   4.177  0.4203 -1.1044 -1.9292
   37CHL1    C3 2665   3.803   0.663   2.908 -1.2458 -0.1509 -0.3267
   37CHL1    H3 2666   3.721   0.589   2.916 -0.9230 -0.3011  2.2438
   37CHL1    O3 2667   3.799   0.710   2.775 -0.2310 -0.2976 -0.5669
   37CHL1   H3' 2668   3.885   0.750   2.761 -0.8121  0.6237 -1.6569
   37CHL1    C4 2669   3.791   0.776   3.004 -0.2585 -1.1557 -1.0633
   37CHL1   H4A 2670   3.870   0.851   2.983  0.1082 -1.0410  0.5839
   37CHL1   H4B 2671   3.695   0.832   2.990  1.3309  2.3656  0.7576
   37CHL1    C5 2672   3.798   0.723   3.144 -0.1306  0.5921 -0.8812
   37CHL1    C6 2673   3.697   0.744   3.229  0.5966 -0.6030 -0.1895
   37CHL1    H6 2674   3.611   0.805   3.198 -0.8786 -3.3602 -1.9163
   37CHL1    C7 2675   3.692   0.694   3.374 -0.4432  0.0617  0.2454
   37CHL1   H7A 2676   3.670   0.776   3.446  0.8433  0.6606 -0.0249
   37CHL1   H7B 2677   3.614   0.615   3.385  1.0005 -1.4718 -0.0834
   37CHL1    C8 2678   3.832   0.656   3.419  0.0525 -0.1495  0.1277
   37CHL1    H8 2679   3.883   0.753   3.439 -1.4329  0.6510  0.1822
   37CHL1   C14 2680   3.823   0.588   3.556 -0.0232 -0.7626  0.1731
   37CHL1   H14 2681   3.764   0.497   3.534 -0.3713 -0.1684 -1.5372
   37CHL1   C15 2682   3.737   0.651   3.668  0.4221  0.1970  0.0427
   37CHL1  H15A 2683   3.767   0.758   3.681 -2.5510  1.5366 -2.6471
   37CHL1  H15B 2684   3.627   0.643   3.656  0.5408 -2.9473  0.3438
   37CHL1   C16 2685   3.781   0.579   3.797  0.0605  0.8530  0.6349
   37CHL1  H16A 2686   3.799   0.655   3.876  1.7094  0.3286  0.7851
   37CHL1  H16B 2687   3.701   0.505   3.815  1.6684 -1.3400 -0.8087
   37CHL1   C17 2688   3.912   0.511   3.758 -0.4229 -0.0449 -0.1585
   37CHL1   H17 2689   3.897   0.403   3.732  0.3554 -0.0987 -0.4198
   37CHL1   C13 2690   3.958   0.556   3.616 -0.6988  0.3149  1.0960
   37CHL1   C18 2691   4.045   0.686   3.644 -0.0117  0.4938 -0.2228
   37CHL1  H18A 2692   4.146   0.658   3.682 -1.5734 -1.6285  2.7651
   37CHL1  H18B 2693   4.067   0.742   3.550 -0.5329  2.9279  1.0334
   37CHL1  H18C 2694   3.996   0.752   3.718 -1.5182 -0.6174 -0.1869
   37CHL1   C12 2695   4.017   0.449   3.515 -0.9028 -0.1501  0.0615
   37CHL1  H12A 2696   4.113   0.417   3.563 -0.0570 -1.4606 -2.3287
   37CHL1  H12B 2697   3.946   0.365   3.501  0.9716 -1.8034 -0.0043
   37CHL1   C11 2698   4.040   0.518   3.378  0.3515  0.4247  0.2075
   37CHL1  H11A 2699   4.120   0.591   3.401  1.8238 -1.3166  0.8088
   37CHL1  H11B 2700   4.097   0.447   3.315  1.3314 -2.1064  3.6736
   37CHL1    C9 2701   3.908   0.573   3.316 -0.4216  0.3125  0.5716
   37CHL1    H9 2702   3.851   0.484   3.284  0.9423 -0.6079  0.6264
   37CHL1   C10 2703   3.926   0.647   3.177  0.6052 -0.1704 -0.2344
   37CHL1   C19 2704   4.040   0.750   3.173 -1.0340 -1.0604  0.2305
   37CHL1  H19A 2705   4.127   0.684   3.188  0.4027  0.8052  0.4750
   37CHL1  H19B 2706   4.053   0.797   3.073 -0.3854 -1.4684  0.1221
   37CHL1  H19C 2707   4.044   0.825   3.255 -0.0518 -2.1721  1.2423
   37CHL1    C1 2708   3.950   0.540   3.066  0.2024  0.2273  0.8383
   37CHL1   H1A 2709   4.045   0.486   3.088  0.2144  0.6818  2.0049
   37CHL1   H1B 2710   3.879   0.456   3.081  0.8392 -0.7197 -1.1656
   37CHL1    C2 2711   3.938   0.585   2.925 -0.1428 -0.0177  0.6273
   37CHL1   H2A 2712   3.937   0.506   2.848  0.9655 -1.0933  1.6573
   37CHL1   H2B 2713   4.026   0.651   2.908 -2.4340  3.2050  0.5562
   37CHL1   C20 2714   4.007   0.503   3.875 -1.5049  0.6002 -0.1577
   37CHL1   H20 2715   4.038   0.609   3.889  0.5437 -0.0034  0.2710
   37CHL1   C21 2716   4.135   0.421   3.845 -0.2725  0.8638 -0.1244
   37CHL1  H21A 2717   4.108   0.313   3.852  0.9305  0.5033 -0.6241
   37CHL1  H21B 2718   4.209   0.441   3.926 -3.1066 -0.7666  3.1434
   37CHL1  H21C 2719   4.173   0.438   3.742 -1.2293 -0.2754 -0.6903
   37CHL1   C22 2720   3.952   0.447   4.011  0.2654 -0.7220  0.7441
   37CHL1  H22A 2721   3.852   0.495   4.019  0.4748 -0.0670 -0.4066
   37CHL1  H22B 2722   3.952   0.336   4.018 -1.2973 -0.8617 -0.8663
   37CHL1   C23 2723   4.023   0.505   4.132  0.3556  0.1513  0.9134
   37CHL1  H23A 2724   4.122   0.454   4.126 -1.0271 -2.5500 -3.7278
   37CHL1  H23B 2725   4.041   0.614   4.117  1.4027 -0.0871  0.3136
   37CHL1   C24 2726   3.956   0.483   4.265 -0.4926  0.4211 -0.7271
   37CHL1  H24A 2727   3.850   0.517   4.259 -0.4613  0.6432 -0.1137
   37CHL1  H24B 2728   3.965   0.375   4.289 -0.0352  0.1531 -2.0122
   37CHL1   C25 2729   4.020   0.577   4.375 -0.1089 -0.4046 -0.3817
   37CHL1   H25 2730   4.003   0.682   4.343  0.5828  1.0715  3.5097
   37CHL1   C26 2731   3.931   0.557   4.500  0.2021  0.4573  0.3037
   37CHL1  H26A 2732   3.937   0.449   4.527  0.9332  0.4094 -0.0164
   37CHL1  H26B 2733   3.975   0.629   4.572 -0.3662  2.0667 -0.9027
   37CHL1  H26C 2734   3.825   0.585   4.486 -0.0282 -1.1716 -1.8895
   37CHL1   C27 2735   4.169   0.549   4.399 -0.5510  0.4794 -0.0773
   37CHL1  H27A 2736   4.222   0.555   4.301  1.9259 -1.2842  1.0363
   37CHL1  H27B 2737   4.211   0.624   4.469 -2.8239 -0.6925  2.7362
   37CHL1  H27C 2738   4.182   0.450   4.447  1.8829  1.8498  2.3791
   38CHL1    C3 2739   0.039   5.116   3.167  0.4720  0.3849  0.6061
   38CHL1    H3 2740   0.122   5.090   3.236 -0.0243  0.4857  1.2536
   38CHL1    O3 2741   0.076   5.110   3.033 -0.1719 -0.2481  0.0329
   38CHL1   H3' 2742  -0.006   5.136   2.991 -0.5358  1.5708  1.7212
   38CHL1    C4 2743  -0.071   5.009   3.195 -0.2097  0.1296 -0.8886
   38CHL1   H4A 2744  -0.158   5.023   3.128 -1.0015  2.0595  0.4251
   38CHL1   H4B 2745  -0.019   4.915   3.168  1.0420  1.0446 -1.7640
   38CHL1    C5 2746  -0.112   5.019   3.342 -0.8992  0.5947 -0.5414
   38CHL1    C6 2747  -0.091   4.919   3.430 -0.1399 -0.2776  0.3870
   38CHL1    H6 2748  -0.047   4.826   3.391  0.0534 -0.8548  1.8999
   38CHL1    C7 2749  -0.126   4.922   3.575  0.2832 -0.3467 -0.1672
   38CHL1   H7A 2750  -0.172   4.826   3.607  0.6304 -1.5922 -3.0423
   38CHL1   H7B 2751  -0.037   4.937   3.639  0.6561 -1.5143 -0.3855
   38CHL1    C8 2752  -0.231   5.034   3.596 -0.3936  0.2717 -0.4805
   38CHL1    H8 2753  -0.325   4.995   3.551  1.0248 -1.3238 -2.2323
   38CHL1   C14 2754  -0.234   5.064   3.746 -0.2036  0.7873 -0.3912
   38CHL1   H14 2755  -0.139   5.114   3.772  0.0998  1.0127 -1.8513
   38CHL1   C15 2756  -0.234   4.942   3.846 -0.5711  0.2357 -0.3050
   38CHL1  H15A 2757  -0.291   4.851   3.818 -2.2221  0.9920  0.4446
   38CHL1  H15B 2758  -0.129   4.916   3.869 -0.5266  0.8380  0.1898
   38CHL1   C16 2759  -0.299   5.003   3.973 -0.7153 -0.7080  0.1559
   38CHL1  H16A 2760  -0.394   4.955   4.005  0.9800 -3.0650  2.0142
   38CHL1  H16B 2761  -0.234   4.996   4.063 -0.5943  0.0963  0.1337
   38CHL1   C17 2762  -0.324   5.152   3.948  0.1331 -0.9825 -0.2726
   38CHL1   H17 2763  -0.231   5.205   3.976  0.1722 -2.5908  3.1878
   38CHL1   C13 2764  -0.341   5.165   3.793 -0.4537  0.8801  0.3965
   38CHL1   C18 2765  -0.482   5.120   3.750 -0.2397 -0.0816 -0.3114
   38CHL1  H18A 2766  -0.497   5.100   3.641  2.1511 -4.5048 -0.0535
   38CHL1  H18B 2767  -0.498   5.024   3.803  0.1954 -0.0560 -0.1347
   38CHL1  H18C 2768  -0.566   5.184   3.785  0.8245  0.8385  0.6038
   38CHL1   C12 2769  -0.295   5.302   3.729 -0.5529 -0.2240  0.0846
   38CHL1  H12A 2770  -0.351   5.391   3.764  2.0297  1.4220  0.2750
   38CHL1  H12B 2771  -0.192   5.317   3.767 -0.9890  2.5554  0.3712
   38CHL1   C11 2772  -0.276   5.291   3.579 -0.1488  0.3773  0.2530
   38CHL1  H11A 2773  -0.379   5.279   3.539 -0.5486  0.6231  1.1995
   38CHL1  H11B 2774  -0.232   5.384   3.536  0.4376  0.3122  0.7078
   38CHL1    C9 2775  -0.188   5.166   3.532 -0.1784 -0.1108  1.0641
   38CHL1    H9 2776  -0.089   5.194   3.572  0.2321  0.6134 -0.3802
   38CHL1   C10 2777  -0.169   5.152   3.381  0.1818 -0.1691  0.5305
   38CHL1   C19 2778  -0.302   5.166   3.317 -0.2061 -0.7129 -0.0332
   38CHL1  H19A 2779  -0.374   5.087   3.349  0.2518 -1.3957 -0.6495
   38CHL1  H19B 2780  -0.344   5.268   3.332 -0.7113 -0.4654 -2.6101
   38CHL1  H19C 2781  -0.300   5.163   3.206 -0.0016 -1.5896 -0.0155
   38CHL1    C1 2782  -0.067   5.266   3.339 -0.0399 -0.3196  0.1208
   38CHL1   H1A 2783  -0.113   5.363   3.367 -0.6109 -0.2772 -0.9219
   38CHL1   H1B 2784   0.023   5.273   3.403 -0.4376  0.3181  0.6180
   38CHL1    C2 2785  -0.014   5.258   3.196 -0.4065  0.2928 -0.4415
   38CHL1   H2A 2786   0.062   5.337   3.180  0.7482 -0.7815 -0.4722
   38CHL1   H2B 2787  -0.094   5.271   3.120  0.7276 -2.4041 -2.2533
   38CHL1   C20 2788  -0.441   5.205   4.036 -0.2117  0.0258 -0.0063
   38CHL1   H20 2789  -0.535   5.157   4.003 -1.0116  1.8554 -0.4991
   38CHL1   C21 2790  -0.462   5.358   4.014  0.5282 -0.4253 -0.4027
   38CHL1  H21A 2791  -0.534   5.398   4.089  1.6738  2.7167 -0.8474
   38CHL1  H21B 2792  -0.499   5.386   3.913  0.2741  0.7182 -0.0093
   38CHL1  H21C 2793  -0.368   5.416   4.024 -0.3731  1.2022 -1.0814
   38CHL1   C22 2794  -0.424   5.175   4.187  0.0918  0.3855  0.0596
   38CHL1  H22A 2795  -0.390   5.069   4.194 -0.3603  0.2652  0.4983
   38CHL1  H22B 2796  -0.355   5.253   4.223  1.4687 -0.1575 -1.2670
   38CHL1   C23 2797  -0.552   5.189   4.276 -0.1587 -0.3559 -0.0717
   38CHL1  H23A 2798  -0.531   5.160   4.381 -0.1508  0.9127  0.2892
   38CHL1  H23B 2799  -0.574   5.295   4.297  0.5765 -0.5266  1.7366
   38CHL1   C24 2800  -0.676   5.110   4.233 -0.6134 -0.4425  0.0225
   38CHL1  H24A 2801  -0.708   5.160   4.139  0.5415  0.7267  0.2126
   38CHL1  H24B 2802  -0.662   5.006   4.198 -1.5964 -0.6430  0.1797
   38CHL1   C25 2803  -0.800   5.118   4.326  0.1915  0.2879 -0.0598
   38CHL1   H25 2804  -0.770   5.074   4.424  2.6951  2.1360  0.1078
   38CHL1   C26 2805  -0.865   5.256   4.341  0.0374 -0.2955 -0.0526
   38CHL1  H26A 2806  -0.953   5.250   4.409  0.9894 -1.8166  1.1104
   38CHL1  H26B 2807  -0.794   5.328   4.388 -0.4456 -1.1538  2.1329
   38CHL1  H26C 2808  -0.889   5.298   4.241  1.3497  3.3886  0.9776
   38CHL1   C27 2809  -0.909   5.027   4.270  0.1877 -0.1302  0.2539
   38CHL1  H27A 2810  -0.880   4.921   4.257 -0.3009 -0.2248 -0.0779
   38CHL1  H27B 2811  -1.002   5.037   4.329  0.3271  0.8725  0.3352
   38CHL1  H27C 2812  -0.929   5.068   4.168 -0.7736 -0.4396  0.3104
   39CHL1    C3 2813   6.647   0.104   2.908  0.6343  0.4250  0.5754
   39CHL1    H3 2814   6.587   0.197   2.921 -0.1524  0.4101 -2.3551
   39CHL1    O3 2815   6.671   0.083   2.768 -0.7677 -0.6373 -0.6547
   39CHL1   H3' 2816   6.716  -0.002   2.770  0.8450  0.1837  0.3183
   39CHL1    C4 2817   6.783   0.123   2.968 -0.0410  0.4395  0.0072
   39CHL1   H4A 2818   6.845   0.031   2.965  0.1717  0.4935  1.6794
   39CHL1   H4B 2819   6.843   0.203   2.919  2.2087 -1.9336 -1.3664
   39CHL1    C5 2820   6.766   0.141   3.119  0.3368  0.2877  0.3252
   39CHL1    C6 2821   6.824   0.247   3.178  0.3280 -0.1158  0.5738
   39CHL1    H6 2822   6.884   0.308   3.109 -0.2835  0.2996  0.4001
   39CHL1    C7 2823   6.818   0.273   3.322 -0.6096  0.4592 -0.4414
   39CHL1   H7A 2824   6.915   0.310   3.363  0.1464 -0.2759 -1.5072
   39CHL1   H7B 2825   6.741   0.351   3.333 -0.3385  0.4701  1.8095
   39CHL1    C8 2826   6.769   0.149   3.406 -0.2680 -0.1118  0.6948
   39CHL1    H8 2827   6.855   0.079   3.412 -0.0929  0.1958  1.8812
   39CHL1   C14 2828   6.728   0.188   3.557 -0.5414 -0.8637  0.1999
   39CHL1   H14 2829   6.643   0.258   3.544 -0.7690 -0.9760  1.0247
   39CHL1   C15 2830   6.831   0.260   3.653 -0.3293  0.3215 -0.1226
   39CHL1  H15A 2831   6.934   0.221   3.641  0.8655  3.1671 -0.0225
   39CHL1  H15B 2832   6.839   0.363   3.612 -0.1633  0.3346 -0.0574
   39CHL1   C16 2833   6.773   0.243   3.791 -0.0636 -0.1491  1.0618
   39CHL1  H16A 2834   6.848   0.206   3.863 -0.7044 -2.6819  0.5005
   39CHL1  H16B 2835   6.746   0.343   3.833 -0.2520 -0.2067  1.0787
   39CHL1   C17 2836   6.653   0.145   3.782 -0.0341  0.7483  0.5857
   39CHL1   H17 2837   6.562   0.208   3.769 -0.9021 -0.2289  1.7525
   39CHL1   C13 2838   6.683   0.067   3.647  0.2230  0.5255  0.4321
   39CHL1   C18 2839   6.803  -0.028   3.654  0.2647 -0.0802  0.0155
   39CHL1  H18A 2840   6.891   0.011   3.709 -0.3303 -0.4750  1.2868
   39CHL1  H18B 2841   6.775  -0.116   3.715 -2.2847  1.2185  0.8919
   39CHL1  H18C 2842   6.843  -0.053   3.553 -1.6670  0.1872 -0.8753
   39CHL1   C12 2843   6.558   0.005   3.579 -0.3683 -0.0808  0.7066
   39CHL1  H12A 2844   6.520  -0.091   3.620 -2.9235 -0.2022 -1.6459
   39CHL1  H12B 2845   6.478   0.082   3.568 -0.3629 -0.2548 -0.8819
   39CHL1   C11 2846   6.597  -0.039   3.431  0.2049  0.1049 -0.2963
   39CHL1  H11A 2847   6.659  -0.130   3.436 -2.2069 -1.5836  2.3376
   39CHL1  H11B 2848   6.493  -0.061   3.397 -0.4115  2.9561 -0.5379
   39CHL1    C9 2849   6.646   0.084   3.342 -0.3893  0.3596  0.1498
   39CHL1    H9 2850   6.569   0.165   3.344 -0.4480  0.3385  3.0680
   39CHL1   C10 2851   6.673   0.040   3.192 -0.2104 -0.4517 -0.1530
   39CHL1   C19 2852   6.763  -0.083   3.185  0.2933  0.2604  0.0733
   39CHL1  H19A 2853   6.857  -0.068   3.243  0.8837 -1.3598 -0.4313
   39CHL1  H19B 2854   6.711  -0.172   3.227 -1.2542  0.2114 -1.8257
   39CHL1  H19C 2855   6.781  -0.107   3.079 -0.5017 -2.9176  0.5683
   39CHL1    C1 2856   6.544   0.014   3.118  0.2494 -0.1282 -0.4734
   39CHL1   H1A 2857   6.484  -0.069   3.161  0.6652 -0.6192 -0.8082
   39CHL1   H1B 2858   6.487   0.108   3.130  0.5619  0.1120 -0.8185
   39CHL1    C2 2859   6.571  -0.015   2.969  0.0569 -0.0853  0.3088
   39CHL1   H2A 2860   6.473  -0.020   2.916 -0.9943  1.7974  1.9136
   39CHL1   H2B 2861   6.631  -0.107   2.957 -1.4583 -1.2805  1.4760
   39CHL1   C20 2862   6.638   0.048   3.907  0.2126  0.4931  0.1476
   39CHL1   H20 2863   6.732  -0.004   3.933 -0.7854 -0.5541  1.8826
   39CHL1   C21 2864   6.529  -0.057   3.883  0.5385  1.3408  0.1783
   39CHL1  H21A 2865   6.494  -0.105   3.976  0.5246 -0.3306 -0.6660
   39CHL1  H21B 2866   6.560  -0.139   3.816 -2.2546  1.0253 -0.8653
   39CHL1  H21C 2867   6.439  -0.008   3.839 -0.4301  0.5532  1.2491
   39CHL1   C22 2868   6.607   0.135   4.031 -0.4927 -0.6831  0.8698
   39CHL1  H22A 2869   6.669   0.228   4.037 -0.7123 -0.5276  0.7422
   39CHL1  H22B 2870   6.503   0.175   4.029 -0.1407  0.2533  0.5886
   39CHL1   C23 2871   6.638   0.069   4.169  0.6037 -0.2257 -0.6911
   39CHL1  H23A 2872   6.561  -0.006   4.194 -0.4488  0.7811 -0.8209
   39CHL1  H23B 2873   6.731   0.009   4.159 -1.3233 -3.1172 -2.3981
   39CHL1   C24 2874   6.650   0.169   4.287  0.1414  0.5293 -0.1600
   39CHL1  H24A 2875   6.743   0.229   4.280  0.9389 -0.4744  1.3259
   39CHL1  H24B 2876   6.575   0.251   4.293  0.0062  0.3689  0.3576
   39CHL1   C25 2877   6.645   0.095   4.429  0.4808 -0.0544  0.9663
   39CHL1   H25 2878   6.545   0.049   4.438  0.2201  0.2054 -0.3997
   39CHL1   C26 2879   6.759  -0.006   4.450  0.1782 -0.4407  0.6864
   39CHL1  H26A 2880   6.742  -0.083   4.528  3.1375 -2.4611 -0.4667
   39CHL1  H26B 2881   6.800  -0.047   4.355 -0.2401  1.2451 -0.2724
   39CHL1  H26C 2882   6.846   0.051   4.489  2.1030 -1.3644 -1.9285
   39CHL1   C27 2883   6.644   0.196   4.538  0.3976 -0.3177  0.2614
   39CHL1  H27A 2884   6.723   0.272   4.518 -1.6029  1.9764  0.5459
   39CHL1  H27B 2885   6.552   0.257   4.548  0.0856 -0.8066  0.3743
   39CHL1  H27C 2886   6.658   0.159   4.642  0.1801 -0.3317  0.2847
   40CHL1    C3 2887   5.455   2.441   2.618 -0.5022 -0.2724 -0.5580
   40CHL1    H3 2888   5.498   2.543   2.615  0.8880 -0.7117  1.7579
   40CHL1    O3 2889   5.416   2.395   2.488 -0.1370  0.3769 -0.1141
   40CHL1   H3' 2890   5.377   2.307   2.496  1.6395 -0.3271  1.6677
   40CHL1    C4 2891   5.574   2.347   2.658 -0.2051 -0.6178  0.0506
   40CHL1   H4A 2892   5.544   2.241   2.648  2.2465 -1.4900  1.1818
   40CHL1   H4B 2893   5.653   2.371   2.584 -0.9932 -1.7884 -1.2079
   40CHL1    C5 2894   5.610   2.361   2.803  1.1058 -0.4952  0.2109
   40CHL1    C6 2895   5.733   2.387   2.839  0.5418 -0.1264 -0.3969
   40CHL1    H6 2896   5.814   2.409   2.767 -0.3999  3.3332 -0.5908
   40CHL1    C7 2897   5.777   2.382   2.978  0.3817 -0.2942  0.0710
   40CHL1   H7A 2898   5.872   2.325   2.982 -0.0302 -1.0670 -0.7746
   40CHL1   H7B 2899   5.788   2.485   3.018 -0.2451 -0.5984  1.0357
   40CHL1    C8 2900   5.677   2.313   3.079 -0.1045  0.3415  0.5010
   40CHL1    H8 2901   5.663   2.206   3.053 -0.4241  1.0762 -2.7237
   40CHL1   C14 2902   5.725   2.339   3.217  0.1707 -0.6164 -0.5145
   40CHL1   H14 2903   5.743   2.449   3.219 -1.2629 -0.3585  0.9770
   40CHL1   C15 2904   5.855   2.281   3.268 -0.3227  0.3107 -0.0585
   40CHL1  H15A 2905   5.864   2.175   3.238 -1.4724  0.9451 -3.0180
   40CHL1  H15B 2906   5.941   2.332   3.219  0.0332 -0.6364 -0.4415
   40CHL1   C16 2907   5.857   2.301   3.420  0.4705  0.1600 -0.3366
   40CHL1  H16A 2908   5.878   2.203   3.467 -1.5207  0.0773  0.4540
   40CHL1  H16B 2909   5.927   2.376   3.463  0.5617  0.1581 -0.4791
   40CHL1   C17 2910   5.714   2.343   3.458  0.7746 -1.0675 -0.1933
   40CHL1   H17 2911   5.708   2.453   3.465 -1.0929 -1.1631  0.4588
   40CHL1   C13 2912   5.623   2.317   3.328  0.0434 -0.1663 -0.0303
   40CHL1   C18 2913   5.596   2.164   3.336  0.9007 -0.0659  0.0235
   40CHL1  H18A 2914   5.506   2.162   3.401  0.4271  0.8581 -0.5787
   40CHL1  H18B 2915   5.567   2.136   3.232  0.2007 -2.9409  0.8976
   40CHL1  H18C 2916   5.678   2.098   3.371  0.0967  0.3095  2.8531
   40CHL1   C12 2917   5.505   2.412   3.294  0.3571 -0.1270 -0.4722
   40CHL1  H12A 2918   5.424   2.397   3.369  0.5452  3.3066  0.5616
   40CHL1  H12B 2919   5.549   2.514   3.295 -0.6054  0.3020  1.2993
   40CHL1   C11 2920   5.451   2.381   3.160  0.4612 -0.0720  0.2905
   40CHL1  H11A 2921   5.411   2.278   3.159  2.4245 -0.8861  0.4419
   40CHL1  H11B 2922   5.366   2.452   3.157 -0.6119 -1.2414  1.6499
   40CHL1    C9 2923   5.549   2.387   3.045  0.2861  0.6510 -0.4265
   40CHL1    H9 2924   5.568   2.496   3.043 -0.8944  0.9413  1.4074
   40CHL1   C10 2925   5.500   2.350   2.901 -0.0013 -0.3913 -0.2230
   40CHL1   C19 2926   5.441   2.204   2.898 -0.4756  0.3657  0.0218
   40CHL1  H19A 2927   5.518   2.130   2.927 -0.5316  0.2829 -0.0393
   40CHL1  H19B 2928   5.351   2.208   2.963 -1.9703 -0.3223 -1.9031
   40CHL1  H19C 2929   5.415   2.173   2.795  0.4624  0.6187 -0.3026
   40CHL1    C1 2930   5.384   2.454   2.863  0.0318  0.7253  0.2246
   40CHL1   H1A 2931   5.296   2.448   2.931 -0.1108  1.5816  0.1288
   40CHL1   H1B 2932   5.424   2.557   2.874  0.3479  0.5305  0.9789
   40CHL1    C2 2933   5.336   2.428   2.719  0.2078  0.5757 -0.7558
   40CHL1   H2A 2934   5.249   2.496   2.705 -1.1430 -0.6155  1.2967
   40CHL1   H2B 2935   5.304   2.322   2.713  0.4481  0.5586 -2.1661
   40CHL1   C20 2936   5.659   2.287   3.585  0.2759  0.2606  0.8646
   40CHL1   H20 2937   5.630   2.180   3.580 -0.1535  0.3950  0.4202
   40CHL1   C21 2938   5.530   2.365   3.619 -0.4781 -0.7601 -0.0932
   40CHL1  H21A 2939   5.540   2.475   3.604 -2.0445 -0.0766  3.0777
   40CHL1  H21B 2940   5.496   2.340   3.722 -1.4231 -1.8266 -0.6398
   40CHL1  H21C 2941   5.456   2.331   3.544  0.0601  3.0509 -2.6452
   40CHL1   C22 2942   5.772   2.296   3.693  0.8127  0.0455 -0.0945
   40CHL1  H22A 2943   5.866   2.242   3.665  2.0650  1.6824  0.7526
   40CHL1  H22B 2944   5.808   2.401   3.701  2.3631 -0.4535 -0.0972
   40CHL1   C23 2945   5.728   2.242   3.836 -0.2239 -0.7186  0.1771
   40CHL1  H23A 2946   5.649   2.309   3.878 -0.4771 -0.7966 -0.1664
   40CHL1  H23B 2947   5.683   2.140   3.829  1.7472 -1.5304 -3.3189
   40CHL1   C24 2948   5.847   2.260   3.940  0.7615  0.4318 -0.3814
   40CHL1  H24A 2949   5.931   2.194   3.912 -0.1920 -1.0563  0.1238
   40CHL1  H24B 2950   5.890   2.360   3.920  2.7659 -0.3576 -0.2992
   40CHL1   C25 2951   5.815   2.242   4.093  0.4676 -0.3368  1.0763
   40CHL1   H25 2952   5.737   2.320   4.109  0.7065  0.3569 -0.8228
   40CHL1   C26 2953   5.763   2.106   4.137  0.4091 -0.1594  0.3523
   40CHL1  H26A 2954   5.655   2.096   4.113  0.4847 -1.2404  0.4274
   40CHL1  H26B 2955   5.831   2.032   4.091 -2.1229 -1.0811 -2.2149
   40CHL1  H26C 2956   5.771   2.109   4.248  0.6056  1.0766  0.3226
   40CHL1   C27 2957   5.930   2.278   4.184 -0.1098  0.4638 -0.5043
   40CHL1  H27A 2958   5.894   2.316   4.282 -1.8496 -1.3217 -0.3736
   40CHL1  H27B 2959   6.005   2.197   4.194 -1.3677 -0.6895 -0.1388
   40CHL1  H27C 2960   5.984   2.358   4.130  1.6908  0.9859  1.8895
   41CHL1    C3 2961   3.343   6.728   2.699 -0.8597  0.9057 -0.1943
   41CHL1    H3 2962   3.334   6.839   2.700  0.4594  1.1002 -2.5601
   41CHL1    O3 2963   3.354   6.706   2.556 -0.3313  0.3183 -0.3546
   41CHL1   H3' 2964   3.401   6.782   2.521 -0.1306  0.0512 -0.6686
   41CHL1    C4 2965   3.466   6.670   2.764  0.4277  0.5572 -0.9512
   41CHL1   H4A 2966   3.480   6.569   2.719  0.3029 -1.5942  3.3862
   41CHL1   H4B 2967   3.561   6.723   2.745  1.4967 -0.1538  2.0478
   41CHL1    C5 2968   3.452   6.653   2.918  0.0697 -0.2878  0.1625
   41CHL1    C6 2969   3.534   6.718   3.002  0.0968  0.4848 -0.0883
   41CHL1    H6 2970   3.619   6.774   2.959 -0.6732  2.9926  1.3865
   41CHL1    C7 2971   3.520   6.709   3.154  0.1496  0.5106 -1.0840
   41CHL1   H7A 2972   3.619   6.708   3.204 -0.2047  1.0030 -0.3446
   41CHL1   H7B 2973   3.477   6.804   3.192 -0.4329 -0.1913  0.0672
   41CHL1    C8 2974   3.432   6.587   3.201 -0.3757 -0.2899  0.4773
   41CHL1    H8 2975   3.492   6.496   3.177  0.9234  0.6167  0.1646
   41CHL1   C14 2976   3.400   6.593   3.351 -0.2732  1.1815 -0.0910
   41CHL1   H14 2977   3.345   6.689   3.356  1.1159  2.0640 -0.8841
   41CHL1   C15 2978   3.512   6.635   3.452  0.0844  0.7277  0.2675
   41CHL1  H15A 2979   3.591   6.557   3.450 -0.4716  0.1292  1.0286
   41CHL1  H15B 2980   3.547   6.737   3.423 -0.0317  0.5011 -0.7122
   41CHL1   C16 2981   3.432   6.632   3.581  0.5658 -0.7860 -0.3219
   41CHL1  H16A 2982   3.485   6.577   3.662 -2.5675 -1.1019  1.6727
   41CHL1  H16B 2983   3.417   6.730   3.629 -1.6399 -1.9682  1.5816
   41CHL1   C17 2984   3.294   6.565   3.558 -0.3927  0.8017 -0.3817
   41CHL1   H17 2985   3.220   6.647   3.547 -0.8093  0.3260 -1.2489
   41CHL1   C13 2986   3.303   6.499   3.421 -0.8606  0.4756 -1.0527
   41CHL1   C18 2987   3.382   6.367   3.435 -0.0090 -0.2606 -0.0546
   41CHL1  H18A 2988   3.415   6.350   3.331  1.3408 -1.8602  0.5874
   41CHL1  H18B 2989   3.468   6.382   3.504 -0.5552 -1.5090  0.9381
   41CHL1  H18C 2990   3.330   6.280   3.480  0.1972 -0.1131  0.4764
   41CHL1   C12 2991   3.175   6.498   3.337  0.3406 -1.0327  0.7786
   41CHL1  H12A 2992   3.101   6.419   3.362 -1.8043 -0.4173 -2.7992
   41CHL1  H12B 2993   3.119   6.594   3.344  1.2343 -0.3484 -0.9183
   41CHL1   C11 2994   3.195   6.477   3.183  0.1175 -0.2027 -0.0592
   41CHL1  H11A 2995   3.234   6.373   3.184  2.3289  0.5729  0.0077
   41CHL1  H11B 2996   3.092   6.483   3.143 -0.1691  0.3020  0.7349
   41CHL1    C9 2997   3.292   6.588   3.125 -0.5056  0.5096  1.0065
   41CHL1    H9 2998   3.239   6.683   3.148 -0.9239  0.2300  1.2223
   41CHL1   C10 2999   3.327   6.578   2.969  0.6890  0.5102 -0.0051
   41CHL1   C19 3000   3.355   6.426   2.941  0.0041  1.2233 -0.2740
   41CHL1  H19A 3001   3.258   6.374   2.926  0.9507 -0.7699  0.1378
   41CHL1  H19B 3002   3.420   6.394   2.856 -1.4598  1.1375 -1.4012
   41CHL1  H19C 3003   3.404   6.373   3.026  0.4968 -0.7989 -1.7337
   41CHL1    C1 3004   3.203   6.630   2.894  0.1799  0.1973  0.2005
   41CHL1   H1A 3005   3.117   6.563   2.915  3.2550 -3.2700  3.1043
   41CHL1   H1B 3006   3.177   6.726   2.943  0.9336 -0.9469  3.0045
   41CHL1    C2 3007   3.217   6.646   2.744 -0.2720 -0.4175  0.7256
   41CHL1   H2A 3008   3.134   6.708   2.704  0.4432 -0.3773 -0.7563
   41CHL1   H2B 3009   3.204   6.546   2.698  0.0762 -1.4048  2.6619
   41CHL1   C20 3010   3.238   6.479   3.672 -0.3338 -0.1684 -0.5808
   41CHL1   H20 3011   3.303   6.390   3.686  0.8783  0.6589 -0.7137
   41CHL1   C21 3012   3.097   6.425   3.642  0.3417 -0.2593  0.0216
   41CHL1  H21A 3013   3.106   6.330   3.584  2.7875 -0.0637 -0.0162
   41CHL1  H21B 3014   3.027   6.479   3.576  0.6359 -0.9804 -0.9124
   41CHL1  H21C 3015   3.040   6.401   3.734  0.0641  0.0569 -0.0679
   41CHL1   C22 3016   3.233   6.550   3.809  0.1157 -0.2621 -0.1982
   41CHL1  H22A 3017   3.325   6.607   3.836 -0.1885 -0.5226  1.5289
   41CHL1  H22B 3018   3.147   6.620   3.807  2.2171  2.5705  0.6932
   41CHL1   C23 3019   3.231   6.464   3.935 -0.2371  0.4147  1.4476
   41CHL1  H23A 3020   3.144   6.396   3.925  0.6113 -0.5442  0.3133
   41CHL1  H23B 3021   3.324   6.405   3.947 -0.9941 -0.5233  3.0846
   41CHL1   C24 3022   3.225   6.556   4.062  0.2508  0.0380  0.0689
   41CHL1  H24A 3023   3.322   6.610   4.068 -1.2627  2.8182  2.0550
   41CHL1  H24B 3024   3.135   6.621   4.054  0.6410  0.3662 -2.3920
   41CHL1   C25 3025   3.214   6.461   4.181  0.2995  0.4931 -0.1676
   41CHL1   H25 3026   3.292   6.382   4.171  0.5336  0.5716  0.8926
   41CHL1   C26 3027   3.236   6.530   4.318 -0.1068  0.6300  0.8177
   41CHL1  H26A 3028   3.229   6.450   4.395 -0.8710  0.7569  0.8935
   41CHL1  H26B 3029   3.331   6.586   4.329 -0.2363  1.2762 -1.0010
   41CHL1  H26C 3030   3.153   6.602   4.338 -0.7163 -0.1950  1.3354
   41CHL1   C27 3031   3.074   6.387   4.186  0.0057  0.4655 -0.0868
   41CHL1  H27A 3032   3.070   6.323   4.277  0.6977  1.1474  0.4301
   41CHL1  H27B 3033   2.990   6.459   4.182  0.0490  0.4928 -0.5798
   41CHL1  H27C 3034   3.066   6.326   4.094 -0.0955 -0.1741  0.3374
   42CHL1    C3 3035   4.274   5.594   2.781  0.3713 -0.6454  0.6839
   42CHL1    H3 3036   4.383   5.573   2.784  0.3393 -0.7218  2.0756
   42CHL1    O3 3037   4.232   5.670   2.667 -0.7379  0.0062 -0.0976
   42CHL1   H3' 3038   4.137   5.671   2.679 -0.4263 -0.6023  4.3118
   42CHL1    C4 3039   4.200   5.454   2.792 -0.8061 -0.4675  0.4150
   42CHL1   H4A 3040   4.094   5.470   2.765 -0.8438 -1.3254  0.0255
   42CHL1   H4B 3041   4.237   5.398   2.703 -0.2770 -0.0135  0.3381
   42CHL1    C5 3042   4.219   5.382   2.920 -0.6557 -0.1631  0.1798
   42CHL1    C6 3043   4.264   5.254   2.931 -0.1024  0.2546  0.1581
   42CHL1    H6 3044   4.298   5.200   2.842  0.4488  0.0224  0.5045
   42CHL1    C7 3045   4.289   5.188   3.065 -0.2536  0.3316  0.4213
   42CHL1   H7A 3046   4.261   5.081   3.064  1.7508 -0.3144  2.6795
   42CHL1   H7B 3047   4.398   5.178   3.084 -0.2333 -0.8998 -0.2264
   42CHL1    C8 3048   4.203   5.254   3.179 -0.0647 -0.6421  0.0995
   42CHL1    H8 3049   4.094   5.238   3.162 -0.3129  0.4825  0.5809
   42CHL1   C14 3050   4.238   5.193   3.308  0.2041 -0.1049  0.4629
   42CHL1   H14 3051   4.348   5.210   3.309  0.0196  1.5732 -1.4232
   42CHL1   C15 3052   4.213   5.038   3.306  0.1107  0.2901 -0.4153
   42CHL1  H15A 3053   4.104   5.013   3.304  0.0108  0.7168 -1.9531
   42CHL1  H15B 3054   4.278   4.976   3.241 -1.0166 -1.0352 -0.3292
   42CHL1   C16 3055   4.259   5.020   3.455  0.3383  0.3590 -0.2943
   42CHL1  H16A 3056   4.194   4.950   3.512  0.1919  0.1459 -0.7207
   42CHL1  H16B 3057   4.360   4.976   3.468 -0.5598 -1.6483  0.1624
   42CHL1   C17 3058   4.246   5.156   3.533  0.3675 -0.5183  0.3458
   42CHL1   H17 3059   4.349   5.196   3.552  0.2511 -1.4820  3.7035
   42CHL1   C13 3060   4.180   5.250   3.428 -0.5488 -0.0145 -0.6184
   42CHL1   C18 3061   4.028   5.236   3.435  0.5228  0.5406 -0.9892
   42CHL1  H18A 3062   3.976   5.294   3.514 -1.6406 -0.0791 -1.8922
   42CHL1  H18B 3063   3.972   5.266   3.344 -0.8926 -0.8357 -0.6039
   42CHL1  H18C 3064   4.001   5.130   3.454 -0.6509  0.9432 -0.3202
   42CHL1   C12 3065   4.226   5.398   3.431  0.4804 -0.7023  0.8447
   42CHL1  H12A 3066   4.198   5.451   3.525  0.2018 -0.9303  0.8932
   42CHL1  H12B 3067   4.337   5.393   3.427  0.4826  0.0854 -1.1689
   42CHL1   C11 3068   4.183   5.477   3.303 -0.4831 -0.4045  0.4826
   42CHL1  H11A 3069   4.072   5.489   3.302 -0.5816 -1.0905  1.3776
   42CHL1  H11B 3070   4.226   5.579   3.307  1.3217 -1.1488  0.5806
   42CHL1    C9 3071   4.226   5.405   3.172 -0.8376  0.5481 -0.0465
   42CHL1    H9 3072   4.337   5.411   3.169 -0.8745  1.1978 -0.3812
   42CHL1   C10 3073   4.185   5.468   3.039  0.0971 -0.7402 -0.4530
   42CHL1   C19 3074   4.030   5.493   3.036  0.2152  0.2505  0.1076
   42CHL1  H19A 3075   3.977   5.397   3.050  3.5456 -1.8282 -0.4732
   42CHL1  H19B 3076   4.001   5.568   3.114  1.5811  0.8113  0.1131
   42CHL1  H19C 3077   4.008   5.535   2.936  1.0023  1.3319  0.3624
   42CHL1    C1 3078   4.268   5.598   3.035  0.1497 -0.4546  0.3864
   42CHL1   H1A 3079   4.259   5.662   3.125  0.3739 -0.6694  0.5646
   42CHL1   H1B 3080   4.378   5.584   3.027  0.3087  1.1158 -0.7013
   42CHL1    C2 3081   4.243   5.676   2.902  0.0633  0.1992  0.1504
   42CHL1   H2A 3082   4.305   5.769   2.902  2.1664 -1.1214 -1.2481
   42CHL1   H2B 3083   4.143   5.723   2.893  1.0349  2.0408 -2.1511
   42CHL1   C20 3084   4.183   5.150   3.669 -0.0369 -0.2574 -0.0347
   42CHL1   H20 3085   4.078   5.113   3.665 -0.9225  2.0989  0.0292
   42CHL1   C21 3086   4.204   5.289   3.732  0.1277  0.1463 -0.3403
   42CHL1  H21A 3087   4.140   5.364   3.682  0.9781  0.8551 -0.4030
   42CHL1  H21B 3088   4.311   5.319   3.725  0.2510  0.0127  0.8212
   42CHL1  H21C 3089   4.163   5.284   3.835  1.3611  0.6134  0.2038
   42CHL1   C22 3090   4.245   5.050   3.764 -0.8551  0.9102  0.2053
   42CHL1  H22A 3091   4.256   4.949   3.719  1.2325  0.8039  0.8441
   42CHL1  H22B 3092   4.349   5.080   3.792 -0.2125  0.3893 -1.5400
   42CHL1   C23 3093   4.155   5.033   3.886  0.6409  1.4181 -0.2032
   42CHL1  H23A 3094   4.142   5.122   3.952  0.6650  1.9075 -0.8402
   42CHL1  H23B 3095   4.058   5.000   3.843  1.2759 -2.3171  0.9540
   42CHL1   C24 3096   4.206   4.913   3.966  0.5643 -0.3200  0.6010
   42CHL1  H24A 3097   4.218   4.829   3.894  0.8949  0.0907  0.1750
   42CHL1  H24B 3098   4.304   4.938   4.011  1.8444 -1.2762 -1.5265
   42CHL1   C25 3099   4.086   4.863   4.060 -0.0466 -0.2966 -0.0757
   42CHL1   H25 3100   3.995   4.844   3.999 -0.1359  2.5740 -0.9645
   42CHL1   C26 3101   4.131   4.730   4.128  0.7825  0.8445 -0.0872
   42CHL1  H26A 3102   4.181   4.658   4.060 -0.3104 -0.2875  0.2786
   42CHL1  H26B 3103   4.195   4.752   4.216  2.0812 -0.2194 -0.7475
   42CHL1  H26C 3104   4.038   4.681   4.165 -0.6760  2.4264 -1.4709
   42CHL1   C27 3105   4.049   4.958   4.177 -0.0492 -0.1748 -0.3499
   42CHL1  H27A 3106   4.142   4.993   4.227 -0.2548 -0.2534  0.0880
   42CHL1  H27B 3107   4.003   5.046   4.127  0.6957  0.0531 -0.6447
   42CHL1  H27C 3108   3.977   4.915   4.249 -0.0147 -0.4961 -0.5068
   43CHL1    C3 3109   6.612   6.183   3.080  0.2792 -0.3257  0.7499
   43CHL1    H3 3110   6.673   6.091   3.091 -0.6027 -0.8318  1.5121
   43CHL1    O3 3111   6.589   6.195   2.941 -0.8341  0.6898 -0.5146
   43CHL1   H3' 3112   6.575   6.109   2.902 -0.5864  0.2859  0.2603
   43CHL1    C4 3113   6.478   6.172   3.148  0.4537 -0.1709 -0.4944
   43CHL1   H4A 3114   6.423   6.263   3.114 -0.3620  1.1009  3.5645
   43CHL1   H4B 3115   6.428   6.085   3.102  0.8410 -0.0077 -1.2268
   43CHL1    C5 3116   6.490   6.164   3.302  0.4454  0.2472 -0.8098
   43CHL1    C6 3117   6.451   6.061   3.383 -0.2673  0.0513 -0.3347
   43CHL1    H6 3118   6.399   5.978   3.333  1.1167 -1.0735  0.0423
   43CHL1    C7 3119   6.465   6.059   3.533  0.1366 -0.2924  0.0584
   43CHL1   H7A 3120   6.378   6.016   3.586 -0.0203  0.5064  0.4723
   43CHL1   H7B 3121   6.551   5.991   3.551 -1.7392 -2.7582  0.2183
   43CHL1    C8 3122   6.495   6.195   3.600  0.4520  0.0097 -0.3536
   43CHL1    H8 3123   6.394   6.241   3.607  0.3435 -0.3681  0.8288
   43CHL1   C14 3124   6.546   6.165   3.744 -0.4693 -0.1860 -0.1663
   43CHL1   H14 3125   6.639   6.106   3.733  0.6228  1.5598 -0.7902
   43CHL1   C15 3126   6.464   6.086   3.837  0.7598 -0.1320 -0.9173
   43CHL1  H15A 3127   6.355   6.107   3.837  0.8025  0.1043  0.1391
   43CHL1  H15B 3128   6.485   5.978   3.820  0.5696 -0.4674  0.7904
   43CHL1   C16 3129   6.517   6.119   3.973 -0.7382 -0.7888 -0.1297
   43CHL1  H16A 3130   6.438   6.171   4.031 -0.5034 -1.8065  1.1415
   43CHL1  H16B 3131   6.551   6.027   4.026  1.6124 -0.5951 -1.1899
   43CHL1   C17 3132   6.628   6.231   3.952 -0.0917 -1.1051 -0.4825
   43CHL1   H17 3133   6.732   6.194   3.943 -0.4004 -1.8376 -1.1995
   43CHL1   C13 3134   6.589   6.295   3.818 -0.3602  0.2292  0.8792
   43CHL1   C18 3135   6.463   6.380   3.822  0.0185  0.6613 -0.1117
   43CHL1  H18A 3136   6.376   6.315   3.845  0.8927 -0.5455 -0.0847
   43CHL1  H18B 3137   6.488   6.456   3.899  2.5242 -0.9495  0.8007
   43CHL1  H18C 3138   6.436   6.427   3.725  1.7305 -0.4676 -1.2140
   43CHL1   C12 3139   6.700   6.365   3.733 -0.0505 -0.1308 -0.2402
   43CHL1  H12A 3140   6.716   6.465   3.779  0.1561 -1.0245  1.7657
   43CHL1  H12B 3141   6.782   6.290   3.736 -0.2875 -0.3992 -0.3625
   43CHL1   C11 3142   6.650   6.390   3.586 -0.6481 -0.2568  0.1621
   43CHL1  H11A 3143   6.572   6.469   3.590 -0.1234  0.2101  1.9244
   43CHL1  H11B 3144   6.733   6.441   3.532 -0.4871  2.2558  2.5868
   43CHL1    C9 3145   6.605   6.259   3.517  0.6030 -0.0743  0.3116
   43CHL1    H9 3146   6.691   6.190   3.525  0.1789 -0.9688 -2.2394
   43CHL1   C10 3147   6.567   6.281   3.366  0.7843 -0.2378  0.1555
   43CHL1   C19 3148   6.466   6.389   3.358 -0.4608  0.2449  0.3730
   43CHL1  H19A 3149   6.379   6.368   3.425 -0.2700  0.9774  0.8594
   43CHL1  H19B 3150   6.511   6.480   3.404  3.5298 -0.7038 -1.2461
   43CHL1  H19C 3151   6.438   6.425   3.257  1.1493  1.0338  0.1897
   43CHL1    C1 3152   6.704   6.310   3.282  0.4185  0.2119 -0.2257
   43CHL1   H1A 3153   6.759   6.401   3.315  1.8824 -1.2365  1.5036
   43CHL1   H1B 3154   6.762   6.217   3.299 -2.6233 -1.9826 -0.9019
   43CHL1    C2 3155   6.688   6.309   3.130 -0.8512  0.6716 -0.0964
   43CHL1   H2A 3156   6.785   6.326   3.078 -1.3393  0.6824 -1.0367
   43CHL1   H2B 3157   6.628   6.397   3.097 -1.3642  0.8967  1.3644
   43CHL1   C20 3158   6.624   6.321   4.071  0.1245 -0.2261 -0.2722
   43CHL1   H20 3159   6.528   6.376   4.078  0.2028 -0.2608  1.6568
   43CHL1   C21 3160   6.735   6.424   4.067  0.4329 -0.0140 -0.0251
   43CHL1  H21A 3161   6.725   6.486   4.159  0.3780  0.7525 -0.5396
   43CHL1  H21B 3162   6.719   6.504   3.991 -0.6185  2.1746  2.3303
   43CHL1  H21C 3163   6.834   6.373   4.060  0.7684  0.7188 -0.8077
   43CHL1   C22 3164   6.633   6.233   4.201  0.2292 -1.1146  0.6889
   43CHL1  H22A 3165   6.528   6.205   4.223 -1.1095  1.8485 -1.3013
   43CHL1  H22B 3166   6.700   6.149   4.175  1.0781  0.5623 -3.1579
   43CHL1   C23 3167   6.699   6.297   4.328 -0.3139  0.1798 -0.4351
   43CHL1  H23A 3168   6.804   6.323   4.302  0.7742 -1.1137  2.2548
   43CHL1  H23B 3169   6.637   6.385   4.352  0.5569  0.4853  0.7658
   43CHL1   C24 3170   6.706   6.196   4.441 -0.4174  1.0271 -0.4239
   43CHL1  H24A 3171   6.605   6.162   4.474  0.6251 -1.3110  0.5881
   43CHL1  H24B 3172   6.762   6.101   4.427  0.2043  1.0888  1.3928
   43CHL1   C25 3173   6.760   6.261   4.572 -0.2175  0.1888 -0.7427
   43CHL1   H25 3174   6.860   6.305   4.552 -0.0696 -0.7838 -2.3653
   43CHL1   C26 3175   6.665   6.365   4.637  0.1849 -0.7974  0.1862
   43CHL1  H26A 3176   6.569   6.315   4.615  0.1634 -0.4899 -0.4311
   43CHL1  H26B 3177   6.674   6.363   4.748  0.9055 -0.4887  0.1379
   43CHL1  H26C 3178   6.654   6.461   4.582 -0.3077 -1.3358 -0.6618
   43CHL1   C27 3179   6.773   6.144   4.677 -0.0872 -0.2989 -0.1398
   43CHL1  H27A 3180   6.798   6.196   4.772 -1.9255 -0.4756  0.4701
   43CHL1  H27B 3181   6.687   6.075   4.686  0.3571 -1.0813 -1.5571
   43CHL1  H27C 3182   6.859   6.079   4.649 -0.9019 -1.8221  0.7620
   44CHL1    C3 3183   5.598   6.301   2.697 -0.7287 -0.3080  0.5739
   44CHL1    H3 3184   5.499   6.254   2.714 -1.1058  0.5597  0.8739
   44CHL1    O3 3185   5.640   6.293   2.559 -0.4675 -0.7782 -0.1989
   44CHL1   H3' 3186   5.701   6.367   2.555 -3.0238  1.4827 -0.1787
   44CHL1    C4 3187   5.597   6.449   2.733  0.1157  0.2011 -0.0608
   44CHL1   H4A 3188   5.694   6.495   2.708  1.5546 -2.6990 -0.2108
   44CHL1   H4B 3189   5.520   6.502   2.672  1.2667  0.7664 -1.0711
   44CHL1    C5 3190   5.578   6.473   2.883 -0.1553  0.5469 -0.0940
   44CHL1    C6 3191   5.481   6.554   2.927  0.2797 -0.1066  0.1363
   44CHL1    H6 3192   5.430   6.610   2.848  0.1992 -0.2760  0.0670
   44CHL1    C7 3193   5.464   6.597   3.072 -0.3414 -0.3292 -0.1381
   44CHL1   H7A 3194   5.461   6.707   3.081 -0.1824 -0.2857 -0.5674
   44CHL1   H7B 3195   5.374   6.546   3.113 -1.4479 -0.3919 -2.4435
   44CHL1    C8 3196   5.580   6.549   3.170 -0.2426  0.0514  0.3427
   44CHL1    H8 3197   5.663   6.622   3.165 -1.2483  1.1622 -0.8378
   44CHL1   C14 3198   5.532   6.538   3.311 -0.0852 -0.1201 -0.0116
   44CHL1   H14 3199   5.457   6.456   3.316 -0.0170 -0.1351  0.8779
   44CHL1   C15 3200   5.463   6.663   3.378 -0.0992  0.5078  0.5043
   44CHL1  H15A 3201   5.524   6.747   3.338  0.6254 -0.8077 -1.2664
   44CHL1  H15B 3202   5.360   6.671   3.338  0.1608  1.0963 -0.0651
   44CHL1   C16 3203   5.475   6.629   3.524  0.0096 -0.9701 -0.3546
   44CHL1  H16A 3204   5.532   6.715   3.564  0.8040 -1.0181 -1.3269
   44CHL1  H16B 3205   5.377   6.619   3.574 -0.4287  5.1627  0.7588
   44CHL1   C17 3206   5.563   6.501   3.540 -0.0999 -0.3834  0.2341
   44CHL1   H17 3207   5.488   6.419   3.543 -0.7203  0.1938  1.0807
   44CHL1   C13 3208   5.638   6.493   3.407 -0.3444  0.0220 -0.1288
   44CHL1   C18 3209   5.746   6.601   3.406 -0.6366 -0.2043  0.4662
   44CHL1  H18A 3210   5.799   6.607   3.309  0.4169  0.8643  1.0830
   44CHL1  H18B 3211   5.705   6.699   3.438  1.0231  0.8723 -0.5458
   44CHL1  H18C 3212   5.817   6.575   3.488 -1.8635  2.4391  2.5063
   44CHL1   C12 3213   5.680   6.352   3.367 -0.1793  0.2131  0.2813
   44CHL1  H12A 3214   5.749   6.317   3.447  0.9327  1.0836 -0.2624
   44CHL1  H12B 3215   5.586   6.293   3.371 -0.3496  0.5184  1.3329
   44CHL1   C11 3216   5.738   6.356   3.227  0.2235  0.3839  0.5938
   44CHL1  H11A 3217   5.837   6.406   3.232  0.5992 -0.4724  2.2068
   44CHL1  H11B 3218   5.752   6.247   3.215 -0.1319  0.2064  1.7512
   44CHL1    C9 3219   5.628   6.409   3.128 -0.6257  0.5993 -0.1496
   44CHL1    H9 3220   5.542   6.340   3.144 -1.4067  1.8098  1.1711
   44CHL1   C10 3221   5.674   6.397   2.979  0.3582  0.3202 -0.3630
   44CHL1   C19 3222   5.820   6.457   2.968 -0.2610 -0.2124 -0.0437
   44CHL1  H19A 3223   5.831   6.561   3.007  1.8295 -0.1922 -0.5951
   44CHL1  H19B 3224   5.889   6.386   3.018  0.3719  0.3850 -0.0598
   44CHL1  H19C 3225   5.857   6.451   2.864 -0.4229 -3.0255 -0.0050
   44CHL1    C1 3226   5.679   6.250   2.928  0.0949  0.2284  0.2674
   44CHL1   H1A 3227   5.741   6.188   2.997 -1.5107 -1.2181  0.4706
   44CHL1   H1B 3228   5.578   6.206   2.939 -0.1833  0.7374 -0.2476
   44CHL1    C2 3229   5.713   6.233   2.780 -0.2289 -0.1694  0.3167
   44CHL1   H2A 3230   5.710   6.125   2.753  0.7229 -0.5157  1.4977
   44CHL1   H2B 3231   5.808   6.274   2.739 -0.0432 -1.3786 -0.5381
   44CHL1   C20 3232   5.637   6.501   3.677  0.0165  0.1582  0.3676
   44CHL1   H20 3233   5.705   6.588   3.690 -0.8348  0.7140  1.2701
   44CHL1   C21 3234   5.716   6.370   3.688  0.0785  0.2390 -0.2089
   44CHL1  H21A 3235   5.651   6.282   3.667 -0.3012  0.5378 -0.2933
   44CHL1  H21B 3236   5.767   6.355   3.786  1.0065 -2.6203 -1.0211
   44CHL1  H21C 3237   5.796   6.370   3.611  1.2712  0.5973  0.9948
   44CHL1   C22 3238   5.542   6.513   3.799  0.0639  0.3253  0.3810
   44CHL1  H22A 3239   5.465   6.589   3.774 -0.3030  0.7411  2.5588
   44CHL1  H22B 3240   5.484   6.419   3.812  0.3554  0.3890  2.5186
   44CHL1   C23 3241   5.612   6.540   3.933  0.2395  0.1575  0.3040
   44CHL1  H23A 3242   5.668   6.450   3.966  0.0210  0.0919  0.5016
   44CHL1  H23B 3243   5.683   6.622   3.907  0.7103 -0.6963 -1.2383
   44CHL1   C24 3244   5.512   6.576   4.038 -0.0775 -0.1734 -0.2667
   44CHL1  H24A 3245   5.464   6.673   4.013  0.1759  1.4266  4.3783
   44CHL1  H24B 3246   5.433   6.498   4.029 -0.9886  0.3900  2.0812
   44CHL1   C25 3247   5.568   6.611   4.178 -1.0021  0.8980  0.2656
   44CHL1   H25 3248   5.484   6.599   4.249  0.6371 -0.7860  2.0326
   44CHL1   C26 3249   5.685   6.519   4.221 -0.8276  0.6438  0.4469
   44CHL1  H26A 3250   5.770   6.505   4.151 -0.7584 -0.2070  0.6882
   44CHL1  H26B 3251   5.721   6.546   4.323 -2.6475  1.4748  0.9252
   44CHL1  H26C 3252   5.648   6.415   4.233  2.9779 -0.8188  0.8584
   44CHL1   C27 3253   5.618   6.755   4.181 -0.2172  0.0552  0.1945
   44CHL1  H27A 3254   5.641   6.784   4.286 -3.5230 -0.6875  1.2386
   44CHL1  H27B 3255   5.698   6.772   4.105  1.9373  1.2050  2.5492
   44CHL1  H27C 3256   5.538   6.825   4.149  1.1166  1.1534 -0.9061
   45CHL1    C3 3257   0.096   1.851   2.783 -0.4829 -0.0972  0.3737
   45CHL1    H3 3258   0.203   1.877   2.799 -0.2899 -0.0913 -0.8382
   45CHL1    O3 3259   0.073   1.881   2.643  0.0267 -0.1829 -0.4959
   45CHL1   H3' 3260   0.148   1.848   2.593  0.2516  0.8485 -0.8487
   45CHL1    C4 3261   0.057   1.701   2.799  0.7921 -0.0248 -0.3098
   45CHL1   H4A 3262  -0.046   1.691   2.759  0.4322  1.3964  0.2078
   45CHL1   H4B 3263   0.121   1.634   2.737  0.1485  0.1819 -1.2053
   45CHL1    C5 3264   0.066   1.662   2.948  0.0016  0.4074 -0.5103
   45CHL1    C6 3265   0.147   1.560   2.989 -0.0616 -0.2574 -0.0170
   45CHL1    H6 3266   0.210   1.509   2.915  1.9215  1.3406  0.4897
   45CHL1    C7 3267   0.152   1.516   3.132 -0.3914  0.6270 -0.1612
   45CHL1   H7A 3268   0.122   1.410   3.141  0.1568  0.3651 -1.2904
   45CHL1   H7B 3269   0.253   1.530   3.174 -0.1011 -0.6308 -0.3940
   45CHL1    C8 3270   0.046   1.576   3.223  0.2664 -0.2255 -0.3141
   45CHL1    H8 3271  -0.057   1.544   3.196 -0.0425  2.0176 -2.0873
   45CHL1   C14 3272   0.078   1.551   3.364 -0.3045  0.0676 -0.1336
   45CHL1   H14 3273   0.173   1.606   3.380 -1.1597  1.4720  0.3102
   45CHL1   C15 3274   0.114   1.406   3.395  0.4477 -0.5639 -0.8845
   45CHL1  H15A 3275   0.028   1.338   3.376  0.5124 -0.2364 -2.5671
   45CHL1  H15B 3276   0.200   1.361   3.342  2.0886  0.4515  0.8260
   45CHL1   C16 3277   0.128   1.409   3.546 -0.6900  0.3018  0.7777
   45CHL1  H16A 3278   0.095   1.315   3.595  0.6369 -1.0149 -0.7458
   45CHL1  H16B 3279   0.236   1.422   3.570 -0.0296  1.4951 -2.4413
   45CHL1   C17 3280   0.057   1.540   3.596  0.1546 -0.5879 -0.1475
   45CHL1   H17 3281   0.140   1.610   3.620  0.0244 -0.0862 -1.1026
   45CHL1   C13 3282  -0.020   1.599   3.475 -0.3901  0.2368 -0.5747
   45CHL1   C18 3283  -0.161   1.524   3.461 -0.3281  0.1312 -0.4373
   45CHL1  H18A 3284  -0.230   1.573   3.533  0.5094 -1.0691  1.2311
   45CHL1  H18B 3285  -0.200   1.538   3.357 -0.7559 -1.8495 -0.5784
   45CHL1  H18C 3286  -0.148   1.416   3.480  0.3203  0.8003  3.8468
   45CHL1   C12 3287  -0.030   1.748   3.455  0.4106 -0.0279  0.1977
   45CHL1  H12A 3288  -0.102   1.791   3.529 -0.5868 -1.5572  0.1625
   45CHL1  H12B 3289   0.067   1.797   3.475  1.6887 -2.5253  0.4871
   45CHL1   C11 3290  -0.055   1.788   3.308  0.4090  0.1946  0.4513
   45CHL1  H11A 3291  -0.160   1.763   3.283  0.2657 -1.2721  2.2904
   45CHL1  H11B 3292  -0.054   1.898   3.295  1.5204  0.2312  0.6944
   45CHL1    C9 3293   0.030   1.723   3.194 -0.0969  0.0762  0.2019
   45CHL1    H9 3294   0.134   1.760   3.209  1.2765 -2.6770 -1.6887
   45CHL1   C10 3295  -0.010   1.751   3.049 -0.4522  0.3899  0.0577
   45CHL1   C19 3296  -0.161   1.710   3.006 -0.0717  0.6955  0.0712
   45CHL1  H19A 3297  -0.242   1.752   3.070 -1.3984  2.0913 -2.3520
   45CHL1  H19B 3298  -0.188   1.747   2.905  1.3826  4.8272  1.0080
   45CHL1  H19C 3299  -0.173   1.599   3.009 -0.5434  0.7334 -0.1739
   45CHL1    C1 3300   0.022   1.899   3.014 -0.4196 -0.1476 -0.1863
   45CHL1   H1A 3301  -0.055   1.964   3.061 -0.3906  1.8592 -2.7105
   45CHL1   H1B 3302   0.122   1.927   3.054 -1.2320  3.0627 -0.1311
   45CHL1    C2 3303   0.013   1.944   2.870 -0.0296  0.3235 -0.4091
   45CHL1   H2A 3304   0.046   2.050   2.865  3.3778 -0.6789 -2.1754
   45CHL1   H2B 3305  -0.092   1.936   2.832 -0.1093  0.1858 -0.1637
   45CHL1   C20 3306  -0.026   1.522   3.725  0.0145  0.3724 -0.4069
   45CHL1   H20 3307  -0.116   1.463   3.697 -0.3352  0.5739  0.2830
   45CHL1   C21 3308  -0.082   1.658   3.769 -0.1646 -1.0856 -0.2453
   45CHL1  H21A 3309  -0.010   1.743   3.760 -0.0552 -1.1162  0.2847
   45CHL1  H21B 3310  -0.104   1.650   3.877  1.2594  0.4307  0.2097
   45CHL1  H21C 3311  -0.168   1.682   3.703  0.5790  1.2880 -0.4411
   45CHL1   C22 3312   0.044   1.446   3.839  0.4330 -0.3406 -0.2174
   45CHL1  H22A 3313  -0.028   1.444   3.923 -0.1591  3.4354 -0.4494
   45CHL1  H22B 3314   0.065   1.340   3.815 -1.4778 -1.0013  0.8494
   45CHL1   C23 3315   0.174   1.512   3.888  0.0585  0.6139 -0.1757
   45CHL1  H23A 3316   0.260   1.485   3.824 -0.5519 -1.9628 -0.0246
   45CHL1  H23B 3317   0.164   1.622   3.883  0.3560  0.6089 -0.9225
   45CHL1   C24 3318   0.200   1.470   4.030 -0.2084 -0.1219  0.2678
   45CHL1  H24A 3319   0.106   1.492   4.085  0.1063 -1.1469  1.2449
   45CHL1  H24B 3320   0.237   1.365   4.036  0.3843 -0.1391 -2.3735
   45CHL1   C25 3321   0.308   1.565   4.101 -0.5301 -0.3595  0.2083
   45CHL1   H25 3322   0.277   1.671   4.084 -0.1441  0.0705  1.9654
   45CHL1   C26 3323   0.310   1.551   4.257 -0.0019 -0.4257 -0.5292
   45CHL1  H26A 3324   0.372   1.632   4.301 -2.8665  0.7741  1.5991
   45CHL1  H26B 3325   0.209   1.571   4.299  1.4468 -0.4401  3.3994
   45CHL1  H26C 3326   0.348   1.448   4.274  0.7021 -0.5429 -2.5315
   45CHL1   C27 3327   0.448   1.542   4.051 -0.1805 -0.6243 -0.4551
   45CHL1  H27A 3328   0.456   1.572   3.944  1.6232  0.4420 -0.0585
   45CHL1  H27B 3329   0.520   1.614   4.093 -1.3676  0.5009 -0.2706
   45CHL1  H27C 3330   0.489   1.443   4.080 -0.9089 -0.5531  0.9155
   46CHL1    C3 3331   2.151   0.126   2.497  0.0816 -0.1167 -0.1308
   46CHL1    H3 3332   2.116   0.027   2.533 -0.8589  0.2756  0.0661
   46CHL1    O3 3333   2.136   0.134   2.355 -0.9007 -0.6438  0.4333
   46CHL1   H3' 3334   2.168   0.224   2.343 -1.7523 -0.2143  1.2522
   46CHL1    C4 3335   2.055   0.229   2.554  0.3098  0.2717  0.8410
   46CHL1   H4A 3336   2.067   0.330   2.510  0.8461  0.8281  2.1883
   46CHL1   H4B 3337   1.957   0.190   2.521  1.4981 -0.5322 -1.9607
   46CHL1    C5 3338   2.057   0.247   2.706 -0.0243  0.5314  0.6220
   46CHL1    C6 3339   1.944   0.257   2.780  0.6358  0.2327 -0.3512
   46CHL1    H6 3340   1.840   0.257   2.744  0.6079  1.2378 -0.2992
   46CHL1    C7 3341   1.945   0.274   2.933  0.2941 -0.0727 -0.0096
   46CHL1   H7A 3342   1.869   0.343   2.974 -0.1170 -1.4186  1.5943
   46CHL1   H7B 3343   1.920   0.170   2.963 -2.4663  0.4049 -0.4521
   46CHL1    C8 3344   2.086   0.311   2.983 -0.0448  0.0388 -0.2203
   46CHL1    H8 3345   2.106   0.419   2.969  0.1152  0.0589  0.1647
   46CHL1   C14 3346   2.102   0.286   3.134  0.1018  0.0541 -0.7707
   46CHL1   H14 3347   2.086   0.177   3.147  1.3196 -0.2366 -1.6081
   46CHL1   C15 3348   1.985   0.339   3.223 -0.8420  0.2675  0.5938
   46CHL1  H15A 3349   1.972   0.447   3.202 -0.4821  0.2165  0.0869
   46CHL1  H15B 3350   1.888   0.292   3.194 -0.7208  1.0832 -1.2800
   46CHL1   C16 3351   2.032   0.322   3.364 -0.3072  0.9234  0.4734
   46CHL1  H16A 3352   2.005   0.418   3.412 -0.2627  1.3485 -0.3363
   46CHL1  H16B 3353   1.991   0.232   3.415  2.6621 -0.0274  1.4165
   46CHL1   C17 3354   2.188   0.296   3.356 -0.3356 -0.0143  0.6662
   46CHL1   H17 3355   2.212   0.188   3.367  0.8453  0.1916  0.2823
   46CHL1   C13 3356   2.229   0.329   3.204 -0.2069 -0.3429 -0.0539
   46CHL1   C18 3357   2.258   0.485   3.207 -0.3328  0.4038 -0.2647
   46CHL1  H18A 3358   2.262   0.518   3.101  0.9170  0.8361 -0.0951
   46CHL1  H18B 3359   2.178   0.549   3.250  1.1219  1.9331  0.2490
   46CHL1  H18C 3360   2.354   0.502   3.260 -1.2137  0.8234  1.2710
   46CHL1   C12 3361   2.340   0.236   3.144  0.0313 -0.0201  0.6891
   46CHL1  H12A 3362   2.439   0.247   3.192  1.2522 -0.1187 -1.6622
   46CHL1  H12B 3363   2.305   0.133   3.168 -0.9013  0.7936  3.2262
   46CHL1   C11 3364   2.340   0.252   2.996  0.4927 -0.0397  0.4498
   46CHL1  H11A 3365   2.374   0.352   2.962 -1.0937  0.0526 -1.0082
   46CHL1  H11B 3366   2.412   0.183   2.949  1.7174  1.9360 -0.7249
   46CHL1    C9 3367   2.199   0.226   2.921  0.2480  0.1372 -0.5619
   46CHL1    H9 3368   2.171   0.120   2.940  0.7186  0.3182  1.2525
   46CHL1   C10 3369   2.200   0.249   2.769 -0.7293 -0.1724  0.6661
   46CHL1   C19 3370   2.256   0.392   2.743 -0.4136  0.4757 -0.4619
   46CHL1  H19A 3371   2.184   0.465   2.786 -0.8606 -0.8645  1.1179
   46CHL1  H19B 3372   2.364   0.397   2.768  0.0049  0.5469 -2.1153
   46CHL1  H19C 3373   2.257   0.415   2.634 -0.4187  2.2571 -0.1187
   46CHL1    C1 3374   2.290   0.145   2.702  1.0516  0.0708  0.3036
   46CHL1   H1A 3375   2.392   0.157   2.743  1.1372  0.6615 -0.0723
   46CHL1   H1B 3376   2.262   0.040   2.726  1.7829  0.3829  2.8691
   46CHL1    C2 3377   2.294   0.152   2.545 -0.2163  0.4056  0.1801
   46CHL1   H2A 3378   2.365   0.072   2.515  0.5922  0.8549  0.8296
   46CHL1   H2B 3379   2.329   0.255   2.522 -1.2587  0.9089  0.7620
   46CHL1   C20 3380   2.274   0.365   3.462  0.2824  0.0420  0.5726
   46CHL1   H20 3381   2.257   0.474   3.444 -3.0235 -0.5463 -0.6581
   46CHL1   C21 3382   2.422   0.327   3.456 -0.0466 -0.3707 -0.1277
   46CHL1  H21A 3383   2.478   0.366   3.544  2.0071 -0.9954 -1.0765
   46CHL1  H21B 3384   2.465   0.369   3.363 -2.1534  1.9418 -0.1480
   46CHL1  H21C 3385   2.436   0.218   3.472 -0.9852 -0.5581 -0.5732
   46CHL1   C22 3386   2.218   0.335   3.608 -0.3901 -0.2193 -0.3462
   46CHL1  H22A 3387   2.297   0.365   3.680 -1.9398  0.8982  0.9597
   46CHL1  H22B 3388   2.128   0.399   3.619 -0.0943  0.2360 -0.5116
   46CHL1   C23 3389   2.183   0.193   3.641  1.0972  0.2020  0.4284
   46CHL1  H23A 3390   2.083   0.163   3.601  0.5224  1.2078  1.0587
   46CHL1  H23B 3391   2.259   0.134   3.586  0.6995  1.2863 -1.4049
   46CHL1   C24 3392   2.188   0.165   3.786  0.1107  0.8600  0.7815
   46CHL1  H24A 3393   2.297   0.181   3.799  0.6230  1.5115 -3.0395
   46CHL1  H24B 3394   2.120   0.236   3.837 -1.7181  0.3885 -0.8357
   46CHL1   C25 3395   2.136   0.021   3.833 -0.0797  0.0775 -0.2952
   46CHL1   H25 3396   2.026   0.027   3.820 -0.1708 -1.3253 -0.3152
   46CHL1   C26 3397   2.197  -0.088   3.751  0.1386  0.7644  0.6472
   46CHL1  H26A 3398   2.195  -0.081   3.640 -0.1263 -1.0650  0.5114
   46CHL1  H26B 3399   2.303  -0.105   3.780 -0.4038 -0.5333  2.0282
   46CHL1  H26C 3400   2.152  -0.188   3.771  1.9424 -0.6184 -1.6042
   46CHL1   C27 3401   2.156  -0.011   3.982 -0.1709  0.0515 -0.5711
   46CHL1  H27A 3402   2.263  -0.009   4.012 -0.5724  1.0080  0.8631
   46CHL1  H27B 3403   2.103   0.066   4.042  0.9230 -1.6042  2.8023
   46CHL1  H27C 3404   2.105  -0.106   4.010 -2.1864  1.1170 -0.4376
   47CHL1    C3 3405   0.791   2.677   2.764 -0.6358 -0.1349  0.0553
   47CHL1    H3 3406   0.699   2.717   2.811 -1.0882 -0.0079 -0.9143
   47CHL1    O3 3407   0.765   2.678   2.625 -0.1595  0.3051 -0.1804
   47CHL1   H3' 3408   0.847   2.706   2.584  0.0433 -0.3277 -0.2201
   47CHL1    C4 3409   0.901   2.777   2.791  0.3435  0.2322  0.3797
   47CHL1   H4A 3410   0.987   2.756   2.723 -3.2259  0.0852 -4.7316
   47CHL1   H4B 3411   0.864   2.876   2.754  0.6450 -0.0856 -0.8095
   47CHL1    C5 3412   0.939   2.775   2.936 -0.4548 -0.1731  0.2045
   47CHL1    C6 3413   0.951   2.885   3.007  0.0117  0.0712 -0.6846
   47CHL1    H6 3414   0.937   2.976   2.946  0.5342 -0.5014 -1.6860
   47CHL1    C7 3415   0.991   2.892   3.153 -1.6695  0.3457 -0.2835
   47CHL1   H7A 3416   1.031   2.991   3.186  1.3643 -1.4745  1.9303
   47CHL1   H7B 3417   0.899   2.874   3.212 -0.6693 -0.4145  1.1281
   47CHL1    C8 3418   1.074   2.763   3.199 -0.3496 -1.0783  0.6302
   47CHL1    H8 3419   1.168   2.780   3.142 -0.7257  0.5013  0.4363
   47CHL1   C14 3420   1.076   2.761   3.352 -0.0608 -0.7165 -0.1335
   47CHL1   H14 3421   0.971   2.752   3.389 -0.6015  1.2345 -1.0729
   47CHL1   C15 3422   1.136   2.887   3.413 -0.3237  0.1003 -0.2799
   47CHL1  H15A 3423   1.216   2.920   3.342 -1.1279  1.6884 -0.4992
   47CHL1  H15B 3424   1.059   2.967   3.418  1.3598  1.8320 -0.8905
   47CHL1   C16 3425   1.195   2.847   3.550  0.7420  0.2384  0.7273
   47CHL1  H16A 3426   1.304   2.871   3.551  0.7131  0.4096  0.1923
   47CHL1  H16B 3427   1.146   2.908   3.628 -1.7076  0.1792 -0.6508
   47CHL1   C17 3428   1.157   2.698   3.559  0.3562 -0.1174  1.2898
   47CHL1   H17 3429   1.048   2.691   3.582 -0.4086  0.0976 -1.8140
   47CHL1   C13 3430   1.152   2.645   3.418  0.0965  0.2807 -0.2094
   47CHL1   C18 3431   1.295   2.640   3.361  0.6544  0.8835  0.2312
   47CHL1  H18A 3432   1.346   2.548   3.397  1.2123  0.5226 -1.3932
   47CHL1  H18B 3433   1.281   2.626   3.252 -2.9341  2.1281  0.4063
   47CHL1  H18C 3434   1.354   2.734   3.373  0.1351  1.3123 -0.4883
   47CHL1   C12 3435   1.069   2.520   3.376 -0.5712  0.0026 -0.3496
   47CHL1  H12A 3436   1.112   2.419   3.397 -2.5819 -0.6845  0.7859
   47CHL1  H12B 3437   0.970   2.518   3.426 -0.3078 -2.4638  0.1894
   47CHL1   C11 3438   1.045   2.511   3.222 -0.0420 -0.0492 -0.2324
   47CHL1  H11A 3439   1.134   2.472   3.168 -0.1171  0.3652 -0.6699
   47CHL1  H11B 3440   0.975   2.430   3.194 -0.6598  1.0339 -1.9911
   47CHL1    C9 3441   0.996   2.642   3.152  0.4024  0.6518  0.2727
   47CHL1    H9 3442   0.894   2.663   3.192 -0.1330 -0.1296 -0.6557
   47CHL1   C10 3443   0.973   2.633   2.996  1.2567 -0.0446 -0.4213
   47CHL1   C19 3444   1.099   2.572   2.937 -0.0999  0.5600  1.1853
   47CHL1  H19A 3445   1.109   2.590   2.827 -0.5972 -0.4471  0.9633
   47CHL1  H19B 3446   1.190   2.611   2.987  1.7545 -0.7140 -0.9842
   47CHL1  H19C 3447   1.099   2.461   2.931  2.5097  0.5547 -0.3181
   47CHL1    C1 3448   0.847   2.547   2.967 -0.9237 -0.8295  0.8341
   47CHL1   H1A 3449   0.869   2.446   3.006 -1.8173 -0.1674  3.2318
   47CHL1   H1B 3450   0.757   2.589   3.018 -0.5083  1.0664  0.1029
   47CHL1    C2 3451   0.813   2.541   2.815 -0.2170  0.5143 -0.4301
   47CHL1   H2A 3452   0.717   2.492   2.789 -1.2837  1.2566  1.8312
   47CHL1   H2B 3453   0.899   2.489   2.769 -0.0322  1.0141 -0.6600
   47CHL1   C20 3454   1.228   2.620   3.668  1.4302  0.2480  0.0968
   47CHL1   H20 3455   1.333   2.609   3.633  1.5857  1.4229  0.1354
   47CHL1   C21 3456   1.171   2.474   3.653 -0.5516 -0.0524  0.3066
   47CHL1  H21A 3457   1.218   2.413   3.573 -2.0555  1.0326 -1.4820
   47CHL1  H21B 3458   1.060   2.475   3.649 -0.5165 -0.3457 -2.4067
   47CHL1  H21C 3459   1.203   2.421   3.746  2.0559 -0.8200 -0.9404
   47CHL1   C22 3460   1.205   2.682   3.810 -0.0678  0.0287  0.7298
   47CHL1  H22A 3461   1.230   2.790   3.796  0.1508 -0.2838 -1.8865
   47CHL1  H22B 3462   1.095   2.676   3.817 -0.2788  3.0847  1.6108
   47CHL1   C23 3463   1.290   2.615   3.921  1.1102  0.0457  0.3100
   47CHL1  H23A 3464   1.266   2.676   4.011 -0.5374  1.5937 -1.1030
   47CHL1  H23B 3465   1.249   2.512   3.932  2.9626 -0.9328 -1.2031
   47CHL1   C24 3466   1.439   2.627   3.904 -0.3719 -0.2754  0.0485
   47CHL1  H24A 3467   1.482   2.599   3.805  1.7820  2.1536  0.2067
   47CHL1  H24B 3468   1.474   2.731   3.922  1.3857 -0.5216 -1.6663
   47CHL1   C25 3469   1.528   2.561   4.018  1.3256  0.5445  0.3807
   47CHL1   H25 3470   1.498   2.594   4.120 -0.7437 -2.1761  0.7722
   47CHL1   C26 3471   1.503   2.411   4.005  0.3896 -0.2245 -0.3423
   47CHL1  H26A 3472   1.494   2.372   4.109  0.1215 -0.9113 -0.6124
   47CHL1  H26B 3473   1.404   2.390   3.960  0.5046 -0.1037 -0.6511
   47CHL1  H26C 3474   1.580   2.365   3.940  0.8466  1.6604 -1.2120
   47CHL1   C27 3475   1.679   2.594   4.011  0.3411 -0.2471 -0.1989
   47CHL1  H27A 3476   1.678   2.704   4.021  0.7855 -0.1979 -0.6799
   47CHL1  H27B 3477   1.731   2.539   4.092 -0.9023  1.1189  1.6201
   47CHL1  H27C 3478   1.733   2.549   3.925  1.1108 -0.6633  0.4864
   48CHL1    C3 3479   4.118   4.690   2.527 -0.0550 -0.1161 -0.2600
   48CHL1    H3 3480   4.182   4.777   2.554 -1.0932  1.0316 -1.3268
   48CHL1    O3 3481   4.117   4.677   2.387  0.1997  0.6288  0.2472
   48CHL1   H3' 3482   4.078   4.591   2.369  1.2272 -0.2176  1.8211
   48CHL1    C4 3483   4.170   4.562   2.590  0.2617 -0.3711 -0.0135
   48CHL1   H4A 3484   4.113   4.473   2.556 -1.1924  1.0126 -1.3400
   48CHL1   H4B 3485   4.276   4.554   2.556  0.0339  2.7919 -1.8570
   48CHL1    C5 3486   4.170   4.569   2.739 -0.3835 -0.0354 -0.0950
   48CHL1    C6 3487   4.280   4.550   2.812  0.3282  0.0982  1.1690
   48CHL1    H6 3488   4.368   4.515   2.756 -1.7351 -0.6350 -1.8494
   48CHL1    C7 3489   4.291   4.551   2.960 -0.4337  0.2155  0.0207
   48CHL1   H7A 3490   4.339   4.461   3.005 -0.1924 -0.3777 -1.3770
   48CHL1   H7B 3491   4.350   4.643   2.979  3.5208 -2.5043  2.5172
   48CHL1    C8 3492   4.151   4.557   3.023  0.4732 -0.0606  0.2123
   48CHL1    H8 3493   4.103   4.457   3.022 -0.7897  0.3769  3.4810
   48CHL1   C14 3494   4.170   4.594   3.174  0.2151  0.3254  0.6906
   48CHL1   H14 3495   4.202   4.700   3.171 -2.0511  1.0508  0.2566
   48CHL1   C15 3496   4.273   4.530   3.265  0.1860 -0.4026 -0.5119
   48CHL1  H15A 3497   4.267   4.420   3.251  0.6412 -0.3509 -1.1581
   48CHL1  H15B 3498   4.378   4.561   3.247  0.4847 -1.5163 -0.8010
   48CHL1   C16 3499   4.224   4.569   3.405 -0.3059  0.1740  1.0567
   48CHL1  H16A 3500   4.208   4.477   3.464 -0.3848 -0.7869 -0.4111
   48CHL1  H16B 3501   4.306   4.614   3.464  0.4489  0.6673 -0.3043
   48CHL1   C17 3502   4.090   4.649   3.394 -0.2376 -0.4516  0.3793
   48CHL1   H17 3503   4.105   4.759   3.392  0.7523 -0.5566  1.2890
   48CHL1   C13 3504   4.037   4.612   3.249 -0.8038 -0.3240 -0.5508
   48CHL1   C18 3505   3.960   4.485   3.253 -0.0547  0.1655 -0.3146
   48CHL1  H18A 3506   3.862   4.494   3.304  1.7377  0.7371  3.4105
   48CHL1  H18B 3507   3.932   4.452   3.151  2.0310 -0.6110 -0.6809
   48CHL1  H18C 3508   4.014   4.407   3.310  1.4093  2.4492  1.6197
   48CHL1   C12 3509   3.957   4.722   3.181 -0.2809 -1.4149 -0.2983
   48CHL1  H12A 3510   3.869   4.752   3.242  0.5097  0.1187  0.1440
   48CHL1  H12B 3511   4.013   4.818   3.177 -1.1798 -0.5188  3.9313
   48CHL1   C11 3512   3.930   4.686   3.028  0.0374  0.0431 -0.0602
   48CHL1  H11A 3513   3.850   4.610   3.021  0.8309 -0.9572  1.2050
   48CHL1  H11B 3514   3.878   4.781   3.001  0.4703  0.7603  1.4794
   48CHL1    C9 3515   4.060   4.657   2.950  0.4347 -0.4987 -0.2736
   48CHL1    H9 3516   4.116   4.753   2.951  1.1791 -0.9083  0.9496
   48CHL1   C10 3517   4.037   4.618   2.801  0.0380  0.0234  0.1004
   48CHL1   C19 3518   3.957   4.489   2.792  0.1700 -0.9703 -0.5401
   48CHL1  H19A 3519   3.870   4.483   2.860  0.5892 -3.5430 -0.1379
   48CHL1  H19B 3520   3.934   4.464   2.686  1.1141  0.7971 -1.2048
   48CHL1  H19C 3521   4.024   4.407   2.827  0.6881 -0.0358  0.7168
   48CHL1    C1 3522   3.973   4.733   2.720 -0.1697 -0.2649  0.1752
   48CHL1   H1A 3523   3.871   4.758   2.755  0.0360 -0.7920  1.2174
   48CHL1   H1B 3524   4.031   4.825   2.744 -0.5988 -0.2627  1.2938
   48CHL1    C2 3525   3.977   4.720   2.569  0.1708  0.4388 -0.4190
   48CHL1   H2A 3526   3.927   4.811   2.528 -2.3460 -0.5125  0.3034
   48CHL1   H2B 3527   3.908   4.635   2.549 -0.4773  1.5615 -3.3544
   48CHL1   C20 3528   4.007   4.636   3.519 -0.1042 -0.3897  0.1266
   48CHL1   H20 3529   3.961   4.535   3.512  0.0486 -0.5358  1.0378
   48CHL1   C21 3530   3.895   4.736   3.516  0.0574 -0.8300  0.7138
   48CHL1  H21A 3531   3.846   4.719   3.614 -2.6186 -1.9205 -0.7120
   48CHL1  H21B 3532   3.812   4.709   3.448  0.5388 -0.0916 -0.1885
   48CHL1  H21C 3533   3.934   4.840   3.511  4.2101 -2.2294 -0.5617
   48CHL1   C22 3534   4.086   4.647   3.656 -0.1867 -0.9044 -0.4542
   48CHL1  H22A 3535   4.194   4.622   3.655 -0.2957 -1.8358  2.3220
   48CHL1  H22B 3536   4.059   4.750   3.690 -2.2136 -1.0838 -1.3867
   48CHL1   C23 3537   4.030   4.561   3.764 -0.4370  0.9158 -0.3930
   48CHL1  H23A 3538   4.071   4.593   3.862 -0.7646 -0.7770  0.3330
   48CHL1  H23B 3539   3.923   4.593   3.772 -0.2233  1.5901 -0.1828
   48CHL1   C24 3540   4.044   4.411   3.751 -0.5875 -0.1056 -0.1722
   48CHL1  H24A 3541   3.974   4.379   3.671  0.9433 -2.4985 -0.6753
   48CHL1  H24B 3542   4.149   4.389   3.720 -0.9134 -1.0668 -0.6388
   48CHL1   C25 3543   4.017   4.340   3.883 -0.3220  0.4979 -0.2671
   48CHL1   H25 3544   3.933   4.402   3.919  0.1581  2.2292 -1.9920
   48CHL1   C26 3545   3.971   4.194   3.870  0.5397 -0.6400 -0.5829
   48CHL1  H26A 3546   3.941   4.158   3.971 -0.4075 -1.2768 -1.0800
   48CHL1  H26B 3547   3.880   4.171   3.811 -0.2606  0.6610  0.0984
   48CHL1  H26C 3548   4.058   4.135   3.831  1.7613  1.2951 -0.9132
   48CHL1   C27 3549   4.127   4.337   3.986 -0.1434 -0.3783 -0.2734
   48CHL1  H27A 3550   4.183   4.433   3.991 -1.5440  0.4558  0.1129
   48CHL1  H27B 3551   4.094   4.304   4.087 -0.7476  0.7266 -0.0875
   48CHL1  H27C 3552   4.210   4.270   3.956  0.3634  1.0994 -2.3722
   49CHL1    C3 3553   4.266   2.300   2.765 -0.3527 -0.5033 -0.1627
   49CHL1    H3 3554   4.193   2.376   2.801  1.1519  0.7113  0.4154
   49CHL1    O3 3555   4.263   2.305   2.620  0.3651  0.7039 -0.5638
   49CHL1   H3' 3556   4.335   2.247   2.593  2.3250  2.3852  0.7402
   49CHL1    C4 3557   4.415   2.332   2.803  0.3468  0.0771  0.2296
   49CHL1   H4A 3558   4.477   2.267   2.737 -0.1009 -2.1305  1.8312
   49CHL1   H4B 3559   4.435   2.435   2.766 -1.6002  0.6544  0.7099
   49CHL1    C5 3560   4.436   2.307   2.953 -0.5481 -0.2358 -0.2116
   49CHL1    C6 3561   4.482   2.408   3.029 -0.0299 -0.3746  0.0761
   49CHL1    H6 3562   4.512   2.505   2.986  0.1359 -0.2296  0.5210
   49CHL1    C7 3563   4.518   2.393   3.171 -0.2203  0.3968 -0.1074
   49CHL1   H7A 3564   4.614   2.437   3.205 -0.2449  0.6923 -0.4192
   49CHL1   H7B 3565   4.444   2.456   3.225  0.5450  2.4664 -1.3703
   49CHL1    C8 3566   4.508   2.244   3.224 -0.0365  0.1068  0.5971
   49CHL1    H8 3567   4.604   2.194   3.199  0.4857  1.3783 -0.0451
   49CHL1   C14 3568   4.502   2.248   3.378 -0.4461 -0.0248 -0.0809
   49CHL1   H14 3569   4.398   2.283   3.397  0.9476  3.7060  1.7092
   49CHL1   C15 3570   4.601   2.333   3.460 -0.9696 -0.2156 -0.7615
   49CHL1  H15A 3571   4.700   2.308   3.417 -0.5573 -1.7100  0.9439
   49CHL1  H15B 3572   4.581   2.442   3.462 -0.8513 -0.1276 -2.6539
   49CHL1   C16 3573   4.581   2.277   3.603  0.0919  0.3700  0.1266
   49CHL1  H16A 3574   4.679   2.226   3.618 -0.2494 -1.4246 -2.8485
   49CHL1  H16B 3575   4.554   2.346   3.686 -2.4253 -1.4763  0.9762
   49CHL1   C17 3576   4.485   2.154   3.589 -0.0484  0.4861 -0.0268
   49CHL1   H17 3577   4.382   2.194   3.602 -1.5170 -2.8029 -0.3334
   49CHL1   C13 3578   4.500   2.106   3.446 -0.0669  0.2958 -0.3859
   49CHL1   C18 3579   4.629   2.027   3.417  0.1329  0.0323  0.0613
   49CHL1  H18A 3580   4.724   2.064   3.463 -1.1421  2.1794  1.1519
   49CHL1  H18B 3581   4.625   1.928   3.467 -2.9259  0.4144  0.7626
   49CHL1  H18C 3582   4.645   2.009   3.309 -1.6670 -4.0462  0.2906
   49CHL1   C12 3583   4.383   2.031   3.385 -0.3344  0.0276 -0.3085
   49CHL1  H12A 3584   4.382   1.923   3.411 -0.5801 -0.4841 -2.2601
   49CHL1  H12B 3585   4.289   2.080   3.419  0.7779  0.8834  1.6701
   49CHL1   C11 3586   4.376   2.032   3.230  0.0922  0.7416 -1.4437
   49CHL1  H11A 3587   4.455   1.959   3.201  1.4452  0.2907  2.7687
   49CHL1  H11B 3588   4.281   1.981   3.201 -0.8518  1.7357 -0.2243
   49CHL1    C9 3589   4.389   2.170   3.168  0.5156 -0.3044  0.5357
   49CHL1    H9 3590   4.302   2.234   3.193 -2.1729 -3.2656 -0.5848
   49CHL1   C10 3591   4.397   2.168   3.016  0.1416  0.1689  0.0976
   49CHL1   C19 3592   4.503   2.066   2.967  0.7442 -0.4587 -0.0169
   49CHL1  H19A 3593   4.601   2.088   3.012  0.5470  3.0037 -0.9629
   49CHL1  H19B 3594   4.467   1.965   2.994 -1.9708 -0.0440 -1.6144
   49CHL1  H19C 3595   4.526   2.073   2.858 -0.8015  0.9709 -0.3012
   49CHL1    C1 3596   4.246   2.142   2.972  0.6648  0.2909 -0.2775
   49CHL1   H1A 3597   4.199   2.045   2.999  0.8199 -0.3198 -2.0469
   49CHL1   H1B 3598   4.187   2.225   3.015 -1.8274 -0.6890 -1.5929
   49CHL1    C2 3599   4.227   2.162   2.817 -0.0742 -0.2613  0.0821
   49CHL1   H2A 3600   4.120   2.143   2.791 -0.2325  1.0177 -0.2611
   49CHL1   H2B 3601   4.293   2.095   2.758 -0.5865  1.0913 -2.1472
   49CHL1   C20 3602   4.499   2.055   3.702  0.0507  0.1698  0.0093
   49CHL1   H20 3603   4.596   2.001   3.696  0.0145 -0.4981  3.4057
   49CHL1   C21 3604   4.387   1.940   3.699  0.2205  0.4253 -0.3275
   49CHL1  H21A 3605   4.285   1.983   3.705  0.5427  1.2528 -0.5887
   49CHL1  H21B 3606   4.398   1.875   3.788 -1.0092  0.0484 -0.4297
   49CHL1  H21C 3607   4.405   1.877   3.609 -1.4008  1.7665 -1.6515
   49CHL1   C22 3608   4.506   2.125   3.845  0.2307  0.4175 -0.4450
   49CHL1  H22A 3609   4.534   2.055   3.926  1.1295  3.4962  2.1258
   49CHL1  H22B 3610   4.588   2.200   3.846  0.1175  0.5717  1.2424
   49CHL1   C23 3611   4.378   2.196   3.887 -0.2648  0.5064 -0.0696
   49CHL1  H23A 3612   4.330   2.256   3.806 -2.3180 -0.7580  0.1329
   49CHL1  H23B 3613   4.301   2.129   3.932  0.5560 -1.2322 -1.1148
   49CHL1   C24 3614   4.403   2.291   4.011 -0.0667 -0.8246  0.0577
   49CHL1  H24A 3615   4.439   2.229   4.096  0.4867 -1.4629 -0.6274
   49CHL1  H24B 3616   4.480   2.368   3.986  1.1611 -1.3822  1.8880
   49CHL1   C25 3617   4.274   2.365   4.048 -0.1203  0.5059  0.0037
   49CHL1   H25 3618   4.194   2.287   4.045 -0.0502  0.4397 -2.8173
   49CHL1   C26 3619   4.276   2.421   4.191 -0.2625  0.1667  0.2191
   49CHL1  H26A 3620   4.299   2.351   4.274  1.7685 -0.1712 -0.5854
   49CHL1  H26B 3621   4.330   2.515   4.214 -1.6947  0.5196  2.4986
   49CHL1  H26C 3622   4.171   2.444   4.220 -0.0283  1.1261  0.3411
   49CHL1   C27 3623   4.217   2.476   3.951  0.1265 -0.1683  0.7474
   49CHL1  H27A 3624   4.252   2.581   3.964 -1.6576  0.6548 -0.6328
   49CHL1  H27B 3625   4.241   2.444   3.847  1.9961 -1.7389  1.6162
   49CHL1  H27C 3626   4.106   2.489   3.952  0.3628  2.7535 -0.4642
   50CHL1    C3 3627   2.820   0.226   2.712  0.3873  0.5800 -0.7313
   50CHL1    H3 3628   2.826   0.336   2.728 -1.2909  0.6942 -0.6041
   50CHL1    O3 3629   2.824   0.198   2.572  0.1438 -0.2688 -0.1662
   50CHL1   H3' 3630   2.918   0.205   2.552  0.0434  0.8494 -0.2839
   50CHL1    C4 3631   2.941   0.155   2.771  0.4325 -0.3080 -0.5086
   50CHL1   H4A 3632   2.920   0.046   2.763  4.5764 -1.2497 -0.6314
   50CHL1   H4B 3633   3.031   0.190   2.717 -0.8448  0.3202 -2.3428
   50CHL1    C5 3634   2.950   0.178   2.920  0.9691 -0.5303 -0.5812
   50CHL1    C6 3635   3.059   0.235   2.976  0.2698  0.1850  0.1759
   50CHL1    H6 3636   3.143   0.269   2.914  0.1194  1.8415  0.8404
   50CHL1    C7 3637   3.067   0.270   3.124 -0.2271 -0.2664  0.1415
   50CHL1   H7A 3638   3.167   0.243   3.164 -1.3189  0.4863  3.7082
   50CHL1   H7B 3639   3.055   0.379   3.141 -1.0537 -0.4822  1.0070
   50CHL1    C8 3640   2.975   0.181   3.210 -0.2881  0.1097 -0.1217
   50CHL1    H8 3641   3.022   0.080   3.203 -0.9076 -0.3529  1.8452
   50CHL1   C14 3642   2.985   0.220   3.354  0.9612  0.7056  0.2304
   50CHL1   H14 3643   2.941   0.320   3.369 -1.4813 -0.6702  3.5750
   50CHL1   C15 3644   3.123   0.225   3.428 -0.4313 -0.0667 -0.0205
   50CHL1  H15A 3645   3.191   0.145   3.391 -2.4130 -1.7803 -0.1908
   50CHL1  H15B 3646   3.161   0.323   3.393 -0.5990 -0.6936 -2.1055
   50CHL1   C16 3647   3.088   0.226   3.578 -0.1433  0.8208 -0.2185
   50CHL1  H16A 3648   3.147   0.149   3.631  3.1616  2.0575 -1.8693
   50CHL1  H16B 3649   3.124   0.313   3.638 -0.5982 -0.0033  1.3217
   50CHL1   C17 3650   2.932   0.208   3.587  0.1664 -0.8448 -0.4477
   50CHL1   H17 3651   2.886   0.309   3.591  0.9143 -0.4844 -0.7409
   50CHL1   C13 3652   2.895   0.146   3.447  0.4401 -0.3958 -0.6255
   50CHL1   C18 3653   2.939  -0.008   3.451 -0.3084 -0.6159 -0.2336
   50CHL1  H18A 3654   2.951  -0.058   3.353  0.6163 -1.0291  0.0764
   50CHL1  H18B 3655   3.034  -0.008   3.510 -1.3702  0.4750  1.5751
   50CHL1  H18C 3656   2.864  -0.060   3.514  0.0297  0.3280  1.0064
   50CHL1   C12 3657   2.750   0.173   3.404 -0.5889 -0.8552  0.5759
   50CHL1  H12A 3658   2.673   0.122   3.465 -0.0013 -2.2028  0.2080
   50CHL1  H12B 3659   2.731   0.283   3.403 -2.2376 -1.1163  1.1506
   50CHL1   C11 3660   2.730   0.119   3.260  0.3289 -0.1418  0.3466
   50CHL1  H11A 3661   2.756   0.011   3.255  3.5912  0.5930 -2.6660
   50CHL1  H11B 3662   2.624   0.125   3.227  0.6494  1.6267 -0.4371
   50CHL1    C9 3663   2.828   0.183   3.157  0.0734  0.2129  0.1781
   50CHL1    H9 3664   2.798   0.290   3.158 -1.5572 -0.0597 -3.3092
   50CHL1   C10 3665   2.827   0.132   3.008  0.4821 -0.5967 -0.0787
   50CHL1   C19 3666   2.824  -0.022   3.016 -0.7888  0.7965  0.9039
   50CHL1  H19A 3667   2.843  -0.066   2.916 -0.9960  0.1268  1.1561
   50CHL1  H19B 3668   2.903  -0.063   3.082 -0.3003 -0.3406 -0.3678
   50CHL1  H19C 3669   2.730  -0.066   3.056 -0.7348  0.5378  0.7434
   50CHL1    C1 3670   2.700   0.192   2.939  0.1473  0.1637 -0.2159
   50CHL1   H1A 3671   2.613   0.149   2.992 -1.5634  1.9167 -1.4200
   50CHL1   H1B 3672   2.706   0.302   2.956  1.2656  0.2065 -0.7554
   50CHL1    C2 3673   2.697   0.167   2.786  0.0417 -0.1396  0.0183
   50CHL1   H2A 3674   2.604   0.207   2.739  1.1293 -0.1981 -2.3283
   50CHL1   H2B 3675   2.698   0.058   2.764 -2.5012  0.0320 -1.3018
   50CHL1   C20 3676   2.897   0.136   3.719 -1.0639  0.1976 -0.1281
   50CHL1   H20 3677   2.943   0.035   3.723 -2.4982 -0.5128 -0.7741
   50CHL1   C21 3678   2.746   0.127   3.733  0.2920 -0.0863 -0.5235
   50CHL1  H21A 3679   2.695   0.226   3.729 -1.3592 -0.9142 -1.0002
   50CHL1  H21B 3680   2.710   0.090   3.831 -1.5333  1.5424 -0.5038
   50CHL1  H21C 3681   2.686   0.065   3.664 -0.7934  1.1574 -0.7350
   50CHL1   C22 3682   2.947   0.215   3.842 -0.3519  0.1130  0.5564
   50CHL1  H22A 3683   3.044   0.260   3.814 -1.9222  2.1235 -2.1098
   50CHL1  H22B 3684   2.874   0.299   3.855 -2.7959 -1.6829 -0.7309
   50CHL1   C23 3685   2.962   0.128   3.963 -0.5847  0.3440 -0.0160
   50CHL1  H23A 3686   2.878   0.057   3.976 -0.2650 -0.3029 -1.3031
   50CHL1  H23B 3687   3.046   0.061   3.933 -1.1890  0.6992 -2.7363
   50CHL1   C24 3688   2.983   0.210   4.093 -0.5180  0.5566 -0.5998
   50CHL1  H24A 3689   3.067   0.280   4.073 -0.6013  0.4099 -1.5367
   50CHL1  H24B 3690   2.898   0.275   4.121  0.3285  1.4933 -0.1124
   50CHL1   C25 3691   3.025   0.124   4.210  0.5473  0.2674  0.0541
   50CHL1   H25 3692   3.114   0.060   4.191  1.4141  1.4104  0.1495
   50CHL1   C26 3693   3.072   0.203   4.329 -0.3253  0.2749 -0.3415
   50CHL1  H26A 3694   3.168   0.251   4.299  0.4388 -0.9094  0.1244
   50CHL1  H26B 3695   2.994   0.275   4.363 -1.8919 -1.3621 -0.3371
   50CHL1  H26C 3696   3.087   0.144   4.422  1.5527  0.7228 -0.3121
   50CHL1   C27 3697   2.908   0.029   4.246  0.5740 -0.4178 -1.0064
   50CHL1  H27A 3698   2.895  -0.048   4.167  0.9747 -1.5748  0.0101
   50CHL1  H27B 3699   2.922  -0.007   4.351  2.0398  2.7601  0.0016
   50CHL1  H27C 3700   2.819   0.095   4.255  1.1752  0.1947  1.2761
   51CHL1    C3 3701   5.038   1.445   2.674 -0.1482 -0.1277  0.0942
   51CHL1    H3 3702   5.003   1.525   2.744 -3.4205 -2.1088  0.9388
   51CHL1    O3 3703   5.057   1.494   2.537 -0.1738 -0.0591 -0.8754
   51CHL1   H3' 3704   5.057   1.411   2.489 -0.3060  0.1613 -1.2654
   51CHL1    C4 3705   5.167   1.387   2.725 -0.2078  0.0410  0.0395
   51CHL1   H4A 3706   5.199   1.328   2.637  1.9147  1.2268 -0.0545
   51CHL1   H4B 3707   5.245   1.466   2.731  1.1978 -1.3572  0.8381
   51CHL1    C5 3708   5.164   1.309   2.854 -0.1051  0.5482  0.6356
   51CHL1    C6 3709   5.238   1.343   2.962  0.4699 -0.7678  0.8917
   51CHL1    H6 3710   5.307   1.428   2.955  0.6225 -1.0022 -1.4968
   51CHL1    C7 3711   5.219   1.297   3.101  0.3406  0.3944  1.0107
   51CHL1   H7A 3712   5.319   1.275   3.143 -0.1398 -1.3559  1.3265
   51CHL1   H7B 3713   5.158   1.371   3.156 -3.1781  0.2943 -2.3314
   51CHL1    C8 3714   5.137   1.170   3.098  0.4511 -0.4085 -0.3978
   51CHL1    H8 3715   5.202   1.096   3.048  2.2678  1.5703 -1.1231
   51CHL1   C14 3716   5.102   1.132   3.240 -0.4488 -0.1773  0.1380
   51CHL1   H14 3717   5.044   1.218   3.280  1.3558  2.1047 -1.8204
   51CHL1   C15 3718   5.218   1.125   3.348 -0.0538  0.0201 -0.1307
   51CHL1  H15A 3719   5.298   1.059   3.309  0.3411  1.7437 -2.4681
   51CHL1  H15B 3720   5.265   1.222   3.373  0.3348 -0.4904  1.1867
   51CHL1   C16 3721   5.161   1.044   3.462 -0.2808  0.0868 -0.2715
   51CHL1  H16A 3722   5.240   0.972   3.488 -0.8484 -0.5168 -0.1867
   51CHL1  H16B 3723   5.149   1.109   3.551  1.1853 -0.2244  0.1618
   51CHL1   C17 3724   5.023   0.984   3.416 -0.4104 -0.5324  0.4307
   51CHL1   H17 3725   4.942   1.051   3.452 -1.7957 -2.1502  0.4487
   51CHL1   C13 3726   5.032   1.002   3.256  0.9435  0.4712 -0.4058
   51CHL1   C18 3727   5.117   0.885   3.201  0.4526 -0.0453  0.9178
   51CHL1  H18A 3728   5.061   0.790   3.203  0.8845 -0.5397 -2.7318
   51CHL1  H18B 3729   5.125   0.893   3.090 -2.9857  1.6425  0.6390
   51CHL1  H18C 3730   5.214   0.874   3.254  0.6797  0.3193  0.5909
   51CHL1   C12 3731   4.900   1.019   3.182  0.6407  0.0560 -0.2536
   51CHL1  H12A 3732   4.826   0.937   3.195  0.2696  0.4274  0.0090
   51CHL1  H12B 3733   4.849   1.109   3.222  0.6510  0.2881 -0.7502
   51CHL1   C11 3734   4.913   1.054   3.033  0.5540 -0.1262 -0.0024
   51CHL1  H11A 3735   4.950   0.956   2.996  1.7768 -0.9051  2.9712
   51CHL1  H11B 3736   4.815   1.081   2.989  0.2319  5.2081  3.1066
   51CHL1    C9 3737   5.007   1.173   3.013 -1.1606  0.0501  0.0692
   51CHL1    H9 3738   4.956   1.267   3.043  0.5010  1.9229 -2.5554
   51CHL1   C10 3739   5.038   1.213   2.866  0.1702 -0.0829 -0.2029
   51CHL1   C19 3740   5.075   1.082   2.793 -0.5282 -0.5402  0.3941
   51CHL1  H19A 3741   5.113   1.105   2.691 -0.0840 -0.5251  0.5630
   51CHL1  H19B 3742   5.158   1.031   2.846  0.2488  1.0499  0.7968
   51CHL1  H19C 3743   4.985   1.018   2.786 -1.1285 -0.0188  2.5042
   51CHL1    C1 3744   4.909   1.261   2.794 -0.1033  0.2149 -0.2536
   51CHL1   H1A 3745   4.839   1.177   2.774  0.3853 -0.3692  0.4165
   51CHL1   H1B 3746   4.859   1.327   2.868  0.7442  0.5684  0.0171
   51CHL1    C2 3747   4.927   1.339   2.664  0.0372  0.1241 -0.7708
   51CHL1   H2A 3748   4.846   1.408   2.631  0.2336  0.8047  0.1236
   51CHL1   H2B 3749   4.955   1.273   2.578 -1.9824 -0.6457 -0.8952
   51CHL1   C20 3750   5.000   0.847   3.476 -0.2112 -1.2537 -0.0782
   51CHL1   H20 3751   5.080   0.785   3.429  0.1773  0.4169 -1.7334
   51CHL1   C21 3752   4.867   0.781   3.419  0.4219 -0.0333  0.8308
   51CHL1  H21A 3753   4.785   0.850   3.447  0.7371  0.2419  1.0904
   51CHL1  H21B 3754   4.842   0.683   3.466  0.4576 -1.2852 -1.5948
   51CHL1  H21C 3755   4.851   0.767   3.310 -1.5285 -1.7964  1.2735
   51CHL1   C22 3756   4.995   0.847   3.627  0.1810 -0.8438 -0.3351
   51CHL1  H22A 3757   5.024   0.943   3.674 -1.1447 -0.4926 -0.1911
   51CHL1  H22B 3758   4.894   0.821   3.667  0.9449 -1.2557  1.4595
   51CHL1   C23 3759   5.084   0.737   3.694  0.2839 -0.6471  0.5008
   51CHL1  H23A 3760   5.049   0.637   3.661 -1.2472  0.0862 -0.2378
   51CHL1  H23B 3761   5.186   0.752   3.655  0.0577  5.0617  1.1588
   51CHL1   C24 3762   5.100   0.763   3.850  0.0239 -0.2244  0.2602
   51CHL1  H24A 3763   5.169   0.689   3.896 -0.4721  0.9630  3.0828
   51CHL1  H24B 3764   5.147   0.863   3.861 -1.1665  0.2677  1.0406
   51CHL1   C25 3765   4.967   0.749   3.937  0.0601  0.4770 -0.1479
   51CHL1   H25 3766   4.886   0.813   3.897  1.2922  1.3196 -1.3743
   51CHL1   C26 3767   4.918   0.601   3.929  1.0980  0.2511  0.3300
   51CHL1  H26A 3768   4.873   0.582   3.829 -0.2989 -0.0615  0.9949
   51CHL1  H26B 3769   4.993   0.521   3.943 -0.5200 -0.9503  2.9666
   51CHL1  H26C 3770   4.844   0.589   4.012  0.9935  3.0378  0.7499
   51CHL1   C27 3771   4.991   0.776   4.082  0.2910 -0.1317 -0.6012
   51CHL1  H27A 3772   4.894   0.763   4.134  0.3086  1.1214 -0.2088
   51CHL1  H27B 3773   5.067   0.711   4.130 -0.3751 -0.2384  0.3409
   51CHL1  H27C 3774   5.035   0.878   4.096  0.4253 -0.4795  1.9604
   52CHL1    C3 3775   5.434   4.456   2.697  0.0964  0.5100  0.5930
   52CHL1    H3 3776   5.539   4.422   2.700  1.4392  4.2578  0.6596
   52CHL1    O3 3777   5.403   4.530   2.583 -0.0912  0.3346  0.1005
   52CHL1   H3' 3778   5.307   4.537   2.587 -0.0194  2.1613 -0.3600
   52CHL1    C4 3779   5.350   4.328   2.702 -0.0245  0.0061  0.3665
   52CHL1   H4A 3780   5.243   4.351   2.687  0.1254 -0.8104 -2.5459
   52CHL1   H4B 3781   5.372   4.255   2.622 -1.5152 -0.2605  0.1671
   52CHL1    C5 3782   5.348   4.254   2.836  0.1487  0.3348 -0.2952
   52CHL1    C6 3783   5.361   4.117   2.844 -0.3384 -0.9569  0.5187
   52CHL1    H6 3784   5.373   4.058   2.752 -0.3972  3.5364 -2.7053
   52CHL1    C7 3785   5.378   4.045   2.972  0.4864 -0.4307  0.8864
   52CHL1   H7A 3786   5.331   3.944   2.973  1.7242 -1.0226  0.7743
   52CHL1   H7B 3787   5.487   4.025   2.980  1.1289  0.4955 -3.4608
   52CHL1    C8 3788   5.333   4.122   3.095  0.6581  0.1972  0.4331
   52CHL1    H8 3789   5.222   4.124   3.086  0.7969 -0.1911 -2.2222
   52CHL1   C14 3790   5.362   4.042   3.227  0.2732 -0.0857  0.2910
   52CHL1   H14 3791   5.472   4.037   3.238  0.2449  0.5078  0.9648
   52CHL1   C15 3792   5.316   3.898   3.235  0.1342  0.4789 -0.2335
   52CHL1  H15A 3793   5.207   3.890   3.217 -0.1734  1.2045  1.2218
   52CHL1  H15B 3794   5.367   3.833   3.160 -0.4804 -0.6160  0.2871
   52CHL1   C16 3795   5.340   3.862   3.382 -0.7129 -0.2061  0.4099
   52CHL1  H16A 3796   5.247   3.817   3.423 -1.2993  0.5157 -0.1104
   52CHL1  H16B 3797   5.426   3.791   3.387  1.8685  2.5346 -1.4333
   52CHL1   C17 3798   5.367   3.994   3.455 -0.3063  0.2275 -0.1387
   52CHL1   H17 3799   5.477   4.012   3.455 -0.3406  0.7098 -2.0064
   52CHL1   C13 3800   5.317   4.107   3.362 -0.7264 -0.1941 -0.2341
   52CHL1   C18 3801   5.157   4.128   3.366 -0.5490 -0.1087  0.4863
   52CHL1  H18A 3802   5.096   4.036   3.358 -0.8919  0.1061  0.6363
   52CHL1  H18B 3803   5.130   4.179   3.460 -0.6823  6.0375 -2.4177
   52CHL1  H18C 3804   5.136   4.194   3.279 -2.0549  1.1720  1.7637
   52CHL1   C12 3805   5.390   4.252   3.358 -0.1245  0.3120 -0.4668
   52CHL1  H12A 3806   5.378   4.323   3.443  0.0301  1.1971 -1.1678
   52CHL1  H12B 3807   5.500   4.234   3.361  0.0324  1.3212  0.5200
   52CHL1   C11 3808   5.350   4.336   3.236 -0.3030  0.2018 -0.8356
   52CHL1  H11A 3809   5.242   4.364   3.239 -0.2481  0.5437 -1.7528
   52CHL1  H11B 3810   5.404   4.432   3.248  1.9209 -1.3529  4.3152
   52CHL1    C9 3811   5.386   4.265   3.100 -0.4284  0.2310  0.5354
   52CHL1    H9 3812   5.496   4.257   3.100 -0.4819 -0.7903 -0.5355
   52CHL1   C10 3813   5.343   4.345   2.966  1.0396  0.0550 -0.2898
   52CHL1   C19 3814   5.197   4.385   2.977 -0.4248 -0.1673  0.1866
   52CHL1  H19A 3815   5.189   4.472   3.047 -0.3618 -0.3959  0.4819
   52CHL1  H19B 3816   5.162   4.429   2.882  1.0230 -0.6158 -0.5909
   52CHL1  H19C 3817   5.132   4.296   2.986 -0.8381 -0.0004 -0.9958
   52CHL1    C1 3818   5.438   4.470   2.953  0.5284  0.1219  0.7704
   52CHL1   H1A 3819   5.423   4.539   3.039 -1.3105  2.3013 -1.1464
   52CHL1   H1B 3820   5.544   4.437   2.948  1.1493  1.9188  1.2241
   52CHL1    C2 3821   5.415   4.541   2.819  0.1473 -0.3768  0.3868
   52CHL1   H2A 3822   5.493   4.619   2.804  0.2173 -0.4508  0.3640
   52CHL1   H2B 3823   5.315   4.589   2.819 -0.4248 -1.5189 -0.8812
   52CHL1   C20 3824   5.316   3.998   3.593 -0.2253  0.1930 -0.5187
   52CHL1   H20 3825   5.205   4.003   3.589 -0.1654  2.0418 -0.8121
   52CHL1   C21 3826   5.381   4.113   3.670  0.2554  0.0855 -0.0080
   52CHL1  H21A 3827   5.382   4.215   3.626 -0.2666  0.6223  1.1819
   52CHL1  H21B 3828   5.484   4.072   3.672  0.2005 -0.0420  1.1311
   52CHL1  H21C 3829   5.338   4.114   3.773  2.3833 -0.4658  0.9477
   52CHL1   C22 3830   5.352   3.872   3.671  0.5452  1.0725 -0.5671
   52CHL1  H22A 3831   5.302   3.789   3.618  3.1762  0.8088 -2.8550
   52CHL1  H22B 3832   5.462   3.858   3.673  0.6869  1.7837 -2.3523
   52CHL1   C23 3833   5.284   3.856   3.810 -0.2666 -0.0860  0.0285
   52CHL1  H23A 3834   5.349   3.915   3.877  1.5736 -2.1022  0.1557
   52CHL1  H23B 3835   5.182   3.899   3.798  0.5315  1.7857 -0.2953
   52CHL1   C24 3836   5.272   3.716   3.869  0.3301  0.0864  0.3896
   52CHL1  H24A 3837   5.197   3.730   3.950 -1.0966  1.3644 -1.0623
   52CHL1  H24B 3838   5.220   3.646   3.800  2.6897 -1.0794 -0.3063
   52CHL1   C25 3839   5.401   3.633   3.904 -0.6562 -0.8173 -0.6856
   52CHL1   H25 3840   5.470   3.642   3.817 -0.4538 -1.3668 -0.5795
   52CHL1   C26 3841   5.470   3.681   4.019 -0.5414  0.0874 -0.7076
   52CHL1  H26A 3842   5.419   3.677   4.117  1.0568 -0.2897  0.1404
   52CHL1  H26B 3843   5.560   3.620   4.042 -1.4540 -1.5489 -1.2968
   52CHL1  H26C 3844   5.502   3.787   4.006  0.0853  0.3833  2.5094
   52CHL1   C27 3845   5.362   3.481   3.930 -0.1869 -0.4475  0.0966
   52CHL1  H27A 3846   5.310   3.476   4.028 -0.0405 -0.5900  0.1679
   52CHL1  H27B 3847   5.292   3.446   3.852  0.2499 -1.2024  0.0406
   52CHL1  H27C 3848   5.457   3.423   3.930  0.2385  0.1718  2.1173
   53CHL1    C3 3849   0.870   1.514   2.956 -0.0748 -0.2740 -0.7483
   53CHL1    H3 3850   0.765   1.525   2.992  0.5756 -1.3765  1.6825
   53CHL1    O3 3851   0.858   1.491   2.813 -0.3192  0.2537 -0.2957
   53CHL1   H3' 3852   0.836   1.576   2.775  1.3001  0.1089 -1.6697
   53CHL1    C4 3853   0.958   1.635   2.985 -0.2690 -0.2281  0.2255
   53CHL1   H4A 3854   1.059   1.605   2.948 -0.8617 -4.0278  1.2237
   53CHL1   H4B 3855   0.916   1.722   2.931  0.6606 -0.5728 -1.1229
   53CHL1    C5 3856   0.965   1.660   3.137 -0.0381  0.3028  0.1018
   53CHL1    C6 3857   0.935   1.774   3.198 -0.3663  0.1037  0.5454
   53CHL1    H6 3858   0.898   1.858   3.137 -2.7492 -1.4826 -0.3134
   53CHL1    C7 3859   0.941   1.806   3.347 -0.0010 -0.2798  0.0597
   53CHL1   H7A 3860   0.987   1.906   3.361 -2.6165  1.0092  0.1051
   53CHL1   H7B 3861   0.840   1.818   3.393  0.7047  1.9741  1.1546
   53CHL1    C8 3862   1.027   1.702   3.427  0.0955 -0.5484  0.4696
   53CHL1    H8 3863   1.131   1.726   3.395 -0.2724 -0.2125 -0.4980
   53CHL1   C14 3864   1.019   1.728   3.570  0.0407 -0.5900  0.5588
   53CHL1   H14 3865   0.914   1.705   3.596  0.1772  0.4837  2.1622
   53CHL1   C15 3866   1.026   1.868   3.626 -0.2877 -0.1239 -0.1741
   53CHL1  H15A 3867   1.113   1.929   3.591  0.3785 -0.1675  1.3302
   53CHL1  H15B 3868   0.932   1.927   3.614 -0.7514 -1.1617 -2.0852
   53CHL1   C16 3869   1.050   1.852   3.774  0.4733  0.0854 -0.6509
   53CHL1  H16A 3870   1.150   1.894   3.796  0.2217 -0.0620  0.9011
   53CHL1  H16B 3871   0.971   1.901   3.836  0.2192  0.6058 -1.3745
   53CHL1   C17 3872   1.059   1.693   3.800  0.3709  0.4025  0.5854
   53CHL1   H17 3873   0.952   1.668   3.819  0.3290  0.2785  0.1823
   53CHL1   C13 3874   1.093   1.628   3.657 -0.2428  0.0865 -0.6807
   53CHL1   C18 3875   1.249   1.629   3.637 -0.9865 -0.5191 -0.9409
   53CHL1  H18A 3876   1.300   1.541   3.681  1.1107  1.4603  0.8544
   53CHL1  H18B 3877   1.275   1.636   3.529 -2.3231  0.4178 -1.2324
   53CHL1  H18C 3878   1.286   1.723   3.683  0.0122 -0.9989 -0.7310
   53CHL1   C12 3879   1.042   1.479   3.623 -0.6454  0.3275  0.4519
   53CHL1  H12A 3880   1.101   1.409   3.685  1.8400  3.0948  1.4850
   53CHL1  H12B 3881   0.935   1.473   3.650 -0.0397 -2.4394  2.7025
   53CHL1   C11 3882   1.072   1.453   3.470  0.7652  0.3967  0.3923
   53CHL1  H11A 3883   1.181   1.451   3.449  0.8296 -0.3883  0.7478
   53CHL1  H11B 3884   1.025   1.356   3.445 -2.1290  2.0299 -0.9740
   53CHL1    C9 3885   1.005   1.560   3.375 -0.7838 -0.2478  0.2564
   53CHL1    H9 3886   0.896   1.542   3.392 -0.6040 -1.0249  0.6562
   53CHL1   C10 3887   1.019   1.545   3.213 -0.1727  0.6286 -0.3456
   53CHL1   C19 3888   1.175   1.530   3.191 -0.3384  0.4673 -0.3269
   53CHL1  H19A 3889   1.211   1.431   3.229  0.7970  1.2906  0.8391
   53CHL1  H19B 3890   1.208   1.545   3.086  0.2196  1.6304 -0.0043
   53CHL1  H19C 3891   1.233   1.611   3.240  0.4810 -0.4092  0.2143
   53CHL1    C1 3892   0.942   1.417   3.177  0.0074  0.1265  0.9226
   53CHL1   H1A 3893   0.990   1.327   3.222 -0.9625 -1.5218 -1.1303
   53CHL1   H1B 3894   0.838   1.422   3.214  0.4304  1.8089  2.0027
   53CHL1    C2 3895   0.933   1.391   3.027  0.2894 -0.5405 -0.1485
   53CHL1   H2A 3896   0.865   1.305   3.009 -0.9691  0.1883  0.9539
   53CHL1   H2B 3897   1.029   1.370   2.975 -0.3755 -0.0856 -1.5896
   53CHL1   C20 3898   1.139   1.656   3.925  0.1054  0.0414  0.9638
   53CHL1   H20 3899   1.247   1.671   3.906  0.3179 -1.1039  1.1696
   53CHL1   C21 3900   1.119   1.508   3.947 -0.1705 -0.1153 -0.1381
   53CHL1  H21A 3901   1.167   1.481   4.044 -0.9572  0.2518  0.3564
   53CHL1  H21B 3902   1.177   1.456   3.868  2.1298  1.6786  0.2430
   53CHL1  H21C 3903   1.011   1.484   3.953 -0.1790 -0.4312 -1.3401
   53CHL1   C22 3904   1.107   1.745   4.050  0.2015 -0.1232 -1.0461
   53CHL1  H22A 3905   1.122   1.851   4.021 -0.4485 -0.3516 -2.2650
   53CHL1  H22B 3906   1.003   1.715   4.072  0.6023 -1.6748 -1.1673
   53CHL1   C23 3907   1.194   1.717   4.173  0.8559  0.2904 -0.3452
   53CHL1  H23A 3908   1.188   1.608   4.194 -3.7375  0.3401 -0.3361
   53CHL1  H23B 3909   1.299   1.740   4.147  0.9136 -0.2832 -0.6314
   53CHL1   C24 3910   1.145   1.810   4.290 -0.0215  0.7996 -0.8216
   53CHL1  H24A 3911   1.169   1.915   4.266 -1.0577  1.8351  2.1990
   53CHL1  H24B 3912   1.037   1.793   4.306  0.4516 -1.4469  0.4753
   53CHL1   C25 3913   1.222   1.789   4.429 -0.1785  0.3635 -0.8629
   53CHL1   H25 3914   1.328   1.808   4.402 -0.0771 -0.2029 -0.8931
   53CHL1   C26 3915   1.165   1.890   4.536  1.0992  0.1669  0.3201
   53CHL1  H26A 3916   1.192   1.991   4.497 -1.6515  1.5972  1.8092
   53CHL1  H26B 3917   1.054   1.891   4.536  1.0454 -0.3584 -1.9045
   53CHL1  H26C 3918   1.211   1.872   4.635 -0.2195  3.3649  1.6803
   53CHL1   C27 3919   1.209   1.646   4.483 -0.0541 -0.1306  0.5234
   53CHL1  H27A 3920   1.106   1.606   4.484  1.2497 -3.9204  2.6015
   53CHL1  H27B 3921   1.258   1.568   4.420  1.2794  0.0881  1.2471
   53CHL1  H27C 3922   1.241   1.634   4.589  0.8648 -0.0625  0.2643
   54CHL1    C3 3923   0.495   1.100   2.975 -0.0356  0.4119  0.2165
   54CHL1    H3 3924   0.514   1.002   3.024 -1.0839  1.1493  2.2078
   54CHL1    O3 3925   0.482   1.101   2.832  0.0963 -0.1517 -0.3688
   54CHL1   H3' 3926   0.468   1.193   2.811  0.6650  0.0796  0.2428
   54CHL1    C4 3927   0.373   1.166   3.045 -0.1347  0.5581  0.3526
   54CHL1   H4A 3928   0.354   1.272   3.018 -2.7683  0.7253  2.4347
   54CHL1   H4B 3929   0.283   1.106   3.019 -0.3891  0.9267  0.3708
   54CHL1    C5 3930   0.392   1.170   3.194 -0.4669 -0.0289  0.3683
   54CHL1    C6 3931   0.309   1.114   3.279  0.6082 -0.0234  0.3338
   54CHL1    H6 3932   0.214   1.086   3.232  0.5241  1.0768 -0.1975
   54CHL1    C7 3933   0.324   1.093   3.422  0.6539  0.4334  0.2684
   54CHL1   H7A 3934   0.230   1.128   3.468 -0.6787 -1.4577 -0.8906
   54CHL1   H7B 3935   0.341   0.987   3.449 -1.1941  0.7809  3.2570
   54CHL1    C8 3936   0.440   1.172   3.484 -0.5125  0.1387 -0.4785
   54CHL1    H8 3937   0.408   1.278   3.488  0.4756  0.4523 -0.5346
   54CHL1   C14 3938   0.473   1.102   3.617 -0.5275  0.5163  0.4844
   54CHL1   H14 3939   0.519   1.001   3.604  0.2536  0.5946  2.3572
   54CHL1   C15 3940   0.358   1.075   3.716  0.6922 -0.2537 -0.6563
   54CHL1  H15A 3941   0.289   1.163   3.714  0.3481 -0.5039  0.0688
   54CHL1  H15B 3942   0.283   0.998   3.689 -1.9919  2.2535 -0.9838
   54CHL1   C16 3943   0.429   1.057   3.851  0.2753 -0.2605 -0.4271
   54CHL1  H16A 3944   0.384   1.136   3.915 -1.7490 -0.8342 -1.0656
   54CHL1  H16B 3945   0.397   0.962   3.898 -0.5712  1.0491  1.7996
   54CHL1   C17 3946   0.584   1.089   3.826  0.5023  0.1915 -0.1611
   54CHL1   H17 3947   0.631   0.990   3.807 -1.4842 -1.4280  2.6509
   54CHL1   C13 3948   0.576   1.173   3.695  0.2047  0.7517  0.0411
   54CHL1   C18 3949   0.525   1.321   3.735 -0.1520  0.2257 -0.0497
   54CHL1  H18A 3950   0.415   1.325   3.754 -1.0201 -1.2255 -3.8118
   54CHL1  H18B 3951   0.584   1.359   3.820 -0.2085  2.0348 -0.7637
   54CHL1  H18C 3952   0.538   1.389   3.648 -1.8809 -2.5437 -2.7213
   54CHL1   C12 3953   0.704   1.187   3.608  0.0231  0.0708 -0.1332
   54CHL1  H12A 3954   0.782   1.248   3.659 -0.0013 -0.0200  0.0146
   54CHL1  H12B 3955   0.747   1.085   3.595  0.2980 -0.1178  1.8650
   54CHL1   C11 3956   0.683   1.246   3.471  0.4840 -0.1525  0.2167
   54CHL1  H11A 3957   0.639   1.347   3.487 -0.9503 -1.0908  3.0415
   54CHL1  H11B 3958   0.768   1.256   3.400 -0.6106  3.0479 -0.8179
   54CHL1    C9 3959   0.566   1.174   3.392 -0.3595 -0.0214 -0.0231
   54CHL1    H9 3960   0.590   1.066   3.383 -2.1619 -0.3219 -2.1486
   54CHL1   C10 3961   0.533   1.227   3.243 -0.0694  0.4743 -0.8095
   54CHL1   C19 3962   0.532   1.390   3.246 -0.0465  0.8330  0.0581
   54CHL1  H19A 3963   0.450   1.434   3.305 -1.3473 -0.4047 -0.7564
   54CHL1  H19B 3964   0.639   1.419   3.254  0.9342 -2.3434  0.0394
   54CHL1  H19C 3965   0.506   1.427   3.144  1.4378  0.3531 -0.5275
   54CHL1    C1 3966   0.652   1.181   3.159  0.2634  0.1980  0.1760
   54CHL1   H1A 3967   0.750   1.231   3.172  0.9470 -0.7646 -1.0325
   54CHL1   H1B 3968   0.673   1.074   3.182  2.4090  0.5870  0.2299
   54CHL1    C2 3969   0.614   1.193   3.013 -0.3078  0.5655 -0.2757
   54CHL1   H2A 3970   0.705   1.161   2.957 -0.6660  1.4553 -1.3997
   54CHL1   H2B 3971   0.597   1.298   2.982 -0.8305  0.1199 -1.5487
   54CHL1   C20 3972   0.651   1.149   3.951 -0.1329  0.7933  0.2887
   54CHL1   H20 3973   0.593   1.232   3.996 -1.5354 -0.2230  0.4070
   54CHL1   C21 3974   0.790   1.200   3.921  0.1386  0.4416 -0.7418
   54CHL1  H21A 3975   0.785   1.302   3.878 -0.9673  0.1296 -1.3708
   54CHL1  H21B 3976   0.841   1.135   3.847 -1.4750 -2.0858  0.2427
   54CHL1  H21C 3977   0.848   1.193   4.016 -1.8200  1.5004  0.6054
   54CHL1   C22 3978   0.653   1.035   4.059  0.5569 -0.7175 -0.7995
   54CHL1  H22A 3979   0.552   0.989   4.069  0.1274  0.6607  2.5670
   54CHL1  H22B 3980   0.724   0.959   4.018 -0.8024 -0.4744 -3.8716
   54CHL1   C23 3981   0.688   1.092   4.200 -0.3065 -0.8398 -0.6498
   54CHL1  H23A 3982   0.780   1.154   4.208  0.0582 -1.2369 -1.5613
   54CHL1  H23B 3983   0.603   1.147   4.244  0.6713  0.8450 -0.7893
   54CHL1   C24 3984   0.706   0.980   4.303  0.6409  0.2797  0.5859
   54CHL1  H24A 3985   0.627   0.905   4.283  1.6258  0.2778 -4.8260
   54CHL1  H24B 3986   0.796   0.922   4.271 -0.1017 -1.0151  0.7659
   54CHL1   C25 3987   0.743   1.014   4.443  0.2039 -0.3196  0.0475
   54CHL1   H25 3988   0.746   0.913   4.488  1.9639 -0.6746 -0.7773
   54CHL1   C26 3989   0.879   1.085   4.471 -0.1896 -0.5704  0.0205
   54CHL1  H26A 3990   0.872   1.184   4.421 -1.8516 -1.0236 -0.7348
   54CHL1  H26B 3991   0.892   1.111   4.578 -1.0287 -0.1701  0.0318
   54CHL1  H26C 3992   0.972   1.035   4.436  0.2485  0.0733  0.2498
   54CHL1   C27 3993   0.635   1.102   4.511 -0.1731  0.9259 -0.5715
   54CHL1  H27A 3994   0.533   1.064   4.489 -0.1255  0.8411 -0.6461
   54CHL1  H27B 3995   0.663   1.097   4.618  1.7177  0.0291 -1.0531
   54CHL1  H27C 3996   0.641   1.207   4.476  0.2070  1.4957  1.1447
   55CHL1    C3 3997   2.247   2.115   2.518 -0.3586 -0.5105 -0.2415
   55CHL1    H3 3998   2.222   2.007   2.527  1.6955 -0.8208  3.4937
   55CHL1    O3 3999   2.290   2.150   2.390  0.4906 -0.6648 -0.9186
   55CHL1   H3' 4000   2.364   2.092   2.369  1.2416 -0.5538  1.1355
   55CHL1    C4 4001   2.125   2.200   2.559 -0.8506  0.2432  0.9344
   55CHL1   H4A 4002   2.142   2.310   2.547 -0.8278  0.1219 -0.2819
   55CHL1   H4B 4003   2.041   2.181   2.489 -0.1901  0.9960 -0.0986
   55CHL1    C5 4004   2.095   2.170   2.707 -0.4633 -0.2180  0.3321
   55CHL1    C6 4005   1.973   2.135   2.747  0.4858  0.6084  0.6514
   55CHL1    H6 4006   1.885   2.130   2.682 -0.0964  1.4680  1.3653
   55CHL1    C7 4007   1.932   2.094   2.882  0.9464 -0.5370 -0.3348
   55CHL1   H7A 4008   1.838   2.150   2.903 -0.2458 -2.5226 -0.1490
   55CHL1   H7B 4009   1.916   1.984   2.883 -4.0392 -0.0208 -0.9923
   55CHL1    C8 4010   2.024   2.153   2.988  0.1815  0.1363  0.5292
   55CHL1    H8 4011   2.011   2.263   2.997 -1.8342  0.0379 -0.6387
   55CHL1   C14 4012   2.002   2.085   3.122  0.4158 -0.1870  0.3245
   55CHL1   H14 4013   2.019   1.977   3.104  1.5132 -0.4371  2.5284
   55CHL1   C15 4014   1.859   2.092   3.174  0.0746 -0.8043 -0.0127
   55CHL1  H15A 4015   1.823   2.197   3.164 -0.5206 -1.0072 -0.0352
   55CHL1  H15B 4016   1.799   2.026   3.109 -0.1739 -0.0860 -0.5313
   55CHL1   C16 4017   1.864   2.054   3.323 -0.7743 -0.3179  0.0711
   55CHL1  H16A 4018   1.820   2.140   3.379  1.8576  0.0844  1.7072
   55CHL1  H16B 4019   1.806   1.963   3.348  1.2849 -2.7389 -3.1076
   55CHL1   C17 4020   2.014   2.039   3.362  0.8186  0.3888  0.2022
   55CHL1   H17 4021   2.045   1.934   3.342  2.1047  0.9173 -0.7183
   55CHL1   C13 4022   2.087   2.115   3.244  0.1234  0.2062 -0.0682
   55CHL1   C18 4023   2.079   2.265   3.276  0.3485  0.7345  0.6047
   55CHL1  H18A 4024   2.095   2.332   3.190 -1.4671  0.4355 -0.0027
   55CHL1  H18B 4025   1.986   2.287   3.333  1.5032 -1.3667  3.6174
   55CHL1  H18C 4026   2.164   2.282   3.346  0.4717 -0.7855  0.8767
   55CHL1   C12 4027   2.232   2.071   3.204  0.7548  0.0031 -0.5500
   55CHL1  H12A 4028   2.304   2.099   3.284 -0.8201  1.4403  0.4402
   55CHL1  H12B 4029   2.232   1.961   3.186 -0.4589 -0.3999  1.4945
   55CHL1   C11 4030   2.275   2.136   3.070  0.0409  0.4054  0.3815
   55CHL1  H11A 4031   2.300   2.244   3.073  1.4492  0.0803  1.5274
   55CHL1  H11B 4032   2.375   2.095   3.047  0.5099  1.8202 -0.2036
   55CHL1    C9 4033   2.171   2.116   2.946 -0.4775  0.1945  0.2309
   55CHL1    H9 4034   2.167   2.006   2.934 -0.9555  0.2501 -0.1130
   55CHL1   C10 4035   2.212   2.182   2.811 -0.0453  0.3395 -0.0929
   55CHL1   C19 4036   2.250   2.331   2.836 -0.1291  0.6808  0.6151
   55CHL1  H19A 4037   2.257   2.395   2.746  1.1423  2.9739  2.2530
   55CHL1  H19B 4038   2.172   2.375   2.902 -1.3040  1.8191 -1.4466
   55CHL1  H19C 4039   2.340   2.339   2.900  0.8226 -1.9820 -0.2389
   55CHL1    C1 4040   2.338   2.105   2.759 -0.4921  0.9565  0.1004
   55CHL1   H1A 4041   2.426   2.133   2.821 -0.4504 -1.4649  1.2108
   55CHL1   H1B 4042   2.324   1.995   2.763  1.3384  0.5693 -2.0376
   55CHL1    C2 4043   2.369   2.137   2.612 -0.3680  0.4816  0.5511
   55CHL1   H2A 4044   2.464   2.086   2.582  0.6437  3.0966 -0.9492
   55CHL1   H2B 4045   2.393   2.245   2.605  0.0459  0.3159 -0.8309
   55CHL1   C20 4046   2.049   2.081   3.505  0.1612  0.0287 -0.1743
   55CHL1   H20 4047   2.056   2.191   3.516  0.7090 -0.2235  2.6976
   55CHL1   C21 4048   2.186   2.013   3.544  0.0652 -0.1555  0.0616
   55CHL1  H21A 4049   2.275   2.023   3.478 -0.0993  0.8593 -0.0176
   55CHL1  H21B 4050   2.169   1.903   3.554 -1.3925  0.1805  1.7140
   55CHL1  H21C 4051   2.224   2.041   3.644  0.6294 -1.3737  0.2133
   55CHL1   C22 4052   1.930   2.058   3.603 -0.3851  0.1140  0.2352
   55CHL1  H22A 4053   1.843   2.124   3.583  1.5510  2.3943 -1.1285
   55CHL1  H22B 4054   1.905   1.950   3.595  2.1089 -0.5743  0.6928
   55CHL1   C23 4055   1.973   2.076   3.749 -0.4066 -0.0502 -0.1689
   55CHL1  H23A 4056   2.039   1.992   3.780 -1.7603 -0.8594  0.6028
   55CHL1  H23B 4057   2.035   2.169   3.751  0.4432 -0.6080  0.7435
   55CHL1   C24 4058   1.854   2.110   3.841  0.3336  1.1397 -0.2707
   55CHL1  H24A 4059   1.793   2.190   3.795 -0.6415  0.5086 -0.1081
   55CHL1  H24B 4060   1.785   2.023   3.836 -0.5051  1.8325 -1.2435
   55CHL1   C25 4061   1.901   2.151   3.977  0.2531 -0.4395  0.0721
   55CHL1   H25 4062   1.807   2.180   4.029  0.0357  0.7181 -0.9296
   55CHL1   C26 4063   1.972   2.037   4.054  0.1773 -0.5232 -0.1245
   55CHL1  H26A 4064   1.911   1.945   4.067 -1.6902  0.3378 -2.1768
   55CHL1  H26B 4065   2.066   2.017   3.998  1.1403  1.6238  0.6200
   55CHL1  H26C 4066   2.000   2.077   4.154 -0.6216  2.7616 -1.1009
   55CHL1   C27 4067   1.987   2.283   3.984 -0.5637 -0.4198  0.3475
   55CHL1  H27A 4068   1.997   2.310   4.091  1.5619 -0.2680  0.1485
   55CHL1  H27B 4069   2.088   2.255   3.947 -0.4675  1.3182 -0.8239
   55CHL1  H27C 4070   1.935   2.367   3.934  1.2814 -1.0875 -2.9423
   56CHL1    C3 4071   2.238   1.634   2.708 -0.4832 -0.2314 -0.5369
   56CHL1    H3 4072   2.311   1.718   2.711 -0.4150 -0.2941 -0.4116
   56CHL1    O3 4073   2.194   1.617   2.574 -0.1226  0.0567 -0.3806
   56CHL1   H3' 4074   2.169   1.705   2.545 -0.9435  0.3936  1.2474
   56CHL1    C4 4075   2.322   1.511   2.757 -0.3002 -0.1692  0.5289
   56CHL1   H4A 4076   2.256   1.423   2.743  0.2844 -0.5988  0.4768
   56CHL1   H4B 4077   2.411   1.493   2.694 -0.2807 -0.8868  0.7535
   56CHL1    C5 4078   2.353   1.536   2.903 -0.2868  0.6625 -0.2355
   56CHL1    C6 4079   2.482   1.524   2.950  0.2401 -0.2104  0.7533
   56CHL1    H6 4080   2.566   1.501   2.882 -0.4105  0.5647 -0.3625
   56CHL1    C7 4081   2.517   1.553   3.096  0.5276 -0.1211  0.4145
   56CHL1   H7A 4082   2.604   1.496   3.134  0.7493 -0.6459 -0.8299
   56CHL1   H7B 4083   2.551   1.658   3.092  0.3946 -0.0132  1.7527
   56CHL1    C8 4084   2.396   1.536   3.193 -0.3733 -0.3733  0.3092
   56CHL1    H8 4085   2.372   1.428   3.203  2.1284 -0.8243  2.1857
   56CHL1   C14 4086   2.439   1.584   3.331 -0.0037 -0.5048 -0.4758
   56CHL1   H14 4087   2.461   1.693   3.323  1.1276 -0.2906  3.3948
   56CHL1   C15 4088   2.561   1.522   3.399  0.1605  0.7913  0.0374
   56CHL1  H15A 4089   2.557   1.412   3.387  0.5772  0.9318 -1.7193
   56CHL1  H15B 4090   2.663   1.553   3.370  0.8815 -0.4888  1.1286
   56CHL1   C16 4091   2.539   1.549   3.549  0.3783  1.0471 -0.3960
   56CHL1  H16A 4092   2.537   1.453   3.604 -2.1333  1.7086  0.8144
   56CHL1  H16B 4093   2.630   1.599   3.590  0.2530 -0.1320  1.4016
   56CHL1   C17 4094   2.405   1.625   3.560  0.0525 -0.3918  0.3367
   56CHL1   H17 4095   2.419   1.734   3.548  0.7591 -0.6744 -1.9062
   56CHL1   C13 4096   2.325   1.582   3.436 -1.1891 -0.3016  0.6618
   56CHL1   C18 4097   2.279   1.432   3.455  0.5987 -0.5730 -0.2894
   56CHL1  H18A 4098   2.358   1.374   3.508  2.6566  2.6762  0.4902
   56CHL1  H18B 4099   2.189   1.432   3.519 -0.4774 -0.2768 -1.7595
   56CHL1  H18C 4100   2.246   1.383   3.361  0.7625 -1.3222  0.0303
   56CHL1   C12 4101   2.217   1.670   3.381  0.2329 -0.4814 -0.9678
   56CHL1  H12A 4102   2.124   1.676   3.441  0.9614  1.3050  0.0492
   56CHL1  H12B 4103   2.264   1.770   3.373  3.1680 -1.8857 -3.1826
   56CHL1   C11 4104   2.165   1.620   3.245 -0.9999 -0.5276 -0.3254
   56CHL1  H11A 4105   2.110   1.524   3.260 -1.1568 -0.1762  1.6068
   56CHL1  H11B 4106   2.087   1.690   3.209  0.8433  1.1647 -1.1979
   56CHL1    C9 4107   2.280   1.623   3.136  0.1533 -0.5494  0.0147
   56CHL1    H9 4108   2.310   1.730   3.132  2.4919 -1.1268  0.5796
   56CHL1   C10 4109   2.240   1.577   2.997 -0.5067  0.1805  0.7695
   56CHL1   C19 4110   2.157   1.447   3.004 -0.1309  0.2515 -0.5554
   56CHL1  H19A 4111   2.051   1.448   3.038  0.2986 -0.6311  0.9085
   56CHL1  H19B 4112   2.147   1.399   2.905 -0.4488  2.4440 -1.6340
   56CHL1  H19C 4113   2.210   1.377   3.072  2.1532  0.7193 -1.7602
   56CHL1    C1 4114   2.158   1.698   2.933 -0.2250  0.4470 -0.1513
   56CHL1   H1A 4115   2.068   1.719   2.995 -0.4557 -0.6827 -0.0731
   56CHL1   H1B 4116   2.221   1.789   2.942  0.5032 -0.1250  0.7465
   56CHL1    C2 4117   2.113   1.664   2.792 -0.0185 -0.0282 -0.4256
   56CHL1   H2A 4118   2.055   1.750   2.751  2.2256  0.4107 -2.9200
   56CHL1   H2B 4119   2.056   1.569   2.796  1.3409 -0.8517 -0.0929
   56CHL1   C20 4120   2.346   1.592   3.702  0.3351  0.4683 -0.2149
   56CHL1   H20 4121   2.356   1.482   3.710 -0.8686  0.2373 -1.6481
   56CHL1   C21 4122   2.197   1.627   3.715 -0.6758  0.5983  0.1160
   56CHL1  H21A 4123   2.126   1.581   3.643 -0.4558  0.1176  0.2043
   56CHL1  H21B 4124   2.193   1.737   3.699  0.9670  0.6192 -0.2506
   56CHL1  H21C 4125   2.159   1.606   3.818  2.1105 -0.3656  1.0377
   56CHL1   C22 4126   2.430   1.659   3.811  0.0078  0.3408 -0.2204
   56CHL1  H22A 4127   2.539   1.653   3.790  0.4629 -2.4869  2.1981
   56CHL1  H22B 4128   2.396   1.764   3.822  0.1879  0.2950  0.9477
   56CHL1   C23 4129   2.426   1.580   3.940  0.2535 -0.3554 -0.0606
   56CHL1  H23A 4130   2.316   1.569   3.957 -0.2543  2.3588 -1.0443
   56CHL1  H23B 4131   2.475   1.484   3.913  2.3905  0.5352  0.4918
   56CHL1   C24 4132   2.495   1.647   4.066 -1.1343  0.0327 -0.4663
   56CHL1  H24A 4133   2.599   1.676   4.043 -0.1589  0.5481  3.7344
   56CHL1  H24B 4134   2.435   1.737   4.092  0.1349  0.2172  2.1887
   56CHL1   C25 4135   2.515   1.550   4.185  0.2659  0.0412 -0.3942
   56CHL1   H25 4136   2.566   1.458   4.147 -0.4086  0.1616 -1.6552
   56CHL1   C26 4137   2.599   1.616   4.294  0.1252  0.6091 -0.4355
   56CHL1  H26A 4138   2.656   1.543   4.354 -1.8140 -0.1733  0.5280
   56CHL1  H26B 4139   2.672   1.690   4.252 -0.7605  0.6406 -1.9855
   56CHL1  H26C 4140   2.533   1.675   4.361 -0.0891  0.6526 -0.6806
   56CHL1   C27 4141   2.373   1.513   4.250  0.0869  0.4580  0.1553
   56CHL1  H27A 4142   2.333   1.426   4.194  1.2972  0.9401 -1.5394
   56CHL1  H27B 4143   2.370   1.489   4.358  2.0782 -0.0898  0.1206
   56CHL1  H27C 4144   2.296   1.592   4.235 -2.0822 -1.4126  0.8786
   57SAPC     N 4145   6.324   1.321   6.621  0.2208 -0.4093 -0.7122
   57SAPC   C12 4146   6.225   1.278   6.510  0.3453  0.6086 -0.1134
   57SAPC  H12A 4147   6.181   1.181   6.530 -1.6119  1.5500  0.4048
   57SAPC  H12B 4148   6.289   1.256   6.426  1.0646 -3.7750  1.2938
   57SAPC   C13 4149   6.435   1.216   6.605 -0.3608  0.6563  0.3018
   57SAPC  H13A 4150   6.406   1.112   6.603 -0.5254  0.6956  0.6413
   57SAPC  H13B 4151   6.479   1.222   6.506 -1.3182 -0.1957 -0.1895
   57SAPC  H13C 4152   6.516   1.240   6.672  0.1529 -1.5974  0.5556
   57SAPC   C14 4153   6.387   1.447   6.589 -0.7504  0.2630 -0.4940
   57SAPC  H14A 4154   6.467   1.472   6.657 -0.3275 -0.5309 -0.6837
   57SAPC  H14B 4155   6.432   1.454   6.491 -1.1491  2.2084 -0.5707
   57SAPC  H14C 4156   6.321   1.533   6.595  0.7875  1.5384 -1.1800
   57SAPC   C15 4157   6.271   1.320   6.763 -0.6047 -0.1333 -0.6279
   57SAPC  H15A 4158   6.260   1.222   6.808 -0.4273  1.1512  2.4924
   57SAPC  H15B 4159   6.330   1.377   6.833 -0.5390  0.1658 -0.9234
   57SAPC  H15C 4160   6.176   1.371   6.777  0.7731  2.2295  0.8652
   57SAPC   C11 4161   6.117   1.373   6.459 -0.7600 -0.7451 -0.1745
   57SAPC  H11A 4162   6.051   1.316   6.391 -1.2678 -0.5198  0.1277
   57SAPC  H11B 4163   6.170   1.449   6.398 -1.5129 -0.1001 -0.0427
   57SAPC     P 4164   6.020   1.595   6.561 -0.1308 -0.1048  0.3390
   57SAPC   O13 4165   5.942   1.620   6.683  0.3161  0.1936  0.0160
   57SAPC   O14 4166   6.144   1.668   6.547  0.0502  0.1636  0.2003
   57SAPC   O12 4167   6.046   1.435   6.572  0.7102 -0.4716  0.7888
   57SAPC   O11 4168   5.926   1.615   6.440  0.5581  0.2704 -0.3613
   57SAPC    C1 4169   5.805   1.543   6.429 -0.0119 -0.7434 -0.2640
   57SAPC    HA 4170   5.820   1.433   6.426  0.6819 -0.6744  0.3554
   57SAPC    HB 4171   5.742   1.561   6.518  0.5575 -1.1853  0.2441
   57SAPC    C2 4172   5.736   1.602   6.302 -0.5759  0.0719  0.0785
   57SAPC    HS 4173   5.640   1.553   6.276 -0.7930  0.7778 -0.4824
   57SAPC   O21 4174   5.832   1.603   6.190  0.0318  0.3587 -0.0217
   57SAPC   C21 4175   5.858   1.482   6.134 -0.1090 -0.5199  0.0191
   57SAPC   O22 4176   5.817   1.376   6.182 -0.1467  0.0021 -0.4197
   57SAPC   C22 4177   5.938   1.499   6.004 -0.6435 -0.5293  0.1756
   57SAPC   H2R 4178   5.864   1.501   5.922 -1.4530 -4.2754  0.6318
   57SAPC   H2S 4179   5.992   1.597   6.005 -1.4475 -0.0603 -0.7275
   57SAPC    C3 4180   5.697   1.749   6.337  0.2104 -0.5062 -0.4180
   57SAPC    HX 4181   5.790   1.790   6.381 -0.0993  0.9420 -1.0482
   57SAPC    HY 4182   5.618   1.742   6.414  0.1631 -0.2986 -0.4465
   57SAPC   O31 4183   5.645   1.820   6.223 -0.5340  0.1426  0.7163
   57SAPC   C31 4184   5.649   1.949   6.228  0.3880  0.2080  0.5841
   57SAPC   O32 4185   5.714   2.016   6.306  0.3946 -0.5412 -0.4032
   57SAPC   C32 4186   5.569   2.002   6.107 -0.3848  0.1597  0.6519
   57SAPC   H2X 4187   5.461   1.982   6.121 -0.3989  0.1424  0.5254
   57SAPC   H2Y 4188   5.610   1.949   6.018  0.3894  1.4311  0.2119
   57SAPC   C23 4189   6.031   1.381   5.978  0.0675  0.2833 -0.2351
   57SAPC   H3R 4190   5.962   1.295   5.989  0.1062  0.3889  0.9037
   57SAPC   H3S 4191   6.095   1.366   6.068 -0.3657 -1.4015 -0.1701
   57SAPC   C24 4192   6.111   1.386   5.850  0.2929 -0.8711 -0.0001
   57SAPC   H4R 4193   6.203   1.325   5.861  0.3690 -0.5166  1.4896
   57SAPC   H4S 4194   6.145   1.492   5.846 -0.9128 -0.2278  3.4957
   57SAPC   C25 4195   6.027   1.336   5.732 -0.0708 -0.6986 -0.2559
   57SAPC   H5R 4196   5.979   1.238   5.740 -2.4399  0.3141 -1.2232
   57SAPC   C26 4197   5.987   1.403   5.622  0.4426 -0.0612  0.6167
   57SAPC   H6R 4198   5.922   1.352   5.550  2.8553  0.9670 -2.4930
   57SAPC   C27 4199   6.025   1.543   5.583 -0.2804  0.5553  0.4986
   57SAPC   H7R 4200   6.074   1.599   5.665 -1.0086  3.4099 -0.8827
   57SAPC   H7S 4201   5.937   1.604   5.553 -0.0560  1.1646  1.0673
   57SAPC   C28 4202   6.127   1.524   5.466 -0.3652  0.6728  0.2161
   57SAPC   H8R 4203   6.231   1.517   5.500  0.1241 -0.1473 -1.3533
   57SAPC   C29 4204   6.103   1.524   5.335  0.2569  0.2061 -0.6402
   57SAPC   H9R 4205   6.182   1.509   5.260  1.4858  0.8329  0.4750
   57SAPC  C210 4206   5.967   1.547   5.273  0.5728 -0.6723  0.2692
   57SAPC  H10R 4207   5.901   1.617   5.328  1.0407  0.4450 -0.5519
   57SAPC  H10S 4208   5.915   1.450   5.258  0.0891 -0.6247  1.5011
   57SAPC  C211 4209   5.981   1.610   5.132  0.1407 -0.7640 -0.0756
   57SAPC  H11R 4210   6.084   1.623   5.097 -0.7997  2.0511 -2.2273
   57SAPC  C212 4211   5.883   1.621   5.040 -0.2747  0.4458  0.3613
   57SAPC  H12R 4212   5.924   1.680   4.956  1.1538  0.9676  1.3816
   57SAPC  C213 4213   5.733   1.603   5.042 -0.4551 -0.0084 -0.0773
   57SAPC  H13R 4214   5.699   1.677   5.118 -0.2598  0.9818 -0.9306
   57SAPC  H13S 4215   5.702   1.506   5.085 -4.5722  1.1507  0.0318
   57SAPC  C214 4216   5.663   1.641   4.916 -0.1679 -0.0153 -0.3556
   57SAPC  H14R 4217   5.675   1.748   4.894  0.8550  0.2418  1.2852
   57SAPC  C215 4218   5.583   1.555   4.839 -0.0975 -0.1730  0.0901
   57SAPC  H15R 4219   5.534   1.606   4.755  0.3344  0.9993  0.5310
   57SAPC  C216 4220   5.547   1.414   4.867  0.3116 -0.4071 -0.0699
   57SAPC  H16R 4221   5.442   1.409   4.902  0.6599  1.6933  1.5403
   57SAPC  H16S 4222   5.609   1.378   4.953  1.6519 -1.1339 -1.2925
   57SAPC  C217 4223   5.558   1.318   4.749 -0.6291  0.1641  0.2137
   57SAPC  H17R 4224   5.487   1.366   4.678 -3.2565 -1.8689  1.2809
   57SAPC  H17S 4225   5.518   1.215   4.762 -0.5062  0.1247  0.2834
   57SAPC  C218 4226   5.699   1.310   4.684  1.2823  0.3538  0.7187
   57SAPC  H18R 4227   5.776   1.279   4.757  0.3133 -2.1817  0.7454
   57SAPC  H18S 4228   5.727   1.412   4.648 -3.0485  1.0191 -1.5661
   57SAPC  C219 4229   5.699   1.205   4.567 -0.0117 -0.5185 -0.0552
   57SAPC  H19R 4230   5.600   1.212   4.517 -0.3578  1.8322  0.8278
   57SAPC  H19S 4231   5.715   1.104   4.609 -1.3973 -0.0529  1.6653
   57SAPC  C220 4232   5.822   1.236   4.474 -0.1728 -0.5106  0.0296
   57SAPC  H20R 4233   5.826   1.334   4.422  3.0726 -1.1023 -1.0667
   57SAPC  H20S 4234   5.825   1.161   4.393 -0.0839  0.0896 -0.5308
   57SAPC  H20T 4235   5.920   1.224   4.526 -0.2956  1.7501  0.8827
   57SAPC   C33 4236   5.604   2.150   6.056 -0.2892 -0.4935  0.1600
   57SAPC   H3X 4237   5.713   2.170   6.052  0.0543 -1.4505  2.8295
   57SAPC   H3Y 4238   5.571   2.214   6.140 -1.8272 -0.8457 -0.1382
   57SAPC   C34 4239   5.542   2.190   5.922  0.4193  0.5552 -0.0916
   57SAPC   H4X 4240   5.433   2.205   5.937  0.2915 -0.1037 -0.3319
   57SAPC   H4Y 4241   5.568   2.109   5.851  2.5503  0.4192  0.7569
   57SAPC   C35 4242   5.594   2.318   5.872 -0.2548 -0.3202  0.2938
   57SAPC   H5X 4243   5.702   2.344   5.883 -0.9257  1.8612  2.6992
   57SAPC   H5Y 4244   5.548   2.406   5.922  0.8695  0.4668 -0.0094
   57SAPC   C36 4245   5.578   2.325   5.710  0.0486  0.4251 -0.1531
   57SAPC   H6X 4246   5.481   2.278   5.682 -1.4026  3.6433 -1.0751
   57SAPC   H6Y 4247   5.653   2.257   5.665  0.1754 -0.2822  1.0656
   57SAPC   C37 4248   5.575   2.460   5.652 -0.4049 -0.4857 -0.9984
   57SAPC   H7X 4249   5.676   2.500   5.674  0.3482 -3.8113  2.6094
   57SAPC   H7Y 4250   5.508   2.524   5.714  2.4148  1.7724 -0.0506
   57SAPC   C38 4251   5.540   2.461   5.504  0.1955 -0.1568  0.4771
   57SAPC   H8X 4252   5.431   2.448   5.489  0.2893 -0.4780  0.0590
   57SAPC   H8Y 4253   5.599   2.392   5.440 -2.6744 -1.3120 -1.1179
   57SAPC   C39 4254   5.565   2.603   5.446  0.3340 -0.2033 -0.4943
   57SAPC   H9X 4255   5.672   2.629   5.456 -0.0374  0.5307  2.7371
   57SAPC   H9Y 4256   5.506   2.675   5.507 -1.5524 -1.0706 -1.2104
   57SAPC  C310 4257   5.527   2.618   5.297  0.2754  0.5653  0.2786
   57SAPC  H10X 4258   5.559   2.719   5.264  1.4741 -0.1984 -1.0165
   57SAPC  H10Y 4259   5.418   2.618   5.276  0.6045  1.4751 -1.7039
   57SAPC  C311 4260   5.604   2.526   5.197  0.2853  0.5397 -1.3724
   57SAPC  H11X 4261   5.560   2.424   5.207  0.5706  0.5770  0.7921
   57SAPC  H11Y 4262   5.709   2.508   5.227 -0.3883 -1.5711 -0.0478
   57SAPC  C312 4263   5.589   2.582   5.055 -0.9948 -0.1372  0.6134
   57SAPC  H12X 4264   5.633   2.684   5.061 -0.1143 -0.5026  0.5997
   57SAPC  H12Y 4265   5.483   2.580   5.023 -0.9475  0.2247  0.4269
   57SAPC  C313 4266   5.672   2.496   4.956 -0.1352 -0.1708 -0.1682
   57SAPC  H13X 4267   5.647   2.388   4.963 -0.0563 -0.2290 -0.7350
   57SAPC  H13Y 4268   5.780   2.494   4.984 -0.1242 -1.5317 -0.2697
   57SAPC  C314 4269   5.665   2.539   4.804 -0.2468  0.2459  0.4153
   57SAPC  H14X 4270   5.702   2.644   4.804 -2.0873  0.9362  0.9740
   57SAPC  H14Y 4271   5.562   2.526   4.765  0.4578 -4.2979 -0.4744
   57SAPC  C315 4272   5.750   2.463   4.697  0.4884  0.5453 -0.0272
   57SAPC  H15X 4273   5.857   2.479   4.722  0.7669  1.3387 -1.6574
   57SAPC  H15Y 4274   5.722   2.512   4.601 -0.1231  0.1039 -0.0806
   57SAPC  C316 4275   5.718   2.312   4.691  0.9074 -0.4485 -0.4331
   57SAPC  H16X 4276   5.608   2.298   4.681  0.5359  3.0173 -2.9153
   57SAPC  H16Y 4277   5.746   2.255   4.782  1.8788 -1.0156 -1.0714
   57SAPC  C317 4278   5.786   2.235   4.581  0.0437 -0.1348  0.1177
   57SAPC  H17X 4279   5.897   2.242   4.588  0.0707 -0.1328 -0.2620
   57SAPC  H17Y 4280   5.743   2.283   4.491  1.9504 -0.0546 -0.7963
   57SAPC  C318 4281   5.739   2.087   4.570 -0.6505  0.2704  0.4306
   57SAPC  H18X 4282   5.810   2.021   4.516 -0.5834  0.5638  0.1596
   57SAPC  H18Y 4283   5.643   2.082   4.514 -0.4401  0.3548  0.0584
   57SAPC  H18Z 4284   5.723   2.051   4.674  1.7271  1.9543  1.4916
   58SAPC     N 4285   2.529   1.794   7.549 -1.1593  0.2805 -0.4263
   58SAPC   C12 4286   2.424   1.831   7.441 -0.1852  1.0707 -0.1222
   58SAPC  H12A 4287   2.443   1.934   7.412  2.0904  1.2941  1.8745
   58SAPC  H12B 4288   2.324   1.817   7.479 -0.2458 -1.5927 -1.0344
   58SAPC   C13 4289   2.476   1.853   7.682  0.1369  0.0633  0.1795
   58SAPC  H13A 4290   2.433   1.952   7.668  0.9636  0.2865 -0.8382
   58SAPC  H13B 4291   2.403   1.780   7.713 -0.2692 -0.0945 -1.0980
   58SAPC  H13C 4292   2.554   1.855   7.757 -1.4028 -0.1648  1.8691
   58SAPC   C14 4293   2.550   1.649   7.571  0.9551  0.2562  0.2772
   58SAPC  H14A 4294   2.622   1.635   7.650  0.3396  0.7400  0.9280
   58SAPC  H14B 4295   2.454   1.605   7.595  0.5721  0.3853 -0.9420
   58SAPC  H14C 4296   2.583   1.608   7.476 -1.6317  0.0503 -0.6176
   58SAPC   C15 4297   2.663   1.861   7.513 -0.1737 -0.7662 -0.2593
   58SAPC  H15A 4298   2.640   1.964   7.490 -0.9914 -0.7345  0.6650
   58SAPC  H15B 4299   2.740   1.859   7.589 -1.0200 -1.0211  0.6058
   58SAPC  H15C 4300   2.710   1.835   7.419  0.6127  3.1944 -1.1558
   58SAPC   C11 4301   2.421   1.749   7.314 -0.6845 -0.0160  0.2919
   58SAPC  H11A 4302   2.344   1.802   7.254  0.7401  0.7435 -0.9245
   58SAPC  H11B 4303   2.402   1.639   7.322  1.9518 -0.5025  0.7216
   58SAPC     P 4304   2.632   1.670   7.169 -0.4018  0.0435 -0.2190
   58SAPC   O13 4305   2.750   1.745   7.116  0.7057 -0.1635  0.5505
   58SAPC   O14 4306   2.662   1.562   7.266 -0.0938  0.2051  0.3852
   58SAPC   O12 4307   2.543   1.773   7.241  0.4885  0.2370  0.1060
   58SAPC   O11 4308   2.552   1.616   7.049  0.0359  0.4162 -0.2856
   58SAPC    C1 4309   2.500   1.700   6.947  0.7064 -0.4329  0.0756
   58SAPC    HA 4310   2.392   1.702   6.974  1.5331  1.0902  3.9073
   58SAPC    HB 4311   2.537   1.804   6.942  0.2154 -0.2949 -2.6497
   58SAPC    C2 4312   2.517   1.659   6.790  0.8945  0.5717 -0.2256
   58SAPC    HS 4313   2.486   1.552   6.783 -1.2683  1.0224  1.4436
   58SAPC   O21 4314   2.652   1.680   6.759  0.6121  0.0270 -0.0156
   58SAPC   C21 4315   2.695   1.630   6.649  0.1770 -0.6285  0.2942
   58SAPC   O22 4316   2.634   1.548   6.584 -0.2731  0.1412  0.0601
   58SAPC   C22 4317   2.824   1.699   6.615  0.2563 -0.5514  0.4007
   58SAPC   H2R 4318   2.795   1.806   6.620 -0.8847 -0.8932  1.6804
   58SAPC   H2S 4319   2.908   1.681   6.685  0.8752  0.6336 -0.0304
   58SAPC    C3 4320   2.420   1.742   6.712 -0.4641 -0.3280  0.7685
   58SAPC    HX 4321   2.472   1.840   6.698  2.0812 -1.9534 -2.7568
   58SAPC    HY 4322   2.332   1.756   6.779  1.8500  1.6396  3.6931
   58SAPC   O31 4323   2.388   1.688   6.581 -0.0326 -0.7753  0.4957
   58SAPC   C31 4324   2.286   1.770   6.533 -0.6307  0.4322  0.2040
   58SAPC   O32 4325   2.261   1.876   6.582 -0.2069  0.7612 -0.1266
   58SAPC   C32 4326   2.224   1.695   6.419  0.3051 -0.8591  0.1739
   58SAPC   H2X 4327   2.122   1.739   6.408  0.9590  0.5602 -0.4834
   58SAPC   H2Y 4328   2.202   1.587   6.435 -0.9754 -1.0419 -2.2351
   58SAPC   C23 4329   2.850   1.675   6.461 -0.9854  0.4055  0.2573
   58SAPC   H3R 4330   2.760   1.707   6.404 -2.0636  0.1548  1.7761
   58SAPC   H3S 4331   2.877   1.570   6.438  2.1738  1.3156 -0.7766
   58SAPC   C24 4332   2.965   1.749   6.396 -0.3279 -0.8319 -0.6565
   58SAPC   H4R 4333   2.953   1.858   6.412  1.6256 -0.5971 -0.5284
   58SAPC   H4S 4334   2.952   1.721   6.289  0.4921 -0.8030 -0.7693
   58SAPC   C25 4335   3.103   1.704   6.448  0.1744 -0.1923 -0.0723
   58SAPC   H5R 4336   3.131   1.734   6.550  1.5059 -1.4506 -0.0428
   58SAPC   C26 4337   3.189   1.616   6.386 -0.2091 -0.5176  0.2393
   58SAPC   H6R 4338   3.284   1.594   6.438  0.5499  1.8959 -0.0356
   58SAPC   C27 4339   3.173   1.551   6.251  0.7320  0.2527  0.0899
   58SAPC   H7R 4340   3.146   1.621   6.169  2.8011 -0.8118 -1.6197
   58SAPC   H7S 4341   3.094   1.475   6.262  1.0174 -0.0541  0.0237
   58SAPC   C28 4342   3.283   1.454   6.207 -0.1763  0.0664 -0.1017
   58SAPC   H8R 4343   3.370   1.433   6.270 -0.9911  0.6160  1.2563
   58SAPC   C29 4344   3.289   1.398   6.084  0.2694 -0.1639  0.8407
   58SAPC   H9R 4345   3.369   1.328   6.058  1.0566  0.6698  0.9613
   58SAPC  C210 4346   3.183   1.404   5.980  0.2228  0.3638  0.0660
   58SAPC  H10R 4347   3.084   1.430   6.021 -0.9016 -0.5077 -1.9469
   58SAPC  H10S 4348   3.169   1.301   5.942  0.4908  0.0118  0.9054
   58SAPC  C211 4349   3.209   1.510   5.870 -0.0216 -0.0849 -0.0361
   58SAPC  H11R 4350   3.254   1.598   5.917 -0.8961  0.0199  0.6164
   58SAPC  C212 4351   3.179   1.522   5.741 -0.0033  0.2760 -0.2971
   58SAPC  H12R 4352   3.194   1.622   5.697 -4.5252  0.5875 -1.6696
   58SAPC  C213 4353   3.090   1.433   5.661 -0.5616  0.3294 -0.1049
   58SAPC  H13R 4354   3.040   1.491   5.580  1.0114 -1.3990 -2.4448
   58SAPC  H13S 4355   3.017   1.387   5.731  0.6462  1.2332  1.8419
   58SAPC  C214 4356   3.170   1.317   5.605  0.0281 -1.0094  0.2291
   58SAPC  H14R 4357   3.152   1.217   5.649  0.9171 -1.2689  0.0091
   58SAPC  C215 4358   3.242   1.322   5.488 -0.7233 -0.0109 -0.3990
   58SAPC  H15R 4359   3.305   1.236   5.460  1.3721  1.1059  0.6394
   58SAPC  C216 4360   3.270   1.447   5.406 -0.0847 -0.9718 -0.4744
   58SAPC  H16R 4361   3.377   1.447   5.378  0.2013 -3.7080  0.2668
   58SAPC  H16S 4362   3.248   1.533   5.473 -0.3569 -0.9483 -0.5911
   58SAPC  C217 4363   3.182   1.471   5.283  0.3810  0.2736 -0.1184
   58SAPC  H17R 4364   3.216   1.567   5.239  2.5478 -0.4050 -0.0492
   58SAPC  H17S 4365   3.076   1.479   5.314  0.3736 -2.1466  0.7470
   58SAPC  C218 4366   3.212   1.362   5.176  0.2323  0.0595 -0.0799
   58SAPC  H18R 4367   3.201   1.257   5.212 -0.8889 -0.1348 -0.9336
   58SAPC  H18S 4368   3.319   1.378   5.151 -0.1407 -0.8915 -2.6036
   58SAPC  C219 4369   3.143   1.383   5.034 -0.9451 -0.1383  0.2852
   58SAPC  H19R 4370   3.033   1.389   5.048 -0.8661  0.9534  0.5699
   58SAPC  H19S 4371   3.169   1.290   4.980  3.8833 -0.0395  2.0049
   58SAPC  C220 4372   3.182   1.509   4.958  0.1852 -0.0277 -0.5347
   58SAPC  H20R 4373   3.151   1.604   5.007 -0.5178  0.3895 -1.7438
   58SAPC  H20S 4374   3.144   1.503   4.854  1.3838 -1.4236 -0.9353
   58SAPC  H20T 4375   3.293   1.507   4.948  0.2143  1.4143 -0.7168
   58SAPC   C33 4376   2.310   1.719   6.289  0.0935  0.5387 -0.0161
   58SAPC   H3X 4377   2.416   1.692   6.308  1.1149  3.2434 -1.3788
   58SAPC   H3Y 4378   2.308   1.827   6.264  1.1277  0.6942  0.5060
   58SAPC   C34 4379   2.263   1.652   6.163 -0.3710  0.5985 -0.6402
   58SAPC   H4X 4380   2.156   1.678   6.150 -0.3676  0.5144 -0.8418
   58SAPC   H4Y 4381   2.262   1.541   6.173  1.5950  0.4551 -1.4096
   58SAPC   C35 4382   2.327   1.702   6.036 -0.4717  0.7694 -0.0219
   58SAPC   H5X 4383   2.436   1.723   6.049  0.0350 -0.1715 -2.2065
   58SAPC   H5Y 4384   2.279   1.801   6.023 -1.8094  0.0598 -0.6927
   58SAPC   C36 4385   2.299   1.613   5.915  0.1719  0.3675  0.4656
   58SAPC   H6X 4386   2.188   1.614   5.921  0.1955  0.3191  0.9251
   58SAPC   H6Y 4387   2.339   1.511   5.934  1.4446  0.5613 -1.0014
   58SAPC   C37 4388   2.359   1.664   5.783  0.3629 -0.3839 -0.3162
   58SAPC   H7X 4389   2.468   1.641   5.787  0.0286 -1.9329  0.3864
   58SAPC   H7Y 4390   2.346   1.774   5.778  1.0025 -0.2394  0.8861
   58SAPC   C38 4391   2.302   1.602   5.654 -0.1226  0.3895 -0.9380
   58SAPC   H8X 4392   2.194   1.629   5.661 -0.3808 -1.0440  2.7998
   58SAPC   H8Y 4393   2.316   1.492   5.666 -1.5907  0.2961  0.2517
   58SAPC   C39 4394   2.372   1.649   5.526  0.0136 -0.6844 -0.5899
   58SAPC   H9X 4395   2.482   1.646   5.543  0.3234  0.5060 -2.1304
   58SAPC   H9Y 4396   2.357   1.759   5.520  0.4501 -0.6351 -0.7857
   58SAPC  C310 4397   2.340   1.576   5.391 -0.4327  0.5171  0.1512
   58SAPC  H10X 4398   2.231   1.591   5.378 -0.7075 -0.7697  0.7589
   58SAPC  H10Y 4399   2.367   1.468   5.396 -1.3175  0.3105  0.7073
   58SAPC  C311 4400   2.414   1.643   5.268  0.3776  0.8363 -0.4503
   58SAPC  H11X 4401   2.523   1.634   5.282  0.5002 -0.9642 -2.1606
   58SAPC  H11Y 4402   2.378   1.748   5.265 -1.7942  0.1258 -2.7403
   58SAPC  C312 4403   2.387   1.579   5.135 -0.3661 -0.2386 -0.8036
   58SAPC  H12X 4404   2.278   1.565   5.118 -0.5184  0.8443 -0.7894
   58SAPC  H12Y 4405   2.420   1.474   5.147  1.3434  0.0521 -2.4969
   58SAPC  C313 4406   2.449   1.651   5.009 -0.3287 -0.6060 -0.0417
   58SAPC  H13X 4407   2.559   1.633   4.999 -0.2561  0.2995 -1.0679
   58SAPC  H13Y 4408   2.428   1.760   5.015  0.1201 -0.5708  1.3193
   58SAPC  C314 4409   2.369   1.606   4.881  0.3760  0.7409  0.0173
   58SAPC  H14X 4410   2.259   1.625   4.880  0.4208  1.0956 -1.3940
   58SAPC  H14Y 4411   2.389   1.497   4.875  1.9073  1.0301 -0.5683
   58SAPC  C315 4412   2.420   1.657   4.744 -0.1847  0.1106 -0.4777
   58SAPC  H15X 4413   2.385   1.592   4.661 -0.0502 -0.4092 -0.1348
   58SAPC  H15Y 4414   2.530   1.645   4.743 -0.0234  1.5006 -0.4508
   58SAPC  C316 4415   2.396   1.817   4.723  0.5184 -0.1151  0.0030
   58SAPC  H16X 4416   2.429   1.865   4.817 -0.7218 -1.5758  1.2439
   58SAPC  H16Y 4417   2.289   1.845   4.707  0.5012 -0.9924 -1.7302
   58SAPC  C317 4418   2.469   1.886   4.602 -0.5135 -0.5147 -0.9715
   58SAPC  H17X 4419   2.433   1.848   4.504 -0.9612 -0.9045 -0.6625
   58SAPC  H17Y 4420   2.576   1.863   4.616 -0.5153 -2.0518 -2.9912
   58SAPC  C318 4421   2.440   2.040   4.611  0.6113  0.7294 -0.5380
   58SAPC  H18X 4422   2.334   2.069   4.596  0.8155  1.6692 -0.2465
   58SAPC  H18Y 4423   2.487   2.083   4.520 -0.7579 -0.3249 -1.7985
   58SAPC  H18Z 4424   2.475   2.085   4.706 -2.7621 -1.7781  2.1641
   59SAPC     N 4425   2.725   3.374   6.498 -0.8771 -0.0350 -0.2508
   59SAPC   C12 4426   2.669   3.427   6.374  0.3035 -0.6699 -0.1034
   59SAPC  H12A 4427   2.561   3.434   6.379  0.4466  1.2025  1.5376
   59SAPC  H12B 4428   2.683   3.355   6.294 -0.2486  0.3662 -1.1518
   59SAPC   C13 4429   2.662   3.251   6.537 -0.1265 -0.1912  0.3032
   59SAPC  H13A 4430   2.667   3.174   6.460 -1.5008 -0.2734  0.2835
   59SAPC  H13B 4431   2.713   3.212   6.624  0.1784  2.0267  1.1597
   59SAPC  H13C 4432   2.557   3.259   6.559  0.1367  0.6064  1.3161
   59SAPC   C14 4433   2.874   3.342   6.478 -0.4851 -0.3864  0.1406
   59SAPC  H14A 4434   2.924   3.330   6.573  1.1539  1.1869 -0.4777
   59SAPC  H14B 4435   2.885   3.256   6.414  0.7705 -0.6279  0.6493
   59SAPC  H14C 4436   2.928   3.420   6.426 -1.0872  0.6563  1.0366
   59SAPC   C15 4437   2.711   3.470   6.614 -0.6522 -0.3708  0.5685
   59SAPC  H15A 4438   2.608   3.481   6.643 -0.2607 -0.6687  2.1889
   59SAPC  H15B 4439   2.773   3.433   6.694 -0.7304 -0.2505  0.6840
   59SAPC  H15C 4440   2.745   3.568   6.584  0.9100 -1.2779 -0.8175
   59SAPC   C11 4441   2.719   3.564   6.320 -0.0144 -1.0783  0.1779
   59SAPC  H11A 4442   2.686   3.577   6.214  1.4354 -0.4556 -0.2266
   59SAPC  H11B 4443   2.830   3.565   6.314 -0.0780 -0.7534 -2.1310
   59SAPC     P 4444   2.532   3.732   6.415  0.1155 -0.0693  0.1515
   59SAPC   O13 4445   2.461   3.643   6.505  0.2836  1.3187  0.1313
   59SAPC   O14 4446   2.538   3.871   6.464  0.0235  0.3363 -0.0791
   59SAPC   O12 4447   2.677   3.674   6.404  0.3570  0.2009  0.5921
   59SAPC   O11 4448   2.468   3.722   6.276 -0.8295 -0.2691 -0.3703
   59SAPC    C1 4449   2.519   3.798   6.163  0.4911 -0.2372  0.3332
   59SAPC    HA 4450   2.609   3.859   6.185 -0.2129  0.6066  0.9974
   59SAPC    HB 4451   2.559   3.724   6.091  2.9096  0.1484  1.1987
   59SAPC    C2 4452   2.415   3.889   6.094  0.4379  0.1445  0.3878
   59SAPC    HS 4453   2.375   3.957   6.172 -0.6122  1.3242 -1.1403
   59SAPC   O21 4454   2.316   3.809   6.024  0.3014 -0.1493  0.1733
   59SAPC   C21 4455   2.214   3.779   6.105  0.6605 -0.1890  0.2032
   59SAPC   O22 4456   2.207   3.807   6.225 -0.6352  0.1740 -0.1398
   59SAPC   C22 4457   2.096   3.715   6.024 -0.0659 -0.0993 -0.0342
   59SAPC   H2R 4458   2.062   3.794   5.954  1.3198  0.4371 -0.1250
   59SAPC   H2S 4459   2.134   3.624   5.972 -1.0781 -0.9466  0.6568
   59SAPC    C3 4460   2.485   3.974   5.987  0.3933  0.3209 -0.8241
   59SAPC    HX 4461   2.547   4.053   6.036 -1.3976  0.6379  1.0622
   59SAPC    HY 4462   2.399   4.021   5.936  0.0431 -0.9380 -1.4392
   59SAPC   O31 4463   2.554   3.892   5.900 -0.5232 -0.1132 -0.3312
   59SAPC   C31 4464   2.614   3.963   5.796  0.3557 -0.2127 -0.3474
   59SAPC   O32 4465   2.615   4.082   5.788 -0.7086  0.4891 -0.0831
   59SAPC   C32 4466   2.670   3.867   5.695  0.4639 -0.1698 -0.1376
   59SAPC   H2X 4467   2.591   3.839   5.622 -0.1716  1.2201 -0.0244
   59SAPC   H2Y 4468   2.696   3.773   5.748  0.7575 -0.9903 -1.6739
   59SAPC   C23 4469   1.975   3.673   6.110  0.3702  0.0369  0.4026
   59SAPC   H3R 4470   1.924   3.760   6.156  0.1010  0.1802 -0.1643
   59SAPC   H3S 4471   2.011   3.615   6.198  1.6698  1.7807  1.0600
   59SAPC   C24 4472   1.872   3.602   6.020 -0.1573 -0.6483  0.0757
   59SAPC   H4R 4473   1.854   3.663   5.929 -1.2198 -0.1998  0.5613
   59SAPC   H4S 4474   1.780   3.594   6.082  0.0902  2.9133  1.1566
   59SAPC   C25 4475   1.924   3.470   5.990  0.1735  0.1022 -0.2376
   59SAPC   H5R 4476   1.960   3.414   6.077  2.0296 -1.3069 -1.8161
   59SAPC   C26 4477   1.949   3.416   5.870  0.8226 -0.7179  0.8028
   59SAPC   H6R 4478   1.972   3.309   5.865 -0.6931 -1.0114 -1.6989
   59SAPC   C27 4479   1.914   3.482   5.738  0.0957  0.2247  0.2989
   59SAPC   H7R 4480   1.988   3.434   5.671 -0.9547 -2.1525  0.7517
   59SAPC   H7S 4481   1.932   3.591   5.748 -2.6372  0.7252  0.5449
   59SAPC   C28 4482   1.773   3.458   5.702  0.0350 -0.2305  0.0489
   59SAPC   H8R 4483   1.704   3.501   5.776 -0.7498  0.0371 -0.8192
   59SAPC   C29 4484   1.726   3.403   5.589 -0.1231  0.2608  0.4605
   59SAPC   H9R 4485   1.616   3.397   5.577  0.0269 -0.5113 -0.6749
   59SAPC  C210 4486   1.806   3.352   5.471  0.2747 -0.5680  0.3291
   59SAPC  H10R 4487   1.914   3.341   5.492  0.6330  0.4004 -0.8737
   59SAPC  H10S 4488   1.792   3.425   5.388  1.3529 -2.8406 -1.9895
   59SAPC  C211 4489   1.747   3.221   5.422  0.4298 -0.5942 -0.6390
   59SAPC  H11R 4490   1.736   3.153   5.507 -0.8150 -2.4236 -2.1874
   59SAPC  C212 4491   1.704   3.182   5.301  0.1390 -0.5224  0.1648
   59SAPC  H12R 4492   1.677   3.076   5.301  0.9712 -0.8353  3.3179
   59SAPC  C213 4493   1.713   3.271   5.173  0.9927 -1.2230 -0.5556
   59SAPC  H13R 4494   1.768   3.366   5.193  0.5503 -1.1972  0.5747
   59SAPC  H13S 4495   1.608   3.302   5.158  1.0745 -0.5500  0.1789
   59SAPC  C214 4496   1.779   3.207   5.054  0.2474 -1.3260 -0.6181
   59SAPC  H14R 4497   1.856   3.131   5.073  0.7225 -0.4183  1.3192
   59SAPC  C215 4498   1.746   3.236   4.928  0.1800  0.1611 -1.0581
   59SAPC  H15R 4499   1.806   3.202   4.842  2.7998 -2.7788  1.6982
   59SAPC  C216 4500   1.636   3.328   4.897 -0.4726  0.4354  0.0328
   59SAPC  H16R 4501   1.664   3.389   4.808  1.0653  1.0316  0.8814
   59SAPC  H16S 4502   1.614   3.411   4.967  0.2354  0.8552 -0.2302
   59SAPC  C217 4503   1.500   3.251   4.879  0.9326 -0.0379 -0.0176
   59SAPC  H17R 4504   1.415   3.318   4.902  2.8620  2.2460  0.9344
   59SAPC  H17S 4505   1.502   3.165   4.951 -2.8724 -2.2086 -2.1744
   59SAPC  C218 4506   1.490   3.182   4.745 -0.3035  0.7947  0.6399
   59SAPC  H18R 4507   1.554   3.093   4.723 -1.4979  0.0835 -0.0891
   59SAPC  H18S 4508   1.521   3.261   4.673 -0.2013 -0.5537 -0.8597
   59SAPC  C219 4509   1.348   3.140   4.710 -0.5667  0.3644 -0.3197
   59SAPC  H19R 4510   1.349   3.112   4.602  0.9316 -0.0480 -0.2224
   59SAPC  H19S 4511   1.286   3.230   4.726 -1.0325 -0.0505  0.2375
   59SAPC  C220 4512   1.285   3.012   4.784 -0.4544 -0.8039 -0.2131
   59SAPC  H20R 4513   1.327   2.916   4.746  2.1354  0.2284 -0.2065
   59SAPC  H20S 4514   1.176   3.024   4.766  0.0197  0.5355 -2.7836
   59SAPC  H20T 4515   1.314   3.014   4.891 -2.8973 -1.9673  0.5183
   59SAPC   C33 4516   2.792   3.931   5.626 -0.5662 -0.8780 -0.6102
   59SAPC   H3X 4517   2.861   3.854   5.584  0.6381 -0.6199  0.8307
   59SAPC   H3Y 4518   2.855   3.989   5.695  0.6589 -1.2580 -1.3699
   59SAPC   C34 4519   2.756   4.013   5.497  0.1504  0.3955 -0.3675
   59SAPC   H4X 4520   2.830   4.096   5.488 -1.4794  2.1045  1.0791
   59SAPC   H4Y 4521   2.657   4.063   5.498 -0.8362 -1.4554  0.8763
   59SAPC   C35 4522   2.759   3.926   5.369  0.4726  0.4660  0.0909
   59SAPC   H5X 4523   2.688   3.841   5.379  1.2144 -0.4796 -2.0407
   59SAPC   H5Y 4524   2.858   3.877   5.355  0.1228  0.1605 -1.5213
   59SAPC   C36 4525   2.727   3.991   5.238  0.3202 -0.3422  0.6991
   59SAPC   H6X 4526   2.797   4.078   5.229 -2.5263  2.3685  2.5434
   59SAPC   H6Y 4527   2.624   4.031   5.242  0.5075  0.1278  1.0025
   59SAPC   C37 4528   2.744   3.897   5.118  0.5440  0.9734 -0.3354
   59SAPC   H7X 4529   2.719   3.797   5.160  0.6308  1.3874  0.7443
   59SAPC   H7Y 4530   2.851   3.877   5.093  0.8682  1.1340  0.8319
   59SAPC   C38 4531   2.655   3.937   5.004  0.0203  0.2591  0.7909
   59SAPC   H8X 4532   2.547   3.956   5.021  0.1368  1.5143  0.2019
   59SAPC   H8Y 4533   2.656   3.868   4.917 -0.5689  2.0105 -0.6441
   59SAPC   C39 4534   2.696   4.081   4.939 -0.4150  0.1262 -0.1471
   59SAPC   H9X 4535   2.702   4.147   5.028  0.6042 -0.8563  0.5368
   59SAPC   H9Y 4536   2.615   4.107   4.868  0.9509  0.9869 -1.4808
   59SAPC  C310 4537   2.832   4.098   4.866 -0.5890  0.0064  0.0845
   59SAPC  H10X 4538   2.916   4.082   4.936 -0.0154 -2.2672 -1.0396
   59SAPC  H10Y 4539   2.835   4.205   4.835  0.0268 -0.1041 -0.2455
   59SAPC  C311 4540   2.854   3.990   4.752  0.0178  0.3644 -0.0564
   59SAPC  H11X 4541   2.756   3.948   4.720 -0.5791  1.4838  0.2513
   59SAPC  H11Y 4542   2.911   3.912   4.807 -0.8531  1.9255  3.3125
   59SAPC  C312 4543   2.946   4.035   4.637  0.0335 -0.0763 -0.4891
   59SAPC  H12X 4544   2.988   3.949   4.581 -0.9488  0.5773 -2.3255
   59SAPC  H12Y 4545   3.035   4.092   4.671  1.4514 -2.1100 -0.6317
   59SAPC  C313 4546   2.860   4.114   4.535 -0.8693 -0.1188 -0.1306
   59SAPC  H13X 4547   2.813   4.196   4.592 -2.5406 -2.0238  1.3623
   59SAPC  H13Y 4548   2.775   4.051   4.503 -3.0798  2.0075  1.2327
   59SAPC  C314 4549   2.945   4.154   4.417  0.0293  0.9180 -0.5624
   59SAPC  H14X 4550   2.971   4.062   4.360  2.2189  1.6135 -0.7845
   59SAPC  H14Y 4551   3.038   4.199   4.459 -0.0277 -1.1258  2.0389
   59SAPC  C315 4552   2.880   4.248   4.319  0.0924  0.1954  0.2377
   59SAPC  H15X 4553   2.945   4.325   4.273  0.0949 -0.4136 -0.8176
   59SAPC  H15Y 4554   2.797   4.303   4.370  1.4513  2.3880  0.2148
   59SAPC  C316 4555   2.809   4.164   4.211 -0.0153  0.1662  0.5312
   59SAPC  H16X 4556   2.768   4.070   4.255 -1.3828  0.7405  0.5357
   59SAPC  H16Y 4557   2.885   4.132   4.136 -0.8378 -1.8555  0.4733
   59SAPC  C317 4558   2.701   4.245   4.137  0.4763 -0.0467  0.3272
   59SAPC  H17X 4559   2.741   4.345   4.110  1.0415 -0.5548 -0.7689
   59SAPC  H17Y 4560   2.616   4.263   4.207  0.6457 -0.6641  0.6925
   59SAPC  C318 4561   2.655   4.182   4.005  0.1831 -0.2758 -0.0136
   59SAPC  H18X 4562   2.620   4.258   3.932  2.2932  0.4357 -0.3478
   59SAPC  H18Y 4563   2.564   4.122   4.025  0.0149  0.1259  0.4231
   59SAPC  H18Z 4564   2.733   4.117   3.960 -1.8390 -1.1969 -2.4795
   60SAPC     N 4565   0.066   5.849   6.841 -0.2262  0.2679  0.1689
   60SAPC   C12 4566   0.183   5.753   6.825  0.0829  0.2726  0.3783
   60SAPC  H12A 4567   0.200   5.751   6.719 -2.3710 -0.5460 -0.0766
   60SAPC  H12B 4568   0.148   5.651   6.830  0.6063  0.0237 -0.8292
   60SAPC   C13 4569   0.015   5.847   6.976 -0.2731  0.3524  0.0645
   60SAPC  H13A 4570  -0.066   5.915   6.998  0.7821  1.8390 -0.5388
   60SAPC  H13B 4571  -0.030   5.750   6.990 -0.3530  0.2661 -0.7313
   60SAPC  H13C 4572   0.093   5.842   7.050 -0.3140  0.7728  0.1405
   60SAPC   C14 4573   0.117   5.987   6.815 -0.1501  0.1388 -0.0200
   60SAPC  H14A 4574   0.154   5.995   6.714 -0.9398 -1.2019 -0.4437
   60SAPC  H14B 4575   0.042   6.062   6.833  0.3706  0.7186 -0.2275
   60SAPC  H14C 4576   0.201   6.005   6.881  0.6848 -1.4500 -0.5974
   60SAPC   C15 4577  -0.037   5.813   6.742  0.6579  0.4105  0.0376
   60SAPC  H15A 4578  -0.117   5.886   6.736 -0.9429 -1.3241 -0.4637
   60SAPC  H15B 4579   0.001   5.796   6.643 -2.7648 -1.0776 -1.1695
   60SAPC  H15C 4580  -0.081   5.720   6.774 -1.1298  0.8040 -1.0915
   60SAPC   C11 4581   0.307   5.760   6.911 -0.0109  0.6565 -0.2758
   60SAPC  H11A 4582   0.366   5.668   6.891  1.5932  1.5103  0.3287
   60SAPC  H11B 4583   0.281   5.757   7.019  0.6725  2.2936 -0.0176
   60SAPC     P 4584   0.494   5.867   6.776  0.1378 -0.0539  0.2452
   60SAPC   O13 4585   0.490   5.983   6.691 -0.1286 -0.2656 -0.2510
   60SAPC   O14 4586   0.624   5.840   6.841  0.6196  0.5737 -0.5724
   60SAPC   O12 4587   0.377   5.881   6.880 -0.2820  0.1592  0.2744
   60SAPC   O11 4588   0.458   5.748   6.674  0.6866 -0.3938 -0.0080
   60SAPC    C1 4589   0.569   5.687   6.604  0.0759 -0.4854  0.7044
   60SAPC    HA 4590   0.661   5.689   6.666 -0.9815  2.9770  2.4577
   60SAPC    HB 4591   0.549   5.587   6.560  0.9147 -0.2634 -0.2184
   60SAPC    C2 4592   0.597   5.770   6.477 -0.2333  0.2368 -0.6011
   60SAPC    HS 4593   0.637   5.867   6.512  0.4224 -0.6485  1.2113
   60SAPC   O21 4594   0.483   5.792   6.398 -0.4621 -0.0238 -0.0338
   60SAPC   C21 4595   0.488   5.899   6.315 -0.5776 -0.7426 -0.0031
   60SAPC   O22 4596   0.577   5.987   6.322  0.2055  0.2289 -0.3696
   60SAPC   C22 4597   0.365   5.907   6.231  0.3935 -0.4379 -0.0847
   60SAPC   H2R 4598   0.295   5.826   6.261  1.9691 -0.7033  3.2094
   60SAPC   H2S 4599   0.325   6.006   6.260  2.3032 -0.0471  1.3823
   60SAPC    C3 4600   0.718   5.702   6.400 -0.7051  0.6885 -0.2709
   60SAPC    HX 4601   0.805   5.708   6.469 -1.7457  1.0143  1.0582
   60SAPC    HY 4602   0.729   5.777   6.320 -2.1636  0.3684 -0.7989
   60SAPC   O31 4603   0.691   5.567   6.347 -0.1806  0.5603  0.3396
   60SAPC   C31 4604   0.792   5.481   6.359 -0.1914 -0.3780 -0.2003
   60SAPC   O32 4605   0.900   5.501   6.415 -0.4206 -0.3945 -1.0191
   60SAPC   C32 4606   0.754   5.360   6.271 -0.5431 -0.0758 -0.2217
   60SAPC   H2X 4607   0.653   5.365   6.224 -1.0857  1.9818  1.0446
   60SAPC   H2Y 4608   0.751   5.272   6.338  2.0871 -0.5187 -0.5698
   60SAPC   C23 4609   0.387   5.913   6.077 -0.4591  0.1102  0.3697
   60SAPC   H3R 4610   0.488   5.954   6.058  0.1348 -1.3413  0.3012
   60SAPC   H3S 4611   0.315   5.987   6.035  1.9700  1.7738 -1.1157
   60SAPC   C24 4612   0.370   5.776   5.999 -0.1610 -0.2369 -0.1604
   60SAPC   H4R 4613   0.365   5.791   5.889  2.4897  0.4511 -0.2390
   60SAPC   H4S 4614   0.268   5.743   6.028 -0.5397 -0.9377 -2.1695
   60SAPC   C25 4615   0.474   5.677   6.040 -0.0579  0.0462  0.5346
   60SAPC   H5R 4616   0.472   5.636   6.142  0.1939  1.5300  1.1640
   60SAPC   C26 4617   0.582   5.639   5.966 -0.0840 -1.0918 -0.3457
   60SAPC   H6R 4618   0.644   5.562   6.015  2.0485  0.5377 -0.2798
   60SAPC   C27 4619   0.609   5.684   5.829  0.1103 -0.7043  0.3707
   60SAPC   H7R 4620   0.514   5.659   5.776 -0.2392  1.3741 -0.0848
   60SAPC   H7S 4621   0.688   5.619   5.787 -0.9475 -1.8845  0.1319
   60SAPC   C28 4622   0.640   5.831   5.801 -0.0616 -0.0594  0.6158
   60SAPC   H8R 4623   0.569   5.898   5.851  1.0462  3.5857 -2.2700
   60SAPC   C29 4624   0.732   5.892   5.722 -0.1739  0.6810  0.3646
   60SAPC   H9R 4625   0.738   6.001   5.705  0.4449  0.9823  2.2983
   60SAPC  C210 4626   0.839   5.810   5.638  0.8188 -0.2585 -1.1260
   60SAPC  H10R 4627   0.881   5.721   5.690  0.7345 -0.1916 -0.9458
   60SAPC  H10S 4628   0.926   5.876   5.620 -0.3550  1.9216  0.7880
   60SAPC  C211 4629   0.778   5.770   5.510 -0.4123  0.0418  0.0436
   60SAPC  H11R 4630   0.680   5.722   5.526 -0.9993  1.4263  0.7468
   60SAPC  C212 4631   0.820   5.796   5.379 -0.2894  0.9650 -0.6755
   60SAPC  H12R 4632   0.757   5.746   5.304  1.6108  0.3999 -1.9917
   60SAPC  C213 4633   0.946   5.866   5.330  0.0603 -0.5930 -0.4981
   60SAPC  H13R 4634   1.003   5.799   5.262  1.9771 -0.7462  1.1782
   60SAPC  H13S 4635   1.013   5.894   5.414  2.0243  0.3282 -2.2926
   60SAPC  C214 4636   0.915   5.999   5.264 -0.3577  0.2026 -0.2456
   60SAPC  H14R 4637   0.890   6.077   5.337  0.0712 -0.7286  0.9184
   60SAPC  C215 4638   0.922   6.026   5.132  0.2184 -0.2317  0.4207
   60SAPC  H15R 4639   0.897   6.130   5.108 -0.8598 -0.8149 -1.1675
   60SAPC  C216 4640   0.968   5.924   5.033  0.1179  0.8642 -0.1764
   60SAPC  H16R 4641   0.898   5.838   5.036  0.7741  0.2288 -1.9219
   60SAPC  H16S 4642   1.066   5.874   5.048  0.9591  2.6568  0.6329
   60SAPC  C217 4643   0.964   5.993   4.895 -0.0685  0.4863 -0.3380
   60SAPC  H17R 4644   1.040   6.073   4.888  1.0979 -0.3617  1.8382
   60SAPC  H17S 4645   0.864   6.043   4.893 -0.8450 -1.0148 -1.9067
   60SAPC  C218 4646   0.988   5.903   4.772 -0.3693 -0.2782 -0.4945
   60SAPC  H18R 4647   0.922   5.815   4.790  1.5394 -1.4121  1.4078
   60SAPC  H18S 4648   1.095   5.876   4.759  0.3591  2.9381 -2.2793
   60SAPC  C219 4649   0.940   5.972   4.640 -0.0525  0.2966  0.3653
   60SAPC  H19R 4650   0.990   6.071   4.643  1.0370 -0.1786 -0.9416
   60SAPC  H19S 4651   0.829   5.975   4.634 -0.1354  1.1849  2.0418
   60SAPC  C220 4652   0.998   5.917   4.510 -0.2101 -0.0635 -0.1148
   60SAPC  H20R 4653   0.986   5.993   4.430 -1.6638  1.2848  1.2990
   60SAPC  H20S 4654   0.951   5.817   4.493  2.2777 -1.7111  1.9983
   60SAPC  H20T 4655   1.105   5.893   4.521 -0.1193  0.4122  0.0751
   60SAPC   C33 4656   0.873   5.312   6.175  0.3351 -0.7599 -0.3865
   60SAPC   H3X 4657   0.841   5.215   6.132  0.1259 -1.1115  0.5368
   60SAPC   H3Y 4658   0.958   5.288   6.243  1.5377 -0.8918 -1.8847
   60SAPC   C34 4659   0.902   5.422   6.077  0.0321  1.2600 -0.1679
   60SAPC   H4X 4660   0.942   5.517   6.119 -0.2391  1.2750  0.0596
   60SAPC   H4Y 4661   0.810   5.452   6.022 -1.0419 -1.1470  0.2206
   60SAPC   C35 4662   1.005   5.365   5.979 -0.0881  0.4695 -0.3940
   60SAPC   H5X 4663   0.972   5.264   5.947 -0.2589  0.6771 -0.8828
   60SAPC   H5Y 4664   1.108   5.367   6.022  0.2674  0.8245 -1.2398
   60SAPC   C36 4665   1.025   5.463   5.865 -0.2381  0.7308 -0.0077
   60SAPC   H6X 4666   1.083   5.548   5.908 -1.7594  0.2090  3.3851
   60SAPC   H6Y 4667   0.925   5.507   5.841 -0.9723 -0.2636  1.1154
   60SAPC   C37 4668   1.077   5.393   5.731  0.1031 -0.4130 -0.3032
   60SAPC   H7X 4669   1.003   5.311   5.715 -1.1353  0.5566  0.2299
   60SAPC   H7Y 4670   1.175   5.345   5.752  0.1630 -1.0005 -1.7959
   60SAPC   C38 4671   1.075   5.477   5.605 -0.3962  0.1194  0.1530
   60SAPC   H8X 4672   1.162   5.547   5.600  0.4272 -0.9424 -0.7210
   60SAPC   H8Y 4673   0.975   5.525   5.603 -0.1248  0.7536 -2.6863
   60SAPC   C39 4674   1.065   5.383   5.479 -0.6656 -0.4216  0.4723
   60SAPC   H9X 4675   0.980   5.311   5.480  0.2936 -1.5658  0.5216
   60SAPC   H9Y 4676   1.157   5.326   5.456  0.5549  1.5763  0.1051
   60SAPC  C310 4677   1.039   5.470   5.358 -0.4921 -0.1003  0.2165
   60SAPC  H10X 4678   1.123   5.540   5.339  0.2401 -1.5122 -2.0738
   60SAPC  H10Y 4679   0.956   5.539   5.386 -1.7361 -1.2029 -0.5998
   60SAPC  C311 4680   1.029   5.388   5.223  0.0015 -0.5689  0.1295
   60SAPC  H11X 4681   0.955   5.306   5.228 -0.9409  0.3002  0.6993
   60SAPC  H11Y 4682   1.133   5.353   5.203 -0.2876 -0.5116 -1.5735
   60SAPC  C312 4683   1.008   5.489   5.103  0.3858 -0.1840 -0.6151
   60SAPC  H12X 4684   1.073   5.578   5.118 -0.0426 -0.0071  0.3089
   60SAPC  H12Y 4685   0.904   5.527   5.115  0.3759 -0.7751  1.6458
   60SAPC  C313 4686   1.043   5.433   4.966 -0.0630 -0.1930  0.0151
   60SAPC  H13X 4687   0.969   5.353   4.947  0.4499 -0.7458  0.2862
   60SAPC  H13Y 4688   1.141   5.380   4.964  0.4845  0.7087  1.4870
   60SAPC  C314 4689   1.055   5.539   4.863 -0.1710  1.0161 -0.2470
   60SAPC  H14X 4690   1.118   5.618   4.909 -2.1523  1.8867  1.1007
   60SAPC  H14Y 4691   0.960   5.595   4.849  0.2743  1.5793 -1.0649
   60SAPC  C315 4692   1.108   5.498   4.725  0.1705 -0.5289  0.4880
   60SAPC  H15X 4693   1.037   5.427   4.678  0.4085  0.3435 -1.2660
   60SAPC  H15Y 4694   1.210   5.455   4.739  0.4662 -0.2328 -0.6777
   60SAPC  C316 4695   1.136   5.610   4.629  0.2532 -0.5900 -0.8418
   60SAPC  H16X 4696   1.200   5.680   4.686 -1.2124 -0.8685  1.2739
   60SAPC  H16Y 4697   1.039   5.659   4.607 -0.8886 -1.5849  1.5784
   60SAPC  C317 4698   1.185   5.559   4.497  0.0029 -0.1522 -0.1029
   60SAPC  H17X 4699   1.098   5.507   4.451  2.2618 -4.2889 -0.2203
   60SAPC  H17Y 4700   1.269   5.492   4.526 -1.0751 -0.4210  2.7262
   60SAPC  C318 4701   1.243   5.658   4.399 -0.3903  0.2582 -0.0102
   60SAPC  H18X 4702   1.172   5.734   4.360 -0.0427  0.1465 -0.8805
   60SAPC  H18Y 4703   1.296   5.613   4.312  1.2034 -0.0975  1.0849
   60SAPC  H18Z 4704   1.320   5.716   4.456 -0.7429  1.8214 -1.0642
   61SAPC     N 4705   4.784   5.597   6.660 -0.3045  0.5057 -0.4130
   61SAPC   C12 4706   4.765   5.750   6.664 -1.5158  0.8271  0.4186
   61SAPC  H12A 4707   4.699   5.781   6.584 -0.2176  0.9516 -0.6418
   61SAPC  H12B 4708   4.862   5.793   6.649  0.2479 -2.4834  1.4096
   61SAPC   C13 4709   4.650   5.526   6.638  0.0352 -0.2185  0.1755
   61SAPC  H13A 4710   4.562   5.570   6.682 -1.0810 -1.3340 -0.8185
   61SAPC  H13B 4711   4.627   5.512   6.533  0.5841 -1.2780  0.1849
   61SAPC  H13C 4712   4.653   5.427   6.681  1.2301 -0.7310 -1.0093
   61SAPC   C14 4713   4.875   5.558   6.552 -0.1852 -0.2026  0.4543
   61SAPC  H14A 4714   4.960   5.624   6.545 -1.1272  1.0673  0.4832
   61SAPC  H14B 4715   4.916   5.458   6.556 -0.0390 -0.3178 -2.3774
   61SAPC  H14C 4716   4.818   5.564   6.460  1.7786  2.5079 -0.7061
   61SAPC   C15 4717   4.837   5.549   6.784  0.3847 -0.6787  0.3557
   61SAPC  H15A 4718   4.787   5.584   6.873  0.8961  0.9059  0.0554
   61SAPC  H15B 4719   4.839   5.441   6.787  3.7828 -0.7393 -0.1811
   61SAPC  H15C 4720   4.936   5.586   6.804  0.5378 -0.2344 -1.0855
   61SAPC   C11 4721   4.709   5.809   6.795 -0.3226 -0.3792  0.3862
   61SAPC  H11A 4722   4.627   5.748   6.838 -1.4431  2.0630  1.8740
   61SAPC  H11B 4723   4.665   5.907   6.769 -1.0720 -1.0526 -1.0419
   61SAPC     P 4724   4.919   5.930   6.892 -0.0485 -0.0193 -0.5615
   61SAPC   O13 4725   4.861   6.029   6.982  0.5516  0.1312  0.1399
   61SAPC   O14 4726   5.050   5.880   6.922 -0.0700  0.4372 -0.2492
   61SAPC   O12 4727   4.813   5.811   6.884  0.4509 -0.4319  0.6699
   61SAPC   O11 4728   4.921   5.980   6.748 -0.1843 -0.2446  0.2048
   61SAPC    C1 4729   4.985   6.090   6.684 -0.2149 -0.3971 -0.1161
   61SAPC    HA 4730   5.047   6.153   6.751 -0.4428 -1.6001  1.2579
   61SAPC    HB 4731   5.057   6.050   6.609 -1.4167 -1.5858 -0.6753
   61SAPC    C2 4732   4.880   6.180   6.612 -0.0879 -0.9110  0.1863
   61SAPC    HS 4733   4.806   6.209   6.690 -0.4375 -1.8061  0.2000
   61SAPC   O21 4734   4.811   6.106   6.516  0.0408  0.7176 -0.5299
   61SAPC   C21 4735   4.708   6.171   6.458 -0.5853  0.3902 -0.0035
   61SAPC   O22 4736   4.662   6.280   6.495 -0.4452 -0.2025  0.0197
   61SAPC   C22 4737   4.676   6.106   6.323 -0.4509 -0.4880  0.0008
   61SAPC   H2R 4738   4.664   5.997   6.341 -1.1997 -0.3770  0.2296
   61SAPC   H2S 4739   4.578   6.131   6.276  0.3989 -1.4572 -2.4271
   61SAPC    C3 4740   4.945   6.313   6.559  0.1835  0.6837  0.3785
   61SAPC    HX 4741   4.983   6.367   6.649 -0.8749  0.7285  0.8104
   61SAPC    HY 4742   4.884   6.383   6.498 -2.0582  0.1633  1.8907
   61SAPC   O31 4743   5.065   6.280   6.485  0.9450  0.2035  0.4497
   61SAPC   C31 4744   5.128   6.377   6.419 -0.0930 -0.1322 -0.3201
   61SAPC   O32 4745   5.095   6.493   6.414 -0.2092 -0.3073 -0.2815
   61SAPC   C32 4746   5.257   6.319   6.361 -0.0242 -0.4598  0.0737
   61SAPC   H2X 4747   5.283   6.243   6.438 -1.4874 -1.0716 -0.0076
   61SAPC   H2Y 4748   5.335   6.398   6.366 -0.9104  0.4114  0.2790
   61SAPC   C23 4749   4.794   6.125   6.221 -0.1255 -0.0051  0.4565
   61SAPC   H3R 4750   4.775   6.063   6.131  1.9489 -1.7799  1.1722
   61SAPC   H3S 4751   4.878   6.084   6.281  0.5007 -0.6596 -0.8279
   61SAPC   C24 4752   4.824   6.262   6.187  0.1025 -0.3050  0.1665
   61SAPC   H4R 4753   4.904   6.249   6.111 -0.2576 -0.4922 -0.1889
   61SAPC   H4S 4754   4.856   6.327   6.270 -1.0835  0.2366  0.2199
   61SAPC   C25 4755   4.709   6.315   6.106 -0.8284 -0.4624  0.1188
   61SAPC   H5R 4756   4.623   6.350   6.164 -1.5450  0.0429 -1.2100
   61SAPC   C26 4757   4.698   6.339   5.971  0.3294 -0.6305 -0.6142
   61SAPC   H6R 4758   4.609   6.393   5.937  0.0640 -1.7344 -1.7169
   61SAPC   C27 4759   4.789   6.310   5.859  0.4619 -0.4207  1.2420
   61SAPC   H7R 4760   4.824   6.207   5.881  3.1771  0.5750  2.0124
   61SAPC   H7S 4761   4.883   6.369   5.865  0.1381  0.0318  1.9167
   61SAPC   C28 4762   4.744   6.321   5.714  0.2317  0.8926 -0.3084
   61SAPC   H8R 4763   4.757   6.422   5.674 -0.3726  1.2560  0.3787
   61SAPC   C29 4764   4.693   6.224   5.629 -0.5022 -0.2919 -0.5569
   61SAPC   H9R 4765   4.678   6.255   5.524  0.3131 -2.7823 -1.4842
   61SAPC  C210 4766   4.649   6.084   5.655  0.2011  0.2130 -0.4154
   61SAPC  H10R 4767   4.553   6.052   5.609  0.5453  0.8795 -1.6475
   61SAPC  H10S 4768   4.629   6.066   5.762  0.9403 -1.1214 -0.4787
   61SAPC  C211 4769   4.748   5.977   5.615  0.2538  0.0954 -0.1945
   61SAPC  H11R 4770   4.800   5.932   5.700  0.2031 -2.3197 -1.3740
   61SAPC  C212 4771   4.783   5.941   5.492  0.2906 -0.0680  0.1851
   61SAPC  H12R 4772   4.869   5.873   5.483  0.8270  0.7074 -0.7500
   61SAPC  C213 4773   4.712   5.979   5.366 -0.4123  0.0631  1.2254
   61SAPC  H13R 4774   4.611   6.023   5.382 -0.2850  1.0653 -0.4952
   61SAPC  H13S 4775   4.698   5.897   5.293 -1.9127  0.8454  0.5955
   61SAPC  C214 4776   4.794   6.075   5.281  0.3550  0.7241  0.2195
   61SAPC  H14R 4777   4.900   6.047   5.284 -0.0047 -0.6720  2.2854
   61SAPC  C215 4778   4.766   6.197   5.233  0.5116 -1.1840 -0.1280
   61SAPC  H15R 4779   4.843   6.255   5.180  0.4014 -0.7197  0.2222
   61SAPC  C216 4780   4.626   6.262   5.243 -0.1787  0.1338 -0.0022
   61SAPC  H16R 4781   4.633   6.367   5.280 -0.6411  0.7264 -1.5097
   61SAPC  H16S 4782   4.565   6.209   5.319 -1.8275 -0.8332 -1.8967
   61SAPC  C217 4783   4.539   6.265   5.122  0.6869 -0.8353 -1.0917
   61SAPC  H17R 4784   4.442   6.308   5.155  1.5974  0.9332 -0.5794
   61SAPC  H17S 4785   4.518   6.159   5.096  1.6616 -1.7511  1.6181
   61SAPC  C218 4786   4.594   6.354   4.998 -0.6082 -1.1176  0.4645
   61SAPC  H18R 4787   4.516   6.345   4.919  0.6302  1.7907 -1.2289
   61SAPC  H18S 4788   4.691   6.310   4.969  0.6984  1.8962 -0.1263
   61SAPC  C219 4789   4.632   6.504   5.017 -0.8186 -0.4124  0.0239
   61SAPC  H19R 4790   4.727   6.499   5.074  0.1034 -0.6504 -1.4852
   61SAPC  H19S 4791   4.560   6.562   5.079  2.1229  0.6047  2.7460
   61SAPC  C220 4792   4.640   6.578   4.885 -0.2520  0.4423 -0.4019
   61SAPC  H20R 4793   4.613   6.685   4.897  1.2785  0.8159 -0.0526
   61SAPC  H20S 4794   4.563   6.534   4.818  0.5465 -0.4453 -0.7638
   61SAPC  H20T 4795   4.737   6.563   4.834 -0.6727 -0.8158 -0.8900
   61SAPC   C33 4796   5.255   6.259   6.221 -0.4633 -0.2851 -0.9433
   61SAPC   H3X 4797   5.179   6.179   6.213  0.4581 -1.5212  1.4352
   61SAPC   H3Y 4798   5.355   6.212   6.205  0.0987  0.4718  0.2168
   61SAPC   C34 4799   5.220   6.368   6.113 -0.1251  0.3185 -0.1149
   61SAPC   H4X 4800   5.144   6.444   6.143  0.4522  0.2476  1.6180
   61SAPC   H4Y 4801   5.166   6.327   6.025  0.3780  1.0927 -0.8013
   61SAPC   C35 4802   5.353   6.440   6.057 -0.0154  0.1497  0.3580
   61SAPC   H5X 4803   5.418   6.361   6.014  0.1206  0.9925 -1.0598
   61SAPC   H5Y 4804   5.400   6.493   6.143 -0.1362 -0.5230  0.8434
   61SAPC   C36 4805   5.317   6.540   5.955  0.6842 -0.3427  0.8359
   61SAPC   H6X 4806   5.285   6.631   6.010  3.8039  1.2613  0.1925
   61SAPC   H6Y 4807   5.227   6.512   5.895 -0.2435  1.5425  1.2663
   61SAPC   C37 4808   5.438   6.586   5.874  0.3454 -0.1840 -0.4783
   61SAPC   H7X 4809   5.482   6.489   5.843  0.0989 -0.7023  0.7419
   61SAPC   H7Y 4810   5.503   6.635   5.950 -1.2074  0.7417  0.2947
   61SAPC   C38 4811   5.405   6.678   5.757  0.7016  0.3123 -0.3672
   61SAPC   H8X 4812   5.460   6.774   5.768  2.0749 -0.4244 -0.5175
   61SAPC   H8Y 4813   5.301   6.709   5.737  1.0844  1.1964 -1.0720
   61SAPC   C39 4814   5.460   6.625   5.619 -0.0262 -0.0467 -0.7153
   61SAPC   H9X 4815   5.400   6.533   5.598 -0.1345 -0.0106 -0.5659
   61SAPC   H9Y 4816   5.570   6.610   5.623  0.0976  1.0608  0.3096
   61SAPC  C310 4817   5.432   6.720   5.504  0.4513  1.2574 -0.3379
   61SAPC  H10X 4818   5.456   6.826   5.530  1.4408  0.7473  0.9501
   61SAPC  H10Y 4819   5.322   6.727   5.494 -0.4212 -1.6993  4.2672
   61SAPC  C311 4820   5.491   6.665   5.372  0.6808 -0.3637  0.0627
   61SAPC  H11X 4821   5.444   6.565   5.358 -0.5597  0.2073  0.0688
   61SAPC  H11Y 4822   5.602   6.656   5.374  0.7567  0.2573  3.1488
   61SAPC  C312 4823   5.448   6.753   5.257  0.7721  0.0426 -0.0685
   61SAPC  H12X 4824   5.460   6.859   5.288  0.5154 -0.7744  3.2216
   61SAPC  H12Y 4825   5.341   6.734   5.237  1.1456 -2.2302 -0.1254
   61SAPC  C313 4826   5.515   6.729   5.123 -0.1049 -0.1443  0.0785
   61SAPC  H13X 4827   5.626   6.737   5.133 -0.0343 -0.8949 -0.0357
   61SAPC  H13Y 4828   5.484   6.807   5.050  1.8499  1.4140  0.8066
   61SAPC  C314 4829   5.475   6.599   5.057 -0.2118 -0.3002 -0.3771
   61SAPC  H14X 4830   5.367   6.575   5.068 -0.2606  0.0866  0.0238
   61SAPC  H14Y 4831   5.530   6.515   5.104  0.4435 -0.0864 -0.7417
   61SAPC  C315 4832   5.514   6.590   4.906  0.3102  0.0026 -0.3829
   61SAPC  H15X 4833   5.622   6.611   4.892  0.1552 -0.0948 -1.9534
   61SAPC  H15Y 4834   5.446   6.654   4.846 -2.9399  0.7974  3.6702
   61SAPC  C316 4835   5.480   6.444   4.858 -0.4842 -0.4598  0.4736
   61SAPC  H16X 4836   5.373   6.415   4.872 -0.7389  0.3040  0.1234
   61SAPC  H16Y 4837   5.543   6.375   4.918 -1.9243 -1.9784  0.3209
   61SAPC  C317 4838   5.522   6.429   4.707 -0.4696 -0.9752  0.2514
   61SAPC  H17X 4839   5.548   6.322   4.687 -0.6057 -0.9462 -0.0844
   61SAPC  H17Y 4840   5.622   6.476   4.697 -1.8827  1.9682 -1.1576
   61SAPC  C318 4841   5.420   6.470   4.606  0.9091  0.3846  0.3385
   61SAPC  H18X 4842   5.439   6.428   4.505  0.3575  3.1642 -1.0315
   61SAPC  H18Y 4843   5.405   6.580   4.605 -1.6719  0.1980  3.2606
   61SAPC  H18Z 4844   5.320   6.432   4.637  0.8953 -0.0177 -0.1801
   62SAPC     N 4845   0.750   4.514   6.504  0.0069 -0.0542  0.5000
   62SAPC   C12 4846   0.699   4.375   6.516 -0.3159  0.4945  0.3960
   62SAPC  H12A 4847   0.777   4.305   6.487  0.6615  0.3440  3.0757
   62SAPC  H12B 4848   0.619   4.350   6.449  0.7400 -2.5888  0.1190
   62SAPC   C13 4849   0.807   4.529   6.368 -0.3215 -0.5180 -0.4232
   62SAPC  H13A 4850   0.728   4.506   6.297 -2.6356  2.1697  1.0606
   62SAPC  H13B 4851   0.849   4.627   6.352 -0.2184 -0.7678 -1.8624
   62SAPC  H13C 4852   0.886   4.457   6.354  0.9412  0.3609  1.8184
   62SAPC   C14 4853   0.634   4.603   6.522 -0.4224 -0.4031 -0.5072
   62SAPC  H14A 4854   0.567   4.609   6.438 -1.8314 -0.7299  0.5546
   62SAPC  H14B 4855   0.579   4.578   6.612  1.6309 -0.7222  0.7293
   62SAPC  H14C 4856   0.670   4.705   6.528 -1.8394  0.1888 -1.6096
   62SAPC   C15 4857   0.865   4.540   6.608  0.4182 -0.5520 -0.3740
   62SAPC  H15A 4858   0.832   4.518   6.708 -0.7771 -1.2148 -0.8738
   62SAPC  H15B 4859   0.947   4.473   6.588  0.0140 -1.7586  1.7315
   62SAPC  H15C 4860   0.904   4.640   6.611  0.5787 -0.6324  2.0642
   62SAPC   C11 4861   0.642   4.329   6.662 -0.3631 -0.4055  0.1936
   62SAPC  H11A 4862   0.714   4.337   6.747  0.3311 -2.9567 -0.0720
   62SAPC  H11B 4863   0.636   4.218   6.659  0.6209 -0.4448 -1.3232
   62SAPC     P 4864   0.379   4.334   6.626 -0.0217 -0.1602  0.0306
   62SAPC   O13 4865   0.366   4.192   6.627  0.6047  0.0491  0.0069
   62SAPC   O14 4866   0.267   4.415   6.686 -0.3059  0.1186  0.1092
   62SAPC   O12 4867   0.515   4.385   6.699  0.0316  0.3779 -0.2692
   62SAPC   O11 4868   0.391   4.387   6.477  0.4810 -0.0252 -0.6844
   62SAPC    C1 4869   0.304   4.333   6.379 -0.1031  0.1792  0.6061
   62SAPC    HA 4870   0.288   4.223   6.379 -2.5112  0.4240  2.9086
   62SAPC    HB 4871   0.206   4.384   6.390 -0.9437 -1.3886  0.5670
   62SAPC    C2 4872   0.356   4.366   6.239  0.1569  0.1915  0.2492
   62SAPC    HS 4873   0.280   4.329   6.167 -2.3771  0.6859  2.5050
   62SAPC   O21 4874   0.484   4.301   6.219 -0.4085  0.3307  0.1747
   62SAPC   C21 4875   0.483   4.169   6.198  1.2258  0.3631 -0.4592
   62SAPC   O22 4876   0.380   4.108   6.184  0.1594 -0.0762 -0.2229
   62SAPC   C22 4877   0.626   4.115   6.172  0.2149  0.0375 -0.2532
   62SAPC   H2R 4878   0.683   4.123   6.267 -0.3003 -0.8137  0.1414
   62SAPC   H2S 4879   0.602   4.007   6.158 -1.5430  0.4604 -0.7607
   62SAPC    C3 4880   0.353   4.521   6.212  0.3982 -0.4836 -0.1094
   62SAPC    HX 4881   0.394   4.579   6.298 -0.1798  1.1430 -0.8982
   62SAPC    HY 4882   0.247   4.549   6.225  0.5647 -0.3926  1.1325
   62SAPC   O31 4883   0.407   4.554   6.082 -0.5752 -0.0655 -0.0071
   62SAPC   C31 4884   0.529   4.591   6.086 -0.3505  0.7996 -0.3500
   62SAPC   O32 4885   0.596   4.603   6.187  0.0206  0.0970  0.0453
   62SAPC   C32 4886   0.577   4.600   5.939  0.2336  0.0764  0.4377
   62SAPC   H2X 4887   0.553   4.705   5.909  1.1019  0.3858  0.7955
   62SAPC   H2Y 4888   0.515   4.537   5.871  1.2829 -1.3805  0.7972
   62SAPC   C23 4889   0.702   4.181   6.054  1.0671  0.5075  0.2868
   62SAPC   H3R 4890   0.809   4.154   6.061  1.0739  0.5259  0.2572
   62SAPC   H3S 4891   0.707   4.290   6.075 -2.1575  0.1522  3.8764
   62SAPC   C24 4892   0.649   4.158   5.913  0.2755  0.2481  0.0439
   62SAPC   H4R 4893   0.729   4.185   5.841 -0.0384 -2.2712 -1.4051
   62SAPC   H4S 4894   0.564   4.229   5.912  1.4122  1.7195  1.8338
   62SAPC   C25 4895   0.603   4.016   5.884 -0.2437  0.2875  0.4081
   62SAPC   H5R 4896   0.667   3.935   5.924  3.2983  2.0825 -1.1234
   62SAPC   C26 4897   0.511   3.988   5.791  0.3839 -0.3694 -0.4350
   62SAPC   H6R 4898   0.482   3.882   5.788  2.4327 -0.9739 -0.8521
   62SAPC   C27 4899   0.422   4.087   5.719 -0.1070  0.7357 -0.4203
   62SAPC   H7R 4900   0.369   4.025   5.643 -0.6605 -1.3066  1.5251
   62SAPC   H7S 4901   0.479   4.162   5.660 -4.5273  1.6744 -4.0991
   62SAPC   C28 4902   0.309   4.152   5.800  0.3503  0.0335 -0.3268
   62SAPC   H8R 4903   0.293   4.113   5.901  0.2467  0.5145 -0.1548
   62SAPC   C29 4904   0.234   4.253   5.761  0.7729  1.2271  0.3070
   62SAPC   H9R 4905   0.160   4.293   5.833  0.9963 -2.4024  2.8384
   62SAPC  C210 4906   0.225   4.308   5.615 -0.2174  0.4752 -0.1639
   62SAPC  H10R 4907   0.218   4.226   5.541 -1.6272  2.3475 -2.2343
   62SAPC  H10S 4908   0.328   4.344   5.592 -0.0602  0.5388  0.5988
   62SAPC  C211 4909   0.142   4.428   5.590  0.9513 -0.5606 -0.3872
   62SAPC  H11R 4910   0.102   4.479   5.679  0.2021  0.4680 -1.2771
   62SAPC  C212 4911   0.129   4.488   5.467 -0.7146 -0.2625  0.7262
   62SAPC  H12R 4912   0.072   4.579   5.447  0.3575  0.5374  1.2015
   62SAPC  C213 4913   0.183   4.424   5.338 -0.4315 -0.2821 -0.3844
   62SAPC  H13R 4914   0.135   4.475   5.251  0.6730 -0.4770 -1.1245
   62SAPC  H13S 4915   0.151   4.318   5.339 -0.2309 -0.3418 -0.4323
   62SAPC  C214 4916   0.336   4.437   5.319  0.6292 -0.1147 -0.2279
   62SAPC  H14R 4917   0.374   4.540   5.318  0.4957  0.0290  2.2415
   62SAPC  C215 4918   0.427   4.340   5.318 -0.3544  0.2196  0.6141
   62SAPC  H15R 4919   0.533   4.369   5.311  0.2029 -1.8914 -0.6394
   62SAPC  C216 4920   0.390   4.190   5.315 -0.5099  0.4470 -0.1786
   62SAPC  H16R 4921   0.285   4.176   5.281 -0.8780  0.6349  0.8498
   62SAPC  H16S 4922   0.394   4.143   5.416 -1.1946 -0.1402 -0.4145
   62SAPC  C217 4923   0.482   4.111   5.214  0.3195  0.1968 -1.3889
   62SAPC  H17R 4924   0.460   4.151   5.113  0.4219  2.4536 -0.5839
   62SAPC  H17S 4925   0.436   4.010   5.220  0.9562 -0.0258  1.3432
   62SAPC  C218 4926   0.638   4.098   5.241 -0.3809  0.1980  0.2207
   62SAPC  H18R 4927   0.676   4.198   5.211 -1.0566  0.1568 -0.8330
   62SAPC  H18S 4928   0.677   4.023   5.169  2.9046 -0.2881  2.2864
   62SAPC  C219 4929   0.671   4.067   5.384 -0.0976  0.3325 -0.2362
   62SAPC  H19R 4930   0.640   4.148   5.453  2.1163  1.5538 -0.5665
   62SAPC  H19S 4931   0.781   4.075   5.401  0.0817 -1.9317  0.0612
   62SAPC  C220 4932   0.619   3.939   5.447  0.2965 -0.3037 -0.3272
   62SAPC  H20R 4933   0.598   3.956   5.555  3.0167 -0.1707  0.2356
   62SAPC  H20S 4934   0.688   3.853   5.438  0.4438 -0.2417  0.1811
   62SAPC  H20T 4935   0.520   3.912   5.404  0.9813 -0.4582 -1.8813
   62SAPC   C33 4936   0.727   4.582   5.916 -0.1146 -0.2560  0.6809
   62SAPC   H3X 4937   0.770   4.483   5.945 -1.7440 -1.1771  0.1097
   62SAPC   H3Y 4938   0.771   4.658   5.983 -1.6685  0.7511  0.6126
   62SAPC   C34 4939   0.771   4.605   5.766  0.2072  0.3735 -0.1988
   62SAPC   H4X 4940   0.879   4.633   5.765  0.5726 -0.9699  0.0123
   62SAPC   H4Y 4941   0.708   4.683   5.717 -0.2468 -0.8511 -1.6206
   62SAPC   C35 4942   0.749   4.469   5.689  0.2727 -0.4627 -0.1332
   62SAPC   H5X 4943   0.656   4.419   5.725  0.5537 -0.1571  1.0681
   62SAPC   H5Y 4944   0.828   4.394   5.713  2.0357  1.3299  0.0088
   62SAPC   C36 4945   0.722   4.498   5.536  0.0768  0.1732 -0.5374
   62SAPC   H6X 4946   0.641   4.574   5.530  0.5607  0.9136  1.5082
   62SAPC   H6Y 4947   0.677   4.403   5.501 -0.3279  0.7287 -1.5942
   62SAPC   C37 4948   0.846   4.514   5.463  0.0498 -0.1534  0.2515
   62SAPC   H7X 4949   0.898   4.604   5.501  0.1564 -0.1221  0.0357
   62SAPC   H7Y 4950   0.816   4.538   5.358 -0.5030 -0.1053  0.4155
   62SAPC   C38 4951   0.932   4.390   5.449  0.5400  0.0604  0.0659
   62SAPC   H8X 4952   0.871   4.298   5.436 -0.7907  0.8541  0.4595
   62SAPC   H8Y 4953   0.975   4.366   5.548 -0.3060 -1.1625  0.1570
   62SAPC   C39 4954   1.054   4.412   5.356 -0.5688 -0.1593  0.0469
   62SAPC   H9X 4955   1.109   4.315   5.347 -1.3248 -0.7408  1.4265
   62SAPC   H9Y 4956   1.107   4.477   5.429  0.5262 -1.6935  0.7021
   62SAPC  C310 4957   1.035   4.469   5.217 -0.2518  0.6070 -0.2202
   62SAPC  H10X 4958   1.135   4.459   5.170 -0.1461 -0.6544  0.2437
   62SAPC  H10Y 4959   1.014   4.578   5.216  0.1524  0.6828 -0.9521
   62SAPC  C311 4960   0.928   4.392   5.129  0.5625  1.0628  0.2025
   62SAPC  H11X 4961   0.825   4.420   5.163  0.5561  3.1470 -1.3393
   62SAPC  H11Y 4962   0.949   4.284   5.127 -0.0578  0.8602 -3.9841
   62SAPC  C312 4963   0.933   4.427   4.983  0.1170 -0.5733  0.0538
   62SAPC  H12X 4964   1.038   4.412   4.951 -0.4484 -1.2678 -1.5914
   62SAPC  H12Y 4965   0.921   4.538   4.975  4.0606  0.0003  0.1215
   62SAPC  C313 4966   0.830   4.368   4.884  0.1772 -0.3271 -0.4597
   62SAPC  H13X 4967   0.821   4.258   4.892  2.7251 -0.4812  1.6246
   62SAPC  H13Y 4968   0.880   4.385   4.786 -0.3748 -0.0947 -0.7068
   62SAPC  C314 4969   0.688   4.430   4.902 -0.5443  0.8842 -0.4579
   62SAPC  H14X 4970   0.701   4.540   4.907  2.2549  0.5803  2.6479
   62SAPC  H14Y 4971   0.652   4.411   5.006  2.7940 -0.7210  0.5572
   62SAPC  C315 4972   0.601   4.374   4.789 -0.0719  0.2532  0.0967
   62SAPC  H15X 4973   0.609   4.264   4.790 -0.3771  0.1346 -2.8428
   62SAPC  H15Y 4974   0.634   4.403   4.687  0.8019  1.2673  0.6395
   62SAPC  C316 4975   0.456   4.422   4.813  0.3046  0.2371  0.9274
   62SAPC  H16X 4976   0.465   4.532   4.825  1.0019  0.1937  0.8026
   62SAPC  H16Y 4977   0.407   4.379   4.903 -1.2403 -1.3196 -0.5658
   62SAPC  C317 4978   0.349   4.389   4.699  0.7893  0.4515  0.6369
   62SAPC  H17X 4979   0.357   4.283   4.666 -0.9059  0.9667 -1.7156
   62SAPC  H17Y 4980   0.373   4.452   4.611  1.3908  0.5411  0.8604
   62SAPC  C318 4981   0.201   4.424   4.737  0.5576  0.1159  0.3664
   62SAPC  H18X 4982   0.121   4.399   4.664 -0.5008  0.6052  1.3240
   62SAPC  H18Y 4983   0.196   4.529   4.773 -0.9215 -0.2454  1.3125
   62SAPC  H18Z 4984   0.168   4.359   4.821  1.0329 -1.9035 -0.9491
   63SAPC     N 4985   6.061   0.195   6.766 -0.0397 -0.4005  0.8216
   63SAPC   C12 4986   6.007   0.055   6.806  0.5251 -0.5058 -0.0177
   63SAPC  H12A 4987   5.959   0.016   6.717  0.3599  2.4730 -1.3357
   63SAPC  H12B 4988   5.925   0.075   6.873 -1.1725 -2.4081 -1.3779
   63SAPC   C13 4989   5.957   0.284   6.712  0.3150 -1.3681  0.0204
   63SAPC  H13A 4990   5.876   0.292   6.784  0.1521  0.6469 -0.3193
   63SAPC  H13B 4991   6.009   0.378   6.704  1.6433 -1.8697  2.1791
   63SAPC  H13C 4992   5.921   0.261   6.613 -1.0861 -3.2337  0.8944
   63SAPC   C14 4993   6.133   0.248   6.883  0.3519  0.0758 -0.3475
   63SAPC  H14A 4994   6.201   0.177   6.927  2.1596  1.6349 -0.4787
   63SAPC  H14B 4995   6.180   0.342   6.859  0.2240  0.4116  0.6337
   63SAPC  H14C 4996   6.063   0.272   6.962 -1.1020 -0.7111 -1.3475
   63SAPC   C15 4997   6.166   0.172   6.652  0.2905  0.4188  0.2587
   63SAPC  H15A 4998   6.217   0.263   6.627  0.8676 -0.3809 -1.6767
   63SAPC  H15B 4999   6.230   0.091   6.683 -1.5927 -0.5327  1.8569
   63SAPC  H15C 5000   6.106   0.132   6.571 -0.3537 -1.5112  1.6160
   63SAPC   C11 5001   6.108  -0.047   6.866 -0.5502 -0.0906  0.2969
   63SAPC  H11A 5002   6.049  -0.131   6.907 -0.7084  0.2376  0.7392
   63SAPC  H11B 5003   6.164   0.010   6.943  0.3162  0.3883 -0.6416
   63SAPC     P 5004   6.156  -0.192   6.651  0.3976 -0.1490  0.5982
   63SAPC   O13 5005   6.031  -0.265   6.688  0.3407  0.2666  0.5470
   63SAPC   O14 5006   6.140  -0.111   6.527 -0.0074 -0.5583  0.1860
   63SAPC   O12 5007   6.209  -0.099   6.771  0.1645 -0.8686 -1.0141
   63SAPC   O11 5008   6.280  -0.286   6.634  0.0985  0.3460 -0.4480
   63SAPC    C1 5009   6.416  -0.270   6.692  0.4883  0.0192  0.1402
   63SAPC    HA 5010   6.426  -0.166   6.730 -3.5206  0.3665  0.6973
   63SAPC    HB 5011   6.413  -0.339   6.778 -1.2472  0.6102  0.5991
   63SAPC    C2 5012   6.519  -0.297   6.593  0.4619  0.2930  0.5031
   63SAPC    HS 5013   6.503  -0.216   6.519 -0.8454 -0.9616 -0.6629
   63SAPC   O21 5014   6.506  -0.423   6.535 -0.0616  0.1318 -0.0303
   63SAPC   C21 5015   6.429  -0.440   6.424  0.1331 -0.1262 -0.3503
   63SAPC   O22 5016   6.371  -0.354   6.361  0.9423  0.4823 -0.2543
   63SAPC   C22 5017   6.424  -0.592   6.398 -0.4782  0.2284 -0.0649
   63SAPC   H2R 5018   6.508  -0.645   6.446 -0.1886  0.2386 -0.5644
   63SAPC   H2S 5019   6.330  -0.632   6.441 -0.6882 -1.2806 -1.8139
   63SAPC    C3 5020   6.658  -0.279   6.662 -0.5810 -0.7307  0.6499
   63SAPC    HX 5021   6.656  -0.337   6.757  1.1585 -1.1746  0.4393
   63SAPC    HY 5022   6.679  -0.173   6.686 -2.5178  0.1650 -1.2219
   63SAPC   O31 5023   6.753  -0.335   6.571 -0.5500  0.4799  0.8020
   63SAPC   C31 5024   6.788  -0.263   6.464  0.1814 -0.4184  0.5500
   63SAPC   O32 5025   6.743  -0.157   6.437  0.6024  0.0104  0.3065
   63SAPC   C32 5026   6.892  -0.330   6.387 -0.1435  0.0817 -0.0737
   63SAPC   H2X 5027   6.944  -0.390   6.464 -1.4193  2.1758  2.5917
   63SAPC   H2Y 5028   6.962  -0.257   6.340 -0.2050  0.6753  0.7471
   63SAPC   C23 5029   6.409  -0.610   6.249 -1.1092  0.3550  0.3407
   63SAPC   H3R 5030   6.352  -0.534   6.191  0.8651  0.7167 -1.2190
   63SAPC   H3S 5031   6.358  -0.706   6.229  0.0330  0.0087 -0.9870
   63SAPC   C24 5032   6.546  -0.630   6.179 -0.8111  0.4161  0.2626
   63SAPC   H4R 5033   6.623  -0.694   6.228 -0.9196 -2.8092 -3.2926
   63SAPC   H4S 5034   6.588  -0.528   6.174 -3.1042  1.4199  0.4721
   63SAPC   C25 5035   6.520  -0.692   6.045  0.4840  0.0791 -0.8803
   63SAPC   H5R 5036   6.480  -0.794   6.048 -0.6031  0.5184  0.4351
   63SAPC   C26 5037   6.506  -0.629   5.926  0.7113  0.0989  0.1314
   63SAPC   H6R 5038   6.489  -0.688   5.834  0.0021 -0.4040  0.5707
   63SAPC   C27 5039   6.532  -0.484   5.887  0.1342  0.6278  0.1581
   63SAPC   H7R 5040   6.498  -0.418   5.970 -0.8801 -1.5192  1.5611
   63SAPC   H7S 5041   6.495  -0.463   5.784  3.4025  0.7110 -1.1332
   63SAPC   C28 5042   6.683  -0.470   5.878  0.5230  0.6940  0.0426
   63SAPC   H8R 5043   6.746  -0.519   5.954 -0.5944 -0.8803 -0.0040
   63SAPC   C29 5044   6.743  -0.400   5.778 -0.4903  0.3743  0.6181
   63SAPC   H9R 5045   6.853  -0.387   5.781 -0.2539 -0.5170 -1.6714
   63SAPC  C210 5046   6.671  -0.325   5.666 -0.0084  0.2272  0.4277
   63SAPC  H10R 5047   6.609  -0.245   5.710 -0.7405  0.1310 -0.4065
   63SAPC  H10S 5048   6.602  -0.392   5.610 -0.4598 -0.5097  1.8301
   63SAPC  C211 5049   6.778  -0.262   5.579 -0.0262 -0.5049  0.5258
   63SAPC  H11R 5050   6.823  -0.168   5.612 -0.9849  0.1893 -0.0711
   63SAPC  C212 5051   6.828  -0.315   5.462  0.8220  0.2614 -0.1256
   63SAPC  H12R 5052   6.911  -0.270   5.406  0.9659 -1.7871 -1.7223
   63SAPC  C213 5053   6.790  -0.451   5.399 -0.0108 -0.5733 -0.4666
   63SAPC  H13R 5054   6.746  -0.508   5.483 -1.3591  3.2352  1.6531
   63SAPC  H13S 5055   6.886  -0.500   5.374  0.6409  0.1476  0.5039
   63SAPC  C214 5056   6.692  -0.449   5.279  0.0489  0.2548  1.2406
   63SAPC  H14R 5057   6.586  -0.427   5.303 -0.1382 -0.5259  1.1427
   63SAPC  C215 5058   6.733  -0.479   5.154  0.1587 -0.0943 -0.5631
   63SAPC  H15R 5059   6.670  -0.475   5.064  1.0112  1.2669 -1.1295
   63SAPC  C216 5060   6.880  -0.515   5.129 -0.4239  0.0450 -0.1907
   63SAPC  H16R 5061   6.893  -0.570   5.034  1.5795  1.9295 -1.0969
   63SAPC  H16S 5062   6.911  -0.581   5.213  0.9609 -1.3972 -1.7636
   63SAPC  C217 5063   6.985  -0.399   5.108  0.4638 -0.1017 -1.1447
   63SAPC  H17R 5064   7.077  -0.456   5.084  1.4483  0.8535  0.2685
   63SAPC  H17S 5065   7.001  -0.338   5.199  0.1877  1.4542 -2.1022
   63SAPC  C218 5066   6.946  -0.310   4.993 -0.5707  0.1225  0.6537
   63SAPC  H18R 5067   6.869  -0.237   5.026 -0.7505  0.7763 -1.0936
   63SAPC  H18S 5068   6.908  -0.370   4.907  0.3447 -1.3708  1.2435
   63SAPC  C219 5069   7.052  -0.221   4.927 -0.8534 -1.2904  0.4081
   63SAPC  H19R 5070   7.131  -0.290   4.893  0.1468  0.3419 -0.7381
   63SAPC  H19S 5071   7.099  -0.159   5.007 -1.8030 -1.0187  0.7721
   63SAPC  C220 5072   7.002  -0.130   4.815 -0.3418  0.2594  0.2897
   63SAPC  H20R 5073   6.922  -0.064   4.855  1.3726  2.1912  0.6473
   63SAPC  H20S 5074   6.969  -0.178   4.720  0.6283  1.7118 -0.8312
   63SAPC  H20T 5075   7.081  -0.059   4.784 -0.0317 -1.0579 -2.2255
   63SAPC   C33 5076   6.835  -0.421   6.275 -0.9009  0.0593 -0.0207
   63SAPC   H3X 5077   6.776  -0.352   6.212 -0.5422  0.8708  0.5180
   63SAPC   H3Y 5078   6.757  -0.486   6.321 -3.3197  2.7185 -0.1222
   63SAPC   C34 5079   6.947  -0.491   6.201 -0.2976 -0.5496  0.3262
   63SAPC   H4X 5080   6.895  -0.550   6.122 -1.3553  3.0651 -1.9210
   63SAPC   H4Y 5081   7.006  -0.549   6.275  0.3775 -0.7182 -0.3339
   63SAPC   C35 5082   7.048  -0.402   6.122 -0.1607 -0.1107  0.5308
   63SAPC   H5X 5083   7.091  -0.321   6.186  2.4879  1.0597 -2.4573
   63SAPC   H5Y 5084   6.981  -0.344   6.055 -0.0376  0.0323  0.5290
   63SAPC   C36 5085   7.169  -0.464   6.059  0.0303 -0.2512 -0.2607
   63SAPC   H6X 5086   7.213  -0.549   6.115 -0.8416  0.4518  1.5472
   63SAPC   H6Y 5087   7.242  -0.383   6.035 -1.8588  1.1526 -1.6328
   63SAPC   C37 5088   7.121  -0.531   5.931 -0.2896 -0.2337  0.3559
   63SAPC   H7X 5089   7.040  -0.468   5.888  0.9691 -0.4089 -2.5109
   63SAPC   H7Y 5090   7.089  -0.637   5.946 -0.6363 -0.3757 -1.2388
   63SAPC   C38 5091   7.229  -0.547   5.823  0.4712  0.1099 -0.3287
   63SAPC   H8X 5092   7.313  -0.609   5.861  1.2829  1.0456 -0.5384
   63SAPC   H8Y 5093   7.280  -0.450   5.801  0.4371 -0.1127 -1.4460
   63SAPC   C39 5094   7.165  -0.587   5.695  0.3345 -0.2389  0.3906
   63SAPC   H9X 5095   7.107  -0.498   5.662  1.8262  0.8035  0.4776
   63SAPC   H9Y 5096   7.099  -0.674   5.714 -1.2986  0.5505 -1.3334
   63SAPC  C310 5097   7.256  -0.620   5.577 -0.5475 -0.0873 -0.4464
   63SAPC  H10X 5098   7.304  -0.720   5.585  0.8357  0.6626  1.2266
   63SAPC  H10Y 5099   7.339  -0.549   5.596 -0.5106 -0.5746  1.3807
   63SAPC  C311 5100   7.206  -0.602   5.435  0.1489  0.1971  0.3268
   63SAPC  H11X 5101   7.169  -0.498   5.421 -1.3220 -0.2497  0.7000
   63SAPC  H11Y 5102   7.125  -0.670   5.402 -1.4129  2.7107 -1.3861
   63SAPC  C312 5103   7.325  -0.647   5.345 -0.1911  0.2654 -0.2756
   63SAPC  H12X 5104   7.321  -0.758   5.348 -0.0147  0.1852 -1.9620
   63SAPC  H12Y 5105   7.422  -0.608   5.384 -0.1023  1.2245 -1.4115
   63SAPC  C313 5106   7.309  -0.612   5.199 -0.4703 -0.6705 -0.4974
   63SAPC  H13X 5107   7.405  -0.586   5.149  0.6462 -3.5350 -0.0376
   63SAPC  H13Y 5108   7.223  -0.541   5.191 -0.6889 -0.5604  2.0258
   63SAPC  C314 5109   7.263  -0.736   5.120 -0.1258 -0.5384 -0.0537
   63SAPC  H14X 5110   7.157  -0.761   5.142 -0.4981  0.5792 -0.5262
   63SAPC  H14Y 5111   7.322  -0.825   5.153 -2.0985 -1.2512  1.7341
   63SAPC  C315 5112   7.294  -0.718   4.972  1.0339  0.3011  0.2265
   63SAPC  H15X 5113   7.270  -0.816   4.925  1.5292  0.6435 -0.7692
   63SAPC  H15Y 5114   7.404  -0.702   4.965  0.7912  2.1561  0.0503
   63SAPC  C316 5115   7.210  -0.610   4.898 -0.0374  0.0857  0.1841
   63SAPC  H16X 5116   7.239  -0.506   4.922  0.5684  0.4386 -1.9422
   63SAPC  H16Y 5117   7.101  -0.621   4.919  0.0314  1.2550  1.3028
   63SAPC  C317 5118   7.218  -0.613   4.738  0.0626  0.4866  0.3866
   63SAPC  H17X 5119   7.133  -0.558   4.695  0.7408  0.4086 -1.1108
   63SAPC  H17Y 5120   7.195  -0.717   4.707  1.2298  0.9084 -2.1073
   63SAPC  C318 5121   7.339  -0.558   4.676 -1.0122 -0.7110  0.6896
   63SAPC  H18X 5122   7.428  -0.607   4.720 -1.1389  0.2897  2.1420
   63SAPC  H18Y 5123   7.358  -0.450   4.694  0.3503 -0.9661  0.8884
   63SAPC  H18Z 5124   7.346  -0.565   4.566 -1.4701  1.1810  0.5030
   64SAPC     N 5125   1.733   0.888   6.670 -0.5455  0.0919  0.3735
   64SAPC   C12 5126   1.804   0.761   6.723 -0.8945 -0.4221 -0.3445
   64SAPC  H12A 5127   1.755   0.732   6.815 -0.7082 -0.3582 -0.2262
   64SAPC  H12B 5128   1.908   0.781   6.740 -1.4825  2.4693  0.4152
   64SAPC   C13 5129   1.782   0.910   6.532  0.0682  0.1087  0.3358
   64SAPC  H13A 5130   1.726   0.995   6.494  0.4141 -0.3110 -1.1744
   64SAPC  H13B 5131   1.888   0.930   6.541  0.7708 -2.0985 -1.9288
   64SAPC  H13C 5132   1.770   0.833   6.457  0.3050  0.5264 -0.1457
   64SAPC   C14 5133   1.585   0.883   6.654  0.4753 -0.1506  0.7140
   64SAPC  H14A 5134   1.566   0.814   6.573 -0.0350 -0.0290  0.7267
   64SAPC  H14B 5135   1.523   0.854   6.737 -1.3971  0.6685 -0.3295
   64SAPC  H14C 5136   1.557   0.982   6.620  2.4173 -0.8157 -3.5123
   64SAPC   C15 5137   1.768   0.999   6.753  0.3081  0.6949 -0.1743
   64SAPC  H15A 5138   1.875   1.004   6.762  0.4566  1.5911 -1.8825
   64SAPC  H15B 5139   1.740   1.096   6.713 -1.0654 -0.4313 -2.1018
   64SAPC  H15C 5140   1.733   0.985   6.854  0.8413  1.5761  0.1505
   64SAPC   C11 5141   1.799   0.632   6.640 -0.2341 -0.5384 -0.3195
   64SAPC  H11A 5142   1.856   0.555   6.695 -0.1707  0.0158  0.3970
   64SAPC  H11B 5143   1.838   0.631   6.536 -1.6558 -0.7873 -0.8745
   64SAPC     P 5144   1.578   0.508   6.750  0.1669 -0.2714  0.1640
   64SAPC   O13 5145   1.592   0.569   6.885 -0.0874  0.9305  0.6851
   64SAPC   O14 5146   1.443   0.494   6.695  0.3944  0.4191  0.5619
   64SAPC   O12 5147   1.659   0.583   6.637 -0.6145  0.6395 -0.0869
   64SAPC   O11 5148   1.645   0.372   6.761 -0.1511  0.2603  0.4287
   64SAPC    C1 5149   1.712   0.303   6.654  0.4416  0.3436  0.1230
   64SAPC    HA 5150   1.732   0.377   6.573  0.5649 -0.2758 -0.4271
   64SAPC    HB 5151   1.811   0.273   6.693  1.0113  1.6674 -0.2623
   64SAPC    C2 5152   1.626   0.188   6.590 -0.6490 -0.4451 -0.3420
   64SAPC    HS 5153   1.702   0.127   6.535  2.5650  0.0687  3.1411
   64SAPC   O21 5154   1.524   0.245   6.511 -0.0763  0.1555 -0.0734
   64SAPC   C21 5155   1.556   0.263   6.380 -0.0905  0.1403  0.8639
   64SAPC   O22 5156   1.664   0.240   6.334 -0.3440 -0.0739  0.3366
   64SAPC   C22 5157   1.430   0.306   6.307 -0.3215 -0.2080 -0.1560
   64SAPC   H2R 5158   1.356   0.225   6.324  0.7517 -0.7284  2.6885
   64SAPC   H2S 5159   1.398   0.402   6.354  0.9847 -0.0704  0.4858
   64SAPC    C3 5160   1.566   0.091   6.694 -0.6803 -0.4412 -0.1969
   64SAPC    HX 5161   1.518   0.147   6.777  1.6136 -0.3988  1.1875
   64SAPC    HY 5162   1.652   0.036   6.737  0.1194  0.1768 -0.9972
   64SAPC   O31 5163   1.466   0.007   6.633 -0.5226 -0.0685 -0.5147
   64SAPC   C31 5164   1.506  -0.116   6.586 -0.1599  0.0670  0.1611
   64SAPC   O32 5165   1.604  -0.173   6.629 -0.0288 -0.2212  0.4495
   64SAPC   C32 5166   1.406  -0.174   6.489  0.2510 -0.0602 -0.5098
   64SAPC   H2X 5167   1.333  -0.091   6.474  1.3021  1.2754  1.2118
   64SAPC   H2Y 5168   1.367  -0.258   6.550  0.6453  0.2358  0.1711
   64SAPC   C23 5169   1.450   0.318   6.156 -0.1897  0.1042  0.4154
   64SAPC   H3R 5170   1.465   0.213   6.122 -0.4900  0.1366  0.1766
   64SAPC   H3S 5171   1.540   0.382   6.150 -0.2144  0.3465  2.1389
   64SAPC   C24 5172   1.339   0.378   6.063  0.3341 -0.1717 -0.1209
   64SAPC   H4R 5173   1.239   0.343   6.098 -0.0279 -1.6679 -2.4622
   64SAPC   H4S 5174   1.355   0.332   5.963 -3.5044  0.4228 -1.1757
   64SAPC   C25 5175   1.333   0.525   6.057  0.5180 -0.4411 -0.3352
   64SAPC   H5R 5176   1.344   0.579   6.152 -0.6598  3.1530 -2.0825
   64SAPC   C26 5177   1.324   0.598   5.942  0.2845 -0.1312  0.1975
   64SAPC   H6R 5178   1.333   0.708   5.941  1.2367 -0.2051  0.0915
   64SAPC   C27 5179   1.317   0.540   5.804 -0.3974  0.1024 -0.0954
   64SAPC   H7R 5180   1.306   0.430   5.796  2.6481 -0.3214  0.3832
   64SAPC   H7S 5181   1.419   0.557   5.764  0.0954 -1.0374  0.6333
   64SAPC   C28 5182   1.216   0.612   5.719  0.4805 -0.1608  0.0793
   64SAPC   H8R 5183   1.123   0.637   5.773  1.2724  0.3296  1.2427
   64SAPC   C29 5184   1.230   0.628   5.590 -0.5170 -0.7868  0.4568
   64SAPC   H9R 5185   1.154   0.681   5.531 -1.0014 -0.6952  1.1454
   64SAPC  C210 5186   1.350   0.580   5.503  0.4563  0.5565 -0.7189
   64SAPC  H10R 5187   1.337   0.471   5.485 -0.6695  0.5877 -0.2129
   64SAPC  H10S 5188   1.441   0.587   5.566 -0.0350  1.9808 -0.1340
   64SAPC  C211 5189   1.379   0.652   5.372 -0.0469  0.0010 -0.7892
   64SAPC  H11R 5190   1.434   0.743   5.401 -0.9734 -0.1207  1.5932
   64SAPC  C212 5191   1.360   0.612   5.242  0.1405  0.2516  0.6336
   64SAPC  H12R 5192   1.405   0.676   5.165  2.5393 -2.6774 -0.6079
   64SAPC  C213 5193   1.305   0.481   5.197  0.4310 -0.0809  0.0458
   64SAPC  H13R 5194   1.277   0.416   5.282  2.1695 -0.2602  0.5236
   64SAPC  H13S 5195   1.387   0.420   5.154  0.4797  0.9106 -1.3552
   64SAPC  C214 5196   1.189   0.476   5.099  0.0539  0.0878 -0.1910
   64SAPC  H14R 5197   1.087   0.501   5.134  0.8175  0.9383  1.5703
   64SAPC  C215 5198   1.196   0.420   4.975 -0.2472 -0.2522  0.3877
   64SAPC  H15R 5199   1.099   0.417   4.924 -1.3655 -0.2220  2.3884
   64SAPC  C216 5200   1.312   0.368   4.905 -0.0710  0.7931  0.0434
   64SAPC  H16R 5201   1.323   0.264   4.943 -0.6358  0.9127  0.5522
   64SAPC  H16S 5202   1.395   0.440   4.922  0.1715  0.6192 -0.4233
   64SAPC  C217 5203   1.299   0.346   4.755  0.0629  0.3411  0.4290
   64SAPC  H17R 5204   1.388   0.303   4.705  0.9346 -0.8031  2.8090
   64SAPC  H17S 5205   1.285   0.447   4.712  4.5286  0.8227 -0.4514
   64SAPC  C218 5206   1.176   0.259   4.716  0.4798 -0.3782  0.3262
   64SAPC  H18R 5207   1.075   0.290   4.749 -0.5456 -1.1633 -1.8942
   64SAPC  H18S 5208   1.197   0.158   4.756  1.3847 -0.4655 -0.3362
   64SAPC  C219 5209   1.147   0.226   4.569  0.1411  0.5609  0.4764
   64SAPC  H19R 5210   1.112   0.306   4.500 -0.5495 -0.2624 -0.1353
   64SAPC  H19S 5211   1.066   0.151   4.579 -0.2078  1.2424  4.7234
   64SAPC  C220 5212   1.267   0.148   4.514  0.1135  0.3084  0.6941
   64SAPC  H20R 5213   1.246   0.113   4.411  0.5652 -1.8098  1.2737
   64SAPC  H20S 5214   1.264   0.052   4.571 -1.3855 -0.1151 -0.0478
   64SAPC  H20T 5215   1.357   0.212   4.506 -1.0316  1.7530 -1.9893
   64SAPC   C33 5216   1.466  -0.222   6.361  0.0304 -0.1594  0.8374
   64SAPC   H3X 5217   1.560  -0.278   6.377  0.8721  0.6693 -0.9256
   64SAPC   H3Y 5218   1.485  -0.137   6.292  0.3995 -0.6233  0.3670
   64SAPC   C34 5219   1.358  -0.306   6.291  0.5472 -0.2743 -0.4703
   64SAPC   H4X 5220   1.378  -0.302   6.182 -0.6494 -0.8667 -0.7289
   64SAPC   H4Y 5221   1.259  -0.260   6.311  0.9894 -0.0585  1.4453
   64SAPC   C35 5222   1.361  -0.457   6.342 -0.1363  0.5852 -0.1596
   64SAPC   H5X 5223   1.283  -0.516   6.290 -1.0457 -0.3969  2.1513
   64SAPC   H5Y 5224   1.344  -0.461   6.452  0.0972  0.0126 -0.1388
   64SAPC   C36 5225   1.494  -0.535   6.316  0.9290 -0.2526 -0.2118
   64SAPC   H6X 5226   1.476  -0.643   6.335 -1.5585 -0.1125 -1.4106
   64SAPC   H6Y 5227   1.562  -0.495   6.394 -0.9475  0.2763  1.2500
   64SAPC   C37 5228   1.561  -0.512   6.181  0.8123 -0.0850  0.5050
   64SAPC   H7X 5229   1.666  -0.547   6.191  0.5305 -1.0345  0.2714
   64SAPC   H7Y 5230   1.555  -0.407   6.144  1.1775 -0.0628  0.5019
   64SAPC   C38 5231   1.487  -0.596   6.077  0.1479 -0.1548  0.4089
   64SAPC   H8X 5232   1.384  -0.553   6.071  0.4564  0.6850  0.8666
   64SAPC   H8Y 5233   1.480  -0.702   6.107  0.3265 -0.8642 -1.8856
   64SAPC   C39 5234   1.538  -0.583   5.934  0.3000  0.1977  0.0987
   64SAPC   H9X 5235   1.486  -0.665   5.879 -0.7147  0.1423  1.0890
   64SAPC   H9Y 5236   1.648  -0.597   5.935  0.3627  0.5976 -0.5788
   64SAPC  C310 5237   1.500  -0.443   5.868  0.3317 -0.3670  0.4566
   64SAPC  H10X 5238   1.542  -0.357   5.924  0.6309 -0.2348  0.0409
   64SAPC  H10Y 5239   1.393  -0.419   5.855  0.3000 -0.3181  0.7960
   64SAPC  C311 5240   1.560  -0.444   5.728 -0.2604 -0.3508 -0.3414
   64SAPC  H11X 5241   1.537  -0.546   5.691 -1.9035 -0.1113 -0.0443
   64SAPC  H11Y 5242   1.671  -0.435   5.731 -0.1479 -1.2605 -1.3126
   64SAPC  C312 5243   1.497  -0.332   5.640  0.4182  0.0734  0.5940
   64SAPC  H12X 5244   1.547  -0.233   5.643 -2.0200  1.3624  1.7126
   64SAPC  H12Y 5245   1.388  -0.320   5.656 -0.2092  0.3369 -2.9261
   64SAPC  C313 5246   1.496  -0.379   5.492  0.2754  0.2566 -0.3586
   64SAPC  H13X 5247   1.416  -0.453   5.471  0.3891  0.1784 -0.5123
   64SAPC  H13Y 5248   1.586  -0.442   5.475 -0.5306 -0.5432 -1.9073
   64SAPC  C314 5249   1.509  -0.276   5.387 -0.4653  0.4167  0.7277
   64SAPC  H14X 5250   1.587  -0.208   5.428  2.2118 -1.5000 -0.8790
   64SAPC  H14Y 5251   1.415  -0.219   5.370 -1.4259 -0.7115  2.0112
   64SAPC  C315 5252   1.564  -0.352   5.258  0.0327  0.4552  0.8632
   64SAPC  H15X 5253   1.631  -0.435   5.286 -1.4605 -1.1343 -0.1015
   64SAPC  H15Y 5254   1.636  -0.285   5.206  1.6746 -0.2077  2.2038
   64SAPC  C316 5255   1.450  -0.407   5.174  0.1825 -0.2388  0.7258
   64SAPC  H16X 5256   1.381  -0.322   5.151  0.2564 -0.1630  0.7853
   64SAPC  H16Y 5257   1.387  -0.482   5.225 -1.9303  0.4846 -0.7018
   64SAPC  C317 5258   1.485  -0.481   5.043 -0.6465 -0.0408  0.3189
   64SAPC  H17X 5259   1.524  -0.584   5.056  0.2999  0.2048 -0.4729
   64SAPC  H17Y 5260   1.563  -0.416   4.999 -0.9121  1.7224  2.2773
   64SAPC  C318 5261   1.371  -0.488   4.943 -0.4797 -0.2014 -0.4269
   64SAPC  H18X 5262   1.399  -0.513   4.838  1.4448 -0.4551  0.1236
   64SAPC  H18Y 5263   1.323  -0.388   4.949  1.2383  0.6509 -0.4614
   64SAPC  H18Z 5264   1.294  -0.553   4.991  0.9191 -0.2843  1.8309
   65SAPC     N 5265   6.172   2.110   1.777  0.2313  0.3818  0.3821
   65SAPC   C12 5266   6.041   2.171   1.721  0.5631 -0.8525  0.2831
   65SAPC  H12A 5267   6.061   2.184   1.615  0.7204  1.7316  0.5640
   65SAPC  H12B 5268   6.031   2.273   1.754 -0.0739 -0.7080 -0.3275
   65SAPC   C13 5269   6.193   1.969   1.728  0.7218 -0.3331 -0.0088
   65SAPC  H13A 5270   6.275   1.923   1.781  0.9143  1.2177  1.0792
   65SAPC  H13B 5271   6.110   1.901   1.743  0.3063  0.0213 -0.6512
   65SAPC  H13C 5272   6.200   1.966   1.620 -2.2979 -0.4730 -0.2634
   65SAPC   C14 5273   6.294   2.180   1.732 -0.2195 -0.0962  0.1510
   65SAPC  H14A 5274   6.301   2.283   1.763  0.4436 -1.1471  3.8845
   65SAPC  H14B 5275   6.379   2.123   1.765 -2.0112 -3.1661 -0.1363
   65SAPC  H14C 5276   6.292   2.193   1.625 -1.0578  1.4862  0.3361
   65SAPC   C15 5277   6.178   2.105   1.924 -1.1700  0.1656 -0.2318
   65SAPC  H15A 5278   6.094   2.049   1.961 -1.1987 -0.5824 -1.3651
   65SAPC  H15B 5279   6.267   2.057   1.962 -0.0160  2.3579 -0.0102
   65SAPC  H15C 5280   6.176   2.207   1.960 -2.3032  0.1252 -0.1591
   65SAPC   C11 5281   5.907   2.107   1.750  0.5611  0.0314 -0.2497
   65SAPC  H11A 5282   5.908   2.007   1.702  0.4015  0.1210 -0.4419
   65SAPC  H11B 5283   5.818   2.154   1.701 -0.8617 -1.2477  1.0147
   65SAPC     P 5284   5.827   2.234   1.958 -0.2952  0.3670  0.1003
   65SAPC   O13 5285   5.868   2.359   1.885 -0.6537  0.1540  0.4654
   65SAPC   O14 5286   5.684   2.214   1.990  0.3096 -0.2591  0.1030
   65SAPC   O12 5287   5.881   2.102   1.890  0.3593 -0.6782  0.0725
   65SAPC   O11 5288   5.892   2.229   2.106  0.0209  0.1635 -0.0670
   65SAPC    C1 5289   5.877   2.109   2.187 -0.5348  0.1957 -0.3378
   65SAPC    HA 5290   5.795   2.038   2.162  1.1676 -1.9365 -0.1911
   65SAPC    HB 5291   5.967   2.048   2.164 -1.2044 -0.9992  0.0725
   65SAPC    C2 5292   5.873   2.141   2.341 -0.1566  0.1577  0.1766
   65SAPC    HS 5293   5.787   2.206   2.368 -0.2285 -0.2219  0.8834
   65SAPC   O21 5294   6.000   2.195   2.359 -0.3602 -0.2546  0.2920
   65SAPC   C21 5295   6.015   2.287   2.451  0.3697  0.0320  0.2103
   65SAPC   O22 5296   5.923   2.343   2.510 -0.4159 -0.5245 -0.4197
   65SAPC   C22 5297   6.165   2.302   2.469 -0.7915  0.6108 -0.3577
   65SAPC   H2R 5298   6.186   2.280   2.576 -0.2303 -1.9250 -0.9396
   65SAPC   H2S 5299   6.223   2.238   2.400 -0.5096  0.7196 -0.2243
   65SAPC    C3 5300   5.867   2.018   2.437 -0.1192  0.7172 -0.1137
   65SAPC    HX 5301   5.961   1.962   2.417 -1.2340 -1.7440  1.1960
   65SAPC    HY 5302   5.791   1.943   2.408  0.3029  0.8823 -1.7950
   65SAPC   O31 5303   5.848   2.059   2.571 -0.1132  0.4388 -0.4902
   65SAPC   C31 5304   5.863   1.959   2.660  0.1877  0.2135  0.1307
   65SAPC   O32 5305   5.902   1.848   2.629  0.0274  0.1950  0.4788
   65SAPC   C32 5306   5.819   2.003   2.800  0.2239 -0.1892  0.6300
   65SAPC   H2X 5307   5.711   2.030   2.793  0.5325  1.2919  1.0970
   65SAPC   H2Y 5308   5.875   2.093   2.834  1.3850 -1.1758  1.4037
   65SAPC   C23 5309   6.195   2.452   2.448 -0.0205  0.0418  0.2279
   65SAPC   H3R 5310   6.157   2.508   2.536  0.7421  0.3482  0.3704
   65SAPC   H3S 5311   6.147   2.489   2.355  0.2886  0.0476  0.0666
   65SAPC   C24 5312   6.350   2.481   2.443  0.3057  0.2090  0.6654
   65SAPC   H4R 5313   6.381   2.459   2.338 -1.4162  0.1757  0.1381
   65SAPC   H4S 5314   6.410   2.418   2.512 -0.4625  0.7414  1.8528
   65SAPC   C25 5315   6.384   2.625   2.453  0.8145  0.2110  0.4316
   65SAPC   H5R 5316   6.373   2.681   2.359 -1.5852 -0.8193  0.0304
   65SAPC   C26 5317   6.400   2.695   2.568 -0.4422  0.0197  0.0030
   65SAPC   H6R 5318   6.430   2.801   2.561  1.8436 -0.4535  1.5329
   65SAPC   C27 5319   6.417   2.647   2.714  0.4877 -0.0712  0.1952
   65SAPC   H7R 5320   6.523   2.648   2.749  0.1316  0.1952  1.2817
   65SAPC   H7S 5321   6.387   2.542   2.734  2.9563 -0.4663  2.3007
   65SAPC   C28 5322   6.331   2.722   2.814  0.4046 -0.0888 -0.1144
   65SAPC   H8R 5323   6.297   2.821   2.782  3.3616  2.4240  3.6182
   65SAPC   C29 5324   6.266   2.688   2.927 -0.2085 -0.4035 -0.1031
   65SAPC   H9R 5325   6.205   2.765   2.976 -0.9457  0.4963 -2.3413
   65SAPC  C210 5326   6.283   2.557   2.989  0.5393  0.2287 -0.4461
   65SAPC  H10R 5327   6.373   2.563   3.054 -0.8102 -1.0168  1.6572
   65SAPC  H10S 5328   6.310   2.472   2.922 -0.9754  0.0223 -0.8275
   65SAPC  C211 5329   6.172   2.513   3.078  0.1956 -0.5181  0.2988
   65SAPC  H11R 5330   6.100   2.441   3.039 -2.0363  1.8267 -0.1827
   65SAPC  C212 5331   6.154   2.562   3.203 -0.0446  0.3830 -0.6381
   65SAPC  H12R 5332   6.075   2.515   3.264 -1.1855  0.2635 -2.1555
   65SAPC  C213 5333   6.238   2.660   3.277  0.6582  0.1842  0.0730
   65SAPC  H13R 5334   6.165   2.729   3.324 -0.5858 -0.5400 -0.7316
   65SAPC  H13S 5335   6.293   2.725   3.206 -0.9468  1.3911 -0.1313
   65SAPC  C214 5336   6.335   2.606   3.376  0.6448 -0.8884 -0.2553
   65SAPC  H14R 5337   6.443   2.598   3.355  0.7226 -3.4870  0.7246
   65SAPC  C215 5338   6.309   2.586   3.500  0.2581  0.3731  0.1732
   65SAPC  H15R 5339   6.384   2.543   3.569 -0.9236 -0.1308  1.1934
   65SAPC  C216 5340   6.173   2.591   3.572  0.5729  0.0465  0.0833
   65SAPC  H16R 5341   6.088   2.577   3.501  1.2767 -0.1597 -0.7419
   65SAPC  H16S 5342   6.163   2.696   3.606 -3.2918 -0.0033 -0.4603
   65SAPC  C217 5343   6.163   2.497   3.700  0.1869 -0.1331 -0.3024
   65SAPC  H17R 5344   6.218   2.404   3.673  1.1226  0.3849 -0.2449
   65SAPC  H17S 5345   6.059   2.466   3.723 -0.2783  1.4666 -0.1384
   65SAPC  C218 5346   6.223   2.562   3.831 -1.0821  0.1766 -0.3925
   65SAPC  H18R 5347   6.332   2.582   3.826 -0.3595 -1.8818  3.3557
   65SAPC  H18S 5348   6.238   2.481   3.906 -2.1494  0.2276 -0.1105
   65SAPC  C219 5349   6.139   2.673   3.901 -0.0256  0.8171  0.1818
   65SAPC  H19R 5350   6.154   2.766   3.843  2.2570  1.0428  1.0426
   65SAPC  H19S 5351   6.190   2.693   3.998 -3.0792  2.1352  1.6508
   65SAPC  C220 5352   5.994   2.642   3.933  0.4561  0.4961  0.2076
   65SAPC  H20R 5353   5.930   2.628   3.843  0.3849 -0.4185  0.3971
   65SAPC  H20S 5354   5.949   2.709   4.009 -0.8188  0.0663 -0.1474
   65SAPC  H20T 5355   5.984   2.543   3.981  0.3339  0.1394 -0.5288
   65SAPC   C33 5356   5.845   1.899   2.907  0.9077  0.5829 -0.1696
   65SAPC   H3X 5357   5.950   1.868   2.890  0.5817  1.0717 -3.9834
   65SAPC   H3Y 5358   5.787   1.807   2.886  0.2907  1.0878 -0.7539
   65SAPC   C34 5359   5.813   1.932   3.050 -0.1408 -0.3410 -0.3023
   65SAPC   H4X 5360   5.714   1.980   3.034 -0.2382  0.0296  1.2359
   65SAPC   H4Y 5361   5.888   2.004   3.090  1.6218 -0.9873 -2.2592
   65SAPC   C35 5362   5.810   1.801   3.138  0.0831  0.7763 -0.0137
   65SAPC   H5X 5363   5.888   1.727   3.110  0.9067  0.5171  2.7341
   65SAPC   H5Y 5364   5.711   1.750   3.136  1.1750 -1.4691  0.8240
   65SAPC   C36 5365   5.830   1.827   3.289 -0.1056 -0.0729  1.0037
   65SAPC   H6X 5366   5.796   1.930   3.315  0.0135  0.6642 -1.5542
   65SAPC   H6Y 5367   5.938   1.830   3.314  0.1419  0.5125 -0.1007
   65SAPC   C37 5368   5.744   1.738   3.384 -0.6227 -0.7393  0.6260
   65SAPC   H7X 5369   5.770   1.630   3.370 -0.1553 -0.6512  0.8044
   65SAPC   H7Y 5370   5.636   1.748   3.357 -1.2335  2.2279  3.5513
   65SAPC   C38 5371   5.750   1.774   3.532  0.7028 -0.3568  0.1071
   65SAPC   H8X 5372   5.667   1.715   3.576  0.0421  0.3294 -0.1899
   65SAPC   H8Y 5373   5.730   1.883   3.548 -0.8974 -0.4355 -1.2030
   65SAPC   C39 5374   5.884   1.748   3.604  0.4965 -0.1956 -0.0197
   65SAPC   H9X 5375   5.965   1.814   3.567 -0.0019 -0.2260 -1.2170
   65SAPC   H9Y 5376   5.915   1.645   3.576 -2.3308 -0.9511 -0.7354
   65SAPC  C310 5377   5.871   1.767   3.753  0.2464  0.5964 -0.7170
   65SAPC  H10X 5378   5.789   1.710   3.801  1.6212  0.0177  1.0662
   65SAPC  H10Y 5379   5.847   1.875   3.770 -0.9007  0.3246 -0.5490
   65SAPC  C311 5380   5.989   1.745   3.837  0.3329  0.2330 -0.2927
   65SAPC  H11X 5381   6.067   1.817   3.806 -0.4320  0.1444 -2.5877
   65SAPC  H11Y 5382   6.022   1.640   3.821 -2.1152 -0.3636 -1.8526
   65SAPC  C312 5383   5.970   1.770   3.988 -0.4050 -0.1255  0.1584
   65SAPC  H12X 5384   5.884   1.704   4.013  0.0370 -0.6564  0.2916
   65SAPC  H12Y 5385   5.939   1.875   4.007 -1.8404 -0.8440  2.1515
   65SAPC  C313 5386   6.089   1.725   4.078 -0.9497 -0.5853 -0.1035
   65SAPC  H13X 5387   6.180   1.784   4.054 -0.0759 -0.9142  2.1123
   65SAPC  H13Y 5388   6.109   1.620   4.047  1.0276  0.3672 -2.2936
   65SAPC  C314 5389   6.060   1.730   4.231 -0.3046  0.2393  0.2682
   65SAPC  H14X 5390   5.963   1.676   4.226  0.8892 -1.9462 -1.2081
   65SAPC  H14Y 5391   6.037   1.828   4.277  0.0626 -0.4440  1.9536
   65SAPC  C315 5392   6.159   1.667   4.324  1.0707 -0.4681 -0.4547
   65SAPC  H15X 5393   6.264   1.701   4.305  0.5861  1.1817 -0.3135
   65SAPC  H15Y 5394   6.138   1.559   4.307 -2.0255 -0.2853  1.4868
   65SAPC  C316 5395   6.130   1.680   4.474  0.5376  0.0424  0.1960
   65SAPC  H16X 5396   6.140   1.787   4.502 -0.9489  0.2399  0.0444
   65SAPC  H16Y 5397   6.209   1.617   4.522  0.5271  0.2406  0.4715
   65SAPC  C317 5398   5.993   1.643   4.514  0.3764 -0.2173  0.8054
   65SAPC  H17X 5399   5.959   1.550   4.464  1.1078 -0.1828  0.2241
   65SAPC  H17Y 5400   5.918   1.719   4.483 -1.3799 -1.6261  1.4273
   65SAPC  C318 5401   5.991   1.612   4.665  0.4863 -0.2088 -0.8897
   65SAPC  H18X 5402   6.045   1.515   4.674  0.2810 -0.3761 -1.4175
   65SAPC  H18Y 5403   5.885   1.597   4.694 -0.6594 -0.0059 -4.5121
   65SAPC  H18Z 5404   6.042   1.689   4.727  0.4335 -0.9640  0.1381
   66SAPC     N 5405   5.201   4.991   1.830  0.1005  0.2923  0.4148
   66SAPC   C12 5406   5.146   4.960   1.972 -0.1633 -0.2751 -0.1762
   66SAPC  H12A 5407   5.142   5.057   2.018  0.1570 -0.3058 -0.0838
   66SAPC  H12B 5408   5.226   4.915   2.029 -1.0411 -1.2103  0.3549
   66SAPC   C13 5409   5.111   5.091   1.765  0.5418  0.1643 -0.3495
   66SAPC  H13A 5410   5.011   5.051   1.763  1.1336 -1.4358  0.3257
   66SAPC  H13B 5411   5.106   5.183   1.821 -0.9436 -1.5124  2.4880
   66SAPC  H13C 5412   5.145   5.100   1.663 -3.0861  0.0527 -1.7314
   66SAPC   C14 5413   5.337   5.041   1.833 -0.3261  0.1501 -0.2714
   66SAPC  H14A 5414   5.352   5.132   1.889 -0.4247  0.5364 -0.8588
   66SAPC  H14B 5415   5.401   4.963   1.871  0.4202  0.0669 -1.6294
   66SAPC  H14C 5416   5.378   5.053   1.733 -2.5284  2.5246 -0.9776
   66SAPC   C15 5417   5.194   4.865   1.752  0.1314  0.4189 -0.1604
   66SAPC  H15A 5418   5.271   4.802   1.793 -0.3521 -0.1329 -0.0927
   66SAPC  H15B 5419   5.100   4.813   1.765 -0.1281  1.4123  2.7179
   66SAPC  H15C 5420   5.228   4.882   1.651  0.0550  0.3164 -0.2035
   66SAPC   C11 5421   5.012   4.879   1.996  0.0314  0.0541 -0.2657
   66SAPC  H11A 5422   4.939   4.931   1.930  0.4111 -0.9060 -1.4881
   66SAPC  H11B 5423   4.968   4.891   2.097 -1.4070 -1.0774 -0.7187
   66SAPC     P 5424   4.886   4.648   1.982  0.0311  0.1403  0.1013
   66SAPC   O13 5425   4.785   4.698   1.885 -0.6321  0.1204 -0.0024
   66SAPC   O14 5426   4.918   4.508   1.973 -0.1939  0.3094  0.6723
   66SAPC   O12 5427   5.016   4.734   1.959  0.4354 -0.0437  0.0168
   66SAPC   O11 5428   4.830   4.693   2.128  0.1548 -0.6330 -0.0231
   66SAPC    C1 5429   4.871   4.603   2.236 -0.0351 -0.3137 -0.5338
   66SAPC    HA 5430   4.802   4.517   2.246 -0.8270  0.3331 -0.2337
   66SAPC    HB 5431   4.977   4.571   2.227 -0.3063 -0.8654 -1.8859
   66SAPC    C2 5432   4.872   4.673   2.379 -0.1677 -0.3191  0.4253
   66SAPC    HS 5433   4.895   4.599   2.458  1.4281  0.6489  0.9091
   66SAPC   O21 5434   4.735   4.728   2.398 -0.4360 -0.1958  0.6448
   66SAPC   C21 5435   4.701   4.733   2.523  0.0702 -0.8066 -0.6073
   66SAPC   O22 5436   4.756   4.684   2.622  0.0280  0.0726 -0.4922
   66SAPC   C22 5437   4.583   4.825   2.529  0.5394  0.3264  0.9030
   66SAPC   H2R 5438   4.620   4.927   2.503 -0.3100  0.7683  1.3815
   66SAPC   H2S 5439   4.511   4.796   2.449  0.8731  1.3171  0.2276
   66SAPC    C3 5440   4.984   4.787   2.389  0.3091  0.4363 -0.4850
   66SAPC    HX 5441   4.951   4.859   2.311  0.8411  0.8560 -0.3245
   66SAPC    HY 5442   5.084   4.743   2.371 -0.3182 -0.6574 -1.4567
   66SAPC   O31 5443   4.977   4.865   2.502 -0.6824 -0.4277 -0.6486
   66SAPC   C31 5444   5.050   4.815   2.608 -0.4284  0.5325 -0.8629
   66SAPC   O32 5445   5.109   4.709   2.613  0.7781  0.2183  1.1103
   66SAPC   C32 5446   5.049   4.916   2.719  0.1581  0.1554  0.1636
   66SAPC   H2X 5447   4.951   4.968   2.733 -0.5366 -1.6020  2.4625
   66SAPC   H2Y 5448   5.124   4.986   2.676  2.7191 -2.2835  0.3823
   66SAPC   C23 5449   4.516   4.824   2.667  0.1734 -0.1283  0.3267
   66SAPC   H3R 5450   4.523   4.720   2.708 -1.6217  0.5036  2.4212
   66SAPC   H3S 5451   4.410   4.852   2.653  0.8681  1.9474 -1.2052
   66SAPC   C24 5452   4.573   4.927   2.772  0.1521 -0.1743 -0.5846
   66SAPC   H4R 5453   4.580   5.031   2.733 -1.0003 -0.2328 -0.9846
   66SAPC   H4S 5454   4.678   4.896   2.793 -0.8262 -3.2541  0.2480
   66SAPC   C25 5455   4.488   4.932   2.900  0.6344  0.3470 -0.0525
   66SAPC   H5R 5456   4.382   4.956   2.883  0.3254 -1.7038 -1.2757
   66SAPC   C26 5457   4.529   4.902   3.031  0.2440  0.1744  0.9118
   66SAPC   H6R 5458   4.449   4.922   3.104 -1.2149  1.0694 -0.8620
   66SAPC   C27 5459   4.664   4.876   3.086 -0.5882  0.0283 -0.3010
   66SAPC   H7R 5460   4.731   4.819   3.017  1.0479  0.1682  1.1074
   66SAPC   H7S 5461   4.657   4.806   3.172  0.6218  1.2317  0.8095
   66SAPC   C28 5462   4.746   4.987   3.143  0.4205  0.3511 -0.1803
   66SAPC   H8R 5463   4.816   5.024   3.066  0.7629  0.6530  0.2688
   66SAPC   C29 5464   4.733   5.044   3.270 -1.1820  1.1466  0.6168
   66SAPC   H9R 5465   4.799   5.129   3.291  0.4406  0.7129 -2.2291
   66SAPC  C210 5466   4.634   4.996   3.378 -0.0196  0.1692 -0.3775
   66SAPC  H10R 5467   4.555   4.928   3.342 -0.6379  0.4801  0.3648
   66SAPC  H10S 5468   4.577   5.079   3.425 -3.2859 -1.9967 -0.2574
   66SAPC  C211 5469   4.726   4.930   3.481  0.3421  0.5451 -0.1130
   66SAPC  H11R 5470   4.828   4.969   3.487  0.5152 -0.0904  1.7844
   66SAPC  C212 5471   4.708   4.832   3.570  0.2451  1.0969  0.1452
   66SAPC  H12R 5472   4.780   4.798   3.645 -2.5053 -4.0412  0.8919
   66SAPC  C213 5473   4.573   4.761   3.575 -0.9752  0.1483 -0.1474
   66SAPC  H13R 5474   4.595   4.653   3.561 -0.1648  0.0086  1.9644
   66SAPC  H13S 5475   4.508   4.787   3.488 -0.1441 -0.5890 -1.0210
   66SAPC  C214 5476   4.495   4.792   3.703  0.5127  0.1398 -0.1978
   66SAPC  H14R 5477   4.472   4.898   3.723  1.4879  0.5552 -1.1644
   66SAPC  C215 5478   4.460   4.701   3.797  0.3683  0.0322  0.8892
   66SAPC  H15R 5479   4.389   4.734   3.874 -0.2994  0.3960  0.1439
   66SAPC  C216 5480   4.491   4.551   3.781  0.6620 -0.2179  0.6599
   66SAPC  H16R 5481   4.528   4.524   3.680 -1.4855  2.9261 -1.1313
   66SAPC  H16S 5482   4.401   4.490   3.801 -0.8561  1.5030 -0.5857
   66SAPC  C217 5483   4.585   4.509   3.894 -0.0763 -0.0885  0.5616
   66SAPC  H17R 5484   4.673   4.571   3.923  1.0868 -2.1583  1.6927
   66SAPC  H17S 5485   4.635   4.413   3.870  0.0211  0.3361 -1.0553
   66SAPC  C218 5486   4.514   4.484   4.030  0.0770  0.4949 -0.1773
   66SAPC  H18R 5487   4.404   4.484   4.018  0.2644  0.3931 -2.3613
   66SAPC  H18S 5488   4.545   4.561   4.104 -0.2539 -0.8969  1.4810
   66SAPC  C219 5489   4.543   4.344   4.092 -0.1572 -0.2205  0.0288
   66SAPC  H19R 5490   4.653   4.340   4.082 -0.1178 -1.5879  0.8565
   66SAPC  H19S 5491   4.495   4.269   4.026  0.9620 -1.7251  0.8787
   66SAPC  C220 5492   4.500   4.340   4.242  0.3008 -0.3062  0.0803
   66SAPC  H20R 5493   4.529   4.238   4.276 -0.8958  0.1771  2.8335
   66SAPC  H20S 5494   4.389   4.352   4.248  0.2567 -1.2147  1.9789
   66SAPC  H20T 5495   4.558   4.410   4.305 -2.0284  0.7918  1.1161
   66SAPC   C33 5496   5.090   4.842   2.851 -0.0130 -0.6046  0.5169
   66SAPC   H3X 5497   5.095   4.915   2.936 -3.1820  0.2596  0.1028
   66SAPC   H3Y 5498   5.186   4.792   2.832  0.0100 -0.4938  0.3468
   66SAPC   C34 5499   4.987   4.725   2.887 -1.0635  0.1754  0.3696
   66SAPC   H4X 5500   5.013   4.632   2.832  0.5721 -0.3416  1.9287
   66SAPC   H4Y 5501   4.879   4.743   2.863 -1.0019 -1.5812 -1.4872
   66SAPC   C35 5502   5.020   4.685   3.036 -0.4643 -0.1212 -0.5070
   66SAPC   H5X 5503   5.011   4.775   3.100 -0.9254 -0.9310  0.5789
   66SAPC   H5Y 5504   5.125   4.652   3.052  0.5796  3.2885  0.4968
   66SAPC   C36 5505   4.919   4.581   3.090  0.0807  0.7410 -0.1699
   66SAPC   H6X 5506   4.910   4.498   3.018 -2.0313 -0.8951  1.8158
   66SAPC   H6Y 5507   4.820   4.627   3.109 -1.5825 -2.4449 -0.4586
   66SAPC   C37 5508   4.951   4.526   3.231  1.0430  0.4362 -0.1257
   66SAPC   H7X 5509   5.033   4.451   3.235  1.4671  0.9283  2.4288
   66SAPC   H7Y 5510   4.863   4.483   3.284  1.1237  2.2521  1.6174
   66SAPC   C38 5511   4.987   4.643   3.325 -0.4796  1.1165 -0.2898
   66SAPC   H8X 5512   4.902   4.713   3.313 -0.3673  0.8671 -3.8320
   66SAPC   H8Y 5513   5.085   4.678   3.286  1.1645 -1.5141  1.1928
   66SAPC   C39 5514   5.004   4.588   3.461 -0.0362  0.0501 -0.8724
   66SAPC   H9X 5515   4.916   4.526   3.489 -0.3071  1.6680  2.3641
   66SAPC   H9Y 5516   5.008   4.670   3.536 -0.7295 -0.6709 -0.0158
   66SAPC  C310 5517   5.132   4.511   3.489 -0.5660  0.3053 -0.2489
   66SAPC  H10X 5518   5.225   4.569   3.473 -1.0881  1.1053 -0.4078
   66SAPC  H10Y 5519   5.125   4.421   3.424  0.5934 -1.0640  1.4358
   66SAPC  C311 5520   5.133   4.437   3.629  0.2125 -0.1191  1.1034
   66SAPC  H11X 5521   5.214   4.360   3.626  1.7212  1.4110 -0.9942
   66SAPC  H11Y 5522   5.038   4.382   3.644 -0.5038  1.3227  2.1048
   66SAPC  C312 5523   5.154   4.534   3.742 -0.4639 -0.3282 -0.3955
   66SAPC  H12X 5524   5.065   4.598   3.756  0.5303  0.5890  2.4509
   66SAPC  H12Y 5525   5.234   4.608   3.721 -1.2780 -0.0380 -2.6445
   66SAPC  C313 5526   5.189   4.460   3.872 -0.8230  0.2111  0.1156
   66SAPC  H13X 5527   5.229   4.531   3.947 -0.4215 -0.7098  0.7858
   66SAPC  H13Y 5528   5.268   4.383   3.862 -0.3006  0.4956  1.7778
   66SAPC  C314 5529   5.072   4.390   3.941  0.9297 -0.0093 -0.0354
   66SAPC  H14X 5530   5.014   4.323   3.875 -0.1665 -0.4338  1.2995
   66SAPC  H14Y 5531   5.014   4.482   3.963  0.2453 -0.2280 -0.8835
   66SAPC  C315 5532   5.111   4.318   4.071  0.1217  0.0819 -0.1222
   66SAPC  H15X 5533   5.168   4.387   4.137 -0.4601  1.9488 -1.4935
   66SAPC  H15Y 5534   5.175   4.233   4.038 -0.8696 -0.6001 -0.3133
   66SAPC  C316 5535   4.993   4.264   4.150  0.4137  0.2005 -0.1567
   66SAPC  H16X 5536   4.925   4.226   4.070 -0.8256  2.2048 -0.1383
   66SAPC  H16Y 5537   4.938   4.347   4.198 -2.0443 -1.1337 -0.5257
   66SAPC  C317 5538   5.027   4.148   4.242 -0.0214 -0.3806  0.2352
   66SAPC  H17X 5539   4.940   4.141   4.312  1.2441 -1.0825  1.8233
   66SAPC  H17Y 5540   5.112   4.179   4.306 -1.0883  0.0572  1.4983
   66SAPC  C318 5541   5.056   4.017   4.163  1.0872 -1.3530 -0.5373
   66SAPC  H18X 5542   5.083   3.930   4.227 -0.0188 -1.7716 -0.6072
   66SAPC  H18Y 5543   5.137   4.031   4.089  2.3602 -0.7577  0.9020
   66SAPC  H18Z 5544   4.965   3.993   4.105  0.0789 -1.1401  0.8933
   67SAPC     N 5545   0.215   3.602   2.171  0.1059 -0.4591 -0.0475
   67SAPC   C12 5546   0.173   3.482   2.254 -0.4563  0.2255  0.1717
   67SAPC  H12A 5547   0.085   3.503   2.313 -1.0501  0.6806 -0.8431
   67SAPC  H12B 5548   0.254   3.467   2.324  1.5389  2.4246 -1.4932
   67SAPC   C13 5549   0.097   3.678   2.117 -0.8373  0.2114  0.1249
   67SAPC  H13A 5550   0.039   3.606   2.061  1.5871 -0.5079 -1.6158
   67SAPC  H13B 5551   0.027   3.707   2.194 -3.8942  1.4710 -2.9080
   67SAPC  H13C 5552   0.122   3.766   2.060  1.6157  0.2863  1.1990
   67SAPC   C14 5553   0.296   3.689   2.262 -0.6336  0.0560  0.7640
   67SAPC  H14A 5554   0.379   3.631   2.298 -1.0010 -1.7045 -1.0677
   67SAPC  H14B 5555   0.342   3.776   2.217  4.5795 -2.4676  0.4446
   67SAPC  H14C 5556   0.247   3.726   2.351 -0.1402 -1.2979  1.6275
   67SAPC   C15 5557   0.291   3.564   2.057  0.1844  0.4870  0.1357
   67SAPC  H15A 5558   0.347   3.647   2.015  3.1797 -1.4855 -0.0281
   67SAPC  H15B 5559   0.377   3.505   2.085 -0.4087 -0.9679 -0.9694
   67SAPC  H15C 5560   0.230   3.515   1.983 -2.4251  2.0736  1.0923
   67SAPC   C11 5561   0.156   3.354   2.171  0.1095 -0.2308 -0.1041
   67SAPC  H11A 5562   0.090   3.372   2.083 -0.3425 -0.9176  0.0893
   67SAPC  H11B 5563   0.080   3.291   2.223  0.0168  0.4656  0.6217
   67SAPC     P 5564   0.398   3.252   2.214  0.1460  0.3100  0.0143
   67SAPC   O13 5565   0.417   3.102   2.214  0.4507  0.0381  0.0504
   67SAPC   O14 5566   0.511   3.327   2.156  0.4889  0.4505 -0.1797
   67SAPC   O12 5567   0.270   3.281   2.128  0.5542 -0.3282  0.5393
   67SAPC   O11 5568   0.361   3.295   2.359 -0.5007  0.0417 -0.4931
   67SAPC    C1 5569   0.263   3.226   2.436 -0.0592  0.2216  0.0336
   67SAPC    HA 5570   0.181   3.298   2.459  0.7487  1.4140 -0.7021
   67SAPC    HB 5571   0.225   3.132   2.392 -1.0632  0.7474 -0.2382
   67SAPC    C2 5572   0.325   3.192   2.578  0.0538 -0.4441  0.6006
   67SAPC    HS 5573   0.249   3.118   2.611  2.3229 -3.1418  0.1715
   67SAPC   O21 5574   0.322   3.307   2.663 -0.0609  0.3422  0.0879
   67SAPC   C21 5575   0.284   3.300   2.786  0.9973  0.3111 -0.5281
   67SAPC   O22 5576   0.234   3.202   2.843  0.2718  0.1544 -0.0359
   67SAPC   C22 5577   0.303   3.437   2.850 -0.4723  0.1073 -0.4893
   67SAPC   H2R 5578   0.412   3.459   2.841 -0.2151 -1.3158 -1.1815
   67SAPC   H2S 5579   0.243   3.508   2.790  0.4495  1.6516  0.3520
   67SAPC    C3 5580   0.466   3.131   2.570  0.2630  0.5488  0.6017
   67SAPC    HX 5581   0.531   3.212   2.530  0.1466 -0.5516 -2.0173
   67SAPC    HY 5582   0.477   3.064   2.482  1.8013 -0.8081  1.7717
   67SAPC   O31 5583   0.525   3.096   2.697  0.1466  0.0122 -0.2155
   67SAPC   C31 5584   0.472   2.991   2.762 -0.1561  0.1416 -0.6140
   67SAPC   O32 5585   0.375   2.924   2.733  0.7037 -0.1729  0.5006
   67SAPC   C32 5586   0.541   2.989   2.898  0.3525  0.1612  0.2742
   67SAPC   H2X 5587   0.541   3.093   2.936  2.2903  0.4033 -0.2672
   67SAPC   H2Y 5588   0.645   2.952   2.882  0.3588  0.4194 -0.3081
   67SAPC   C23 5589   0.264   3.448   3.005 -0.5432 -0.2944  0.4706
   67SAPC   H3R 5590   0.312   3.369   3.066 -1.8298  0.8579  3.1553
   67SAPC   H3S 5591   0.155   3.439   3.025 -0.2614 -1.3978  1.6250
   67SAPC   C24 5592   0.315   3.577   3.056 -0.0836  0.0412  0.0308
   67SAPC   H4R 5593   0.422   3.582   3.027 -0.4034 -0.1421 -1.2507
   67SAPC   H4S 5594   0.302   3.569   3.166 -2.0978  1.7708 -0.0081
   67SAPC   C25 5595   0.238   3.691   3.004 -0.2231 -0.5230 -0.2482
   67SAPC   H5R 5596   0.175   3.677   2.915  0.4921  2.0015 -1.2364
   67SAPC   C26 5597   0.223   3.809   3.060  0.9439 -0.0550 -0.4763
   67SAPC   H6R 5598   0.170   3.882   2.997  3.0497  1.8498 -0.1694
   67SAPC   C27 5599   0.291   3.857   3.191  0.5086  0.8545  0.8252
   67SAPC   H7R 5600   0.245   3.800   3.274 -2.7916  2.7891  0.4899
   67SAPC   H7S 5601   0.276   3.967   3.193 -0.2611  0.7856 -0.2669
   67SAPC   C28 5602   0.439   3.846   3.184  0.0581 -0.3025 -0.1055
   67SAPC   H8R 5603   0.489   3.881   3.093  3.1013  1.8195  2.1393
   67SAPC   C29 5604   0.515   3.796   3.281 -0.5801 -0.6083 -0.2925
   67SAPC   H9R 5605   0.622   3.818   3.283 -0.5665 -0.6118  2.6951
   67SAPC  C210 5606   0.467   3.742   3.415 -1.0034 -0.4473 -0.5410
   67SAPC  H10R 5607   0.386   3.806   3.456  1.5260  1.9247  1.0231
   67SAPC  H10S 5608   0.552   3.760   3.484 -2.1601 -0.8467  1.0291
   67SAPC  C211 5609   0.439   3.594   3.431  0.0897 -0.2439 -0.3945
   67SAPC  H11R 5610   0.392   3.556   3.339 -0.2797 -0.2505 -0.2061
   67SAPC  C212 5611   0.472   3.510   3.535  0.1859 -0.3303 -0.1549
   67SAPC  H12R 5612   0.444   3.404   3.531  1.5001 -0.7345  0.5910
   67SAPC  C213 5613   0.552   3.543   3.658  0.7541  0.2257 -0.2466
   67SAPC  H13R 5614   0.477   3.577   3.733  1.4498  1.0806  0.0916
   67SAPC  H13S 5615   0.629   3.623   3.648 -0.3266  1.3777  0.3258
   67SAPC  C214 5616   0.610   3.418   3.712  0.2120  0.2487  0.3883
   67SAPC  H14R 5617   0.691   3.375   3.651  0.1495 -1.3364  1.3769
   67SAPC  C215 5618   0.577   3.340   3.811  0.1356  0.4828  0.0104
   67SAPC  H15R 5619   0.644   3.258   3.843 -1.8422 -2.0080 -1.8580
   67SAPC  C216 5620   0.477   3.360   3.916  0.3111 -0.1819 -0.5364
   67SAPC  H16R 5621   0.458   3.257   3.953  2.5609 -0.5746 -0.3341
   67SAPC  H16S 5622   0.385   3.402   3.869 -0.7639 -1.7456  0.0991
   67SAPC  C217 5623   0.509   3.450   4.036  0.7768  0.0834 -0.0083
   67SAPC  H17R 5624   0.561   3.541   3.999 -2.5389  1.3153 -2.1000
   67SAPC  H17S 5625   0.582   3.404   4.107  0.0243  2.2452  2.3336
   67SAPC  C218 5626   0.386   3.505   4.116 -1.0925  0.5821  0.1289
   67SAPC  H18R 5627   0.333   3.581   4.055 -0.6028  1.0368  0.2591
   67SAPC  H18S 5628   0.415   3.552   4.212 -0.5566 -1.0632  0.8219
   67SAPC  C219 5629   0.295   3.392   4.175 -0.2076 -0.1238 -0.1065
   67SAPC  H19R 5630   0.250   3.346   4.084  0.2190  1.6174 -1.2415
   67SAPC  H19S 5631   0.221   3.426   4.251  0.7765  1.7343  0.0724
   67SAPC  C220 5632   0.386   3.282   4.239  0.4809 -0.2666 -0.2183
   67SAPC  H20R 5633   0.477   3.327   4.285  3.4681 -2.6268 -3.3469
   67SAPC  H20S 5634   0.425   3.213   4.162 -1.1344  0.0813 -1.4064
   67SAPC  H20T 5635   0.330   3.223   4.314 -1.7826  1.4278 -0.4751
   67SAPC   C33 5636   0.480   2.892   3.004  0.1620 -0.1256  0.1839
   67SAPC   H3X 5637   0.485   2.796   2.948  0.7263  0.5297 -0.9199
   67SAPC   H3Y 5638   0.372   2.909   3.021  0.1790 -0.9859  1.2848
   67SAPC   C34 5639   0.551   2.886   3.143  0.6645  0.0233 -0.0024
   67SAPC   H4X 5640   0.497   2.950   3.217  1.2415 -1.7984  2.0878
   67SAPC   H4Y 5641   0.661   2.895   3.137  0.7679 -1.2724 -0.2751
   67SAPC   C35 5642   0.556   2.746   3.199 -0.1704  0.5075  0.0367
   67SAPC   H5X 5643   0.605   2.755   3.298 -0.1747  0.3985  0.0485
   67SAPC   H5Y 5644   0.624   2.681   3.140  0.2607 -0.4167  1.5174
   67SAPC   C36 5645   0.417   2.685   3.230 -0.4460  0.0536 -0.3589
   67SAPC   H6X 5646   0.368   2.648   3.137  0.0072 -0.8925 -0.2433
   67SAPC   H6Y 5647   0.351   2.762   3.274 -0.2925 -1.2660  2.3922
   67SAPC   C37 5648   0.418   2.569   3.330 -0.3617 -0.2082  0.3076
   67SAPC   H7X 5649   0.508   2.509   3.307 -0.3153  0.6373 -1.9315
   67SAPC   H7Y 5650   0.330   2.502   3.316  1.3141 -2.4316 -0.1188
   67SAPC   C38 5651   0.418   2.626   3.470  0.4240  0.1256 -0.5083
   67SAPC   H8X 5652   0.338   2.700   3.489 -1.1837 -1.5940 -0.2034
   67SAPC   H8Y 5653   0.515   2.676   3.488  1.0468 -0.8243 -1.1246
   67SAPC   C39 5654   0.376   2.515   3.569  0.3292 -0.1799  0.2049
   67SAPC   H9X 5655   0.439   2.429   3.539  0.8993 -0.0857  1.0982
   67SAPC   H9Y 5656   0.277   2.464   3.557 -0.0012  0.4581  0.1779
   67SAPC  C310 5657   0.402   2.551   3.713  0.5942  0.9949  0.0933
   67SAPC  H10X 5658   0.349   2.642   3.748  1.5368  1.3725  0.5590
   67SAPC  H10Y 5659   0.509   2.580   3.720  1.5448 -2.1201  0.0569
   67SAPC  C311 5660   0.373   2.435   3.801 -0.0240 -0.2989 -0.0540
   67SAPC  H11X 5661   0.410   2.341   3.756  2.6395  1.4964 -1.9899
   67SAPC  H11Y 5662   0.266   2.425   3.829  0.1717  0.9511  1.2531
   67SAPC  C312 5663   0.438   2.448   3.944  0.5161  0.0581 -0.9598
   67SAPC  H12X 5664   0.409   2.544   3.991  0.4126  0.3846 -1.6798
   67SAPC  H12Y 5665   0.548   2.461   3.938  0.3146  3.1421  0.2533
   67SAPC  C313 5666   0.395   2.348   4.054 -0.1753 -0.2164  0.7461
   67SAPC  H13X 5667   0.467   2.366   4.137 -0.3336  1.1341  0.6193
   67SAPC  H13Y 5668   0.405   2.250   4.004  3.2364 -0.7584  2.2252
   67SAPC  C314 5669   0.259   2.367   4.118 -0.2995 -0.2420 -0.3530
   67SAPC  H14X 5670   0.184   2.337   4.041  0.2697 -0.2761 -0.8996
   67SAPC  H14Y 5671   0.235   2.475   4.124  0.6363  0.0005 -0.8382
   67SAPC  C315 5672   0.247   2.305   4.255  0.8086  0.1458  0.6223
   67SAPC  H15X 5673   0.344   2.273   4.299  0.7206  0.7588  1.2700
   67SAPC  H15Y 5674   0.186   2.212   4.259  0.7461  0.2049  1.0833
   67SAPC  C316 5675   0.176   2.401   4.359 -0.4294 -0.3480  0.5246
   67SAPC  H16X 5676   0.157   2.341   4.451 -2.6375 -1.3517 -0.5208
   67SAPC  H16Y 5677   0.079   2.419   4.308  0.8022  1.2650 -1.4251
   67SAPC  C317 5678   0.259   2.526   4.391  0.7158  0.0502 -0.2362
   67SAPC  H17X 5679   0.196   2.594   4.452  0.6744 -1.1233  1.0600
   67SAPC  H17Y 5680   0.276   2.568   4.289  1.0415 -0.8194 -0.5564
   67SAPC  C318 5681   0.395   2.492   4.450  0.2234  1.0786  0.1684
   67SAPC  H18X 5682   0.475   2.466   4.377  1.9344 -1.1950  2.6195
   67SAPC  H18Y 5683   0.376   2.403   4.514  0.7726  1.0557  0.3035
   67SAPC  H18Z 5684   0.430   2.575   4.515  0.1544 -1.2063  3.4117
   68SAPC     N 5685   2.359   3.135   1.990  0.5919  0.4926  0.6518
   68SAPC   C12 5686   2.285   3.185   2.113  1.1296  0.2553 -0.4408
   68SAPC  H12A 5687   2.312   3.116   2.192 -1.6716 -1.1247 -0.5606
   68SAPC  H12B 5688   2.179   3.181   2.095  0.8437  0.3769  1.1011
   68SAPC   C13 5689   2.295   3.202   1.877  0.0450 -0.5856  0.3541
   68SAPC  H13A 5690   2.195   3.161   1.869 -1.3117  2.7072 -1.2396
   68SAPC  H13B 5691   2.277   3.302   1.912  0.0114 -0.7729  0.8834
   68SAPC  H13C 5692   2.349   3.191   1.785 -0.1122 -2.9516  0.4713
   68SAPC   C14 5693   2.501   3.178   1.991  0.0393  0.2706 -0.1838
   68SAPC  H14A 5694   2.499   3.284   1.967 -2.4771  0.3731  0.2287
   68SAPC  H14B 5695   2.544   3.167   2.089  1.0920  0.2827 -0.6271
   68SAPC  H14C 5696   2.560   3.117   1.924 -0.6653  0.4133 -0.9577
   68SAPC   C15 5697   2.351   2.987   1.968  0.3182 -0.4676 -0.1339
   68SAPC  H15A 5698   2.406   2.936   2.045  0.0280 -2.2779 -1.0878
   68SAPC  H15B 5699   2.256   2.937   1.969 -1.6396  2.8502  2.2384
   68SAPC  H15C 5700   2.384   2.965   1.868 -1.0136 -1.8446 -0.3030
   68SAPC   C11 5701   2.324   3.331   2.158  0.3708  0.0133  0.4387
   68SAPC  H11A 5702   2.432   3.337   2.185  0.8440 -2.2759 -0.6784
   68SAPC  H11B 5703   2.263   3.351   2.248  0.7764  1.7187  0.3774
   68SAPC     P 5704   2.155   3.510   2.061  0.5531 -0.3693 -0.3224
   68SAPC   O13 5705   2.162   3.596   1.948 -0.1280  0.1794  0.5388
   68SAPC   O14 5706   2.041   3.414   2.064  0.8124  0.3124 -0.7635
   68SAPC   O12 5707   2.296   3.434   2.056  0.4405  0.1343 -0.2095
   68SAPC   O11 5708   2.152   3.594   2.197 -0.6426  0.0555  0.2731
   68SAPC    C1 5709   2.264   3.677   2.236  0.2043  0.0184  0.0011
   68SAPC    HA 5710   2.338   3.681   2.154 -1.4301  0.2065 -1.5099
   68SAPC    HB 5711   2.231   3.783   2.243  0.1444 -0.0034  0.0569
   68SAPC    C2 5712   2.337   3.646   2.374  1.0296  0.6374 -0.7512
   68SAPC    HS 5713   2.388   3.742   2.394  0.1822  1.2722 -1.5216
   68SAPC   O21 5714   2.435   3.549   2.365  0.1026  0.7378  0.1888
   68SAPC   C21 5715   2.561   3.581   2.327  0.9375 -0.0422 -0.2763
   68SAPC   O22 5716   2.591   3.694   2.300  0.5335 -0.4763 -0.2501
   68SAPC   C22 5717   2.661   3.472   2.340  0.0458  0.0166 -0.2626
   68SAPC   H2R 5718   2.621   3.368   2.339  3.9712 -1.7130  0.6865
   68SAPC   H2S 5719   2.739   3.487   2.262  1.6401 -2.1558  0.8004
   68SAPC    C3 5720   2.231   3.622   2.485 -0.4726  1.0703  0.7451
   68SAPC    HX 5721   2.174   3.531   2.456 -0.2381  0.5257  1.9447
   68SAPC    HY 5722   2.153   3.701   2.482 -1.2628  0.3190  0.9356
   68SAPC   O31 5723   2.295   3.602   2.614  0.9389  0.1663 -0.3415
   68SAPC   C31 5724   2.340   3.715   2.669 -0.0500 -0.1726 -0.0787
   68SAPC   O32 5725   2.324   3.825   2.616 -0.4363 -0.2217 -0.3339
   68SAPC   C32 5726   2.419   3.697   2.806  0.0564 -0.1228 -0.0801
   68SAPC   H2X 5727   2.506   3.765   2.807  0.2344 -0.3209  1.8910
   68SAPC   H2Y 5728   2.455   3.592   2.793 -0.8629 -0.6531  1.3639
   68SAPC   C23 5729   2.746   3.480   2.469  0.1179  0.1866  0.1237
   68SAPC   H3R 5730   2.732   3.577   2.522  1.1199  0.5294 -0.2212
   68SAPC   H3S 5731   2.852   3.475   2.437 -0.4336 -0.0490 -1.7927
   68SAPC   C24 5732   2.729   3.346   2.548 -0.2194  0.1762 -0.2255
   68SAPC   H4R 5733   2.810   3.344   2.624 -1.0152  1.6445  0.6915
   68SAPC   H4S 5734   2.750   3.267   2.473 -0.4981  0.9047 -1.0924
   68SAPC   C25 5735   2.590   3.323   2.607  0.1144  0.8166  0.6419
   68SAPC   H5R 5736   2.510   3.292   2.538 -0.8798  0.6220  1.8327
   68SAPC   C26 5737   2.562   3.325   2.742  0.3427  0.0697 -0.5760
   68SAPC   H6R 5738   2.458   3.323   2.779  0.7697 -1.2814  0.6373
   68SAPC   C27 5739   2.652   3.362   2.858 -0.1768 -0.5043 -0.2360
   68SAPC   H7R 5740   2.580   3.376   2.942  0.8363  0.7782  0.4753
   68SAPC   H7S 5741   2.692   3.466   2.851 -2.0449  0.1529 -1.9865
   68SAPC   C28 5742   2.766   3.261   2.881  0.2112 -0.0672 -0.4422
   68SAPC   H8R 5743   2.737   3.162   2.843 -1.4679 -0.5929  1.9337
   68SAPC   C29 5744   2.891   3.290   2.931 -0.0496  0.2956  0.3537
   68SAPC   H9R 5745   2.957   3.208   2.962 -1.5483 -0.2649  2.2449
   68SAPC  C210 5746   2.939   3.423   2.982 -0.0733 -0.4873  0.5683
   68SAPC  H10R 5747   2.980   3.422   3.085 -1.9737  1.2512  1.4211
   68SAPC  H10S 5748   2.855   3.493   3.003  0.5806  0.0507  1.4089
   68SAPC  C211 5749   3.029   3.483   2.873 -0.2298 -0.0354 -0.0347
   68SAPC  H11R 5750   2.980   3.499   2.776 -0.1313  1.1878  0.1035
   68SAPC  C212 5751   3.150   3.542   2.890 -0.0450  0.2525 -0.0635
   68SAPC  H12R 5752   3.201   3.597   2.809  2.6800  0.4754  1.6820
   68SAPC  C213 5753   3.219   3.570   3.024  0.3392 -0.3805 -0.1340
   68SAPC  H13R 5754   3.146   3.541   3.102  1.2081 -2.0485  0.1135
   68SAPC  H13S 5755   3.214   3.681   3.029  0.0893 -0.2832 -1.8585
   68SAPC  C214 5756   3.352   3.522   3.058 -0.4509  0.2385 -0.0826
   68SAPC  H14R 5757   3.432   3.561   2.994  1.8133 -2.0979  1.1240
   68SAPC  C215 5758   3.380   3.440   3.164  0.7028 -0.4308 -0.1006
   68SAPC  H15R 5759   3.480   3.396   3.176  1.1807  0.5153 -0.4925
   68SAPC  C216 5760   3.280   3.381   3.264 -0.3178 -0.2423  0.3185
   68SAPC  H16R 5761   3.286   3.270   3.266 -0.3923 -0.2678  3.0163
   68SAPC  H16S 5762   3.174   3.412   3.248 -0.2428  0.2924  0.8053
   68SAPC  C217 5763   3.304   3.419   3.410 -0.9739  0.2853 -0.2627
   68SAPC  H17R 5764   3.405   3.388   3.444 -1.0231 -2.2168 -2.1219
   68SAPC  H17S 5765   3.235   3.368   3.480 -1.8865  1.8037 -0.0125
   68SAPC  C218 5766   3.291   3.571   3.425 -0.0784 -0.1168 -0.1405
   68SAPC  H18R 5767   3.202   3.609   3.370 -0.4362 -0.6520  0.0626
   68SAPC  H18S 5768   3.379   3.615   3.374 -0.2823  0.1563 -0.2597
   68SAPC  C219 5769   3.282   3.624   3.566 -0.2824  0.8625  0.7057
   68SAPC  H19R 5770   3.189   3.591   3.618  0.2842 -0.3055  1.0258
   68SAPC  H19S 5771   3.284   3.734   3.551 -1.7006  0.6866 -1.0813
   68SAPC  C220 5772   3.398   3.592   3.662  0.1244 -0.1646 -0.3977
   68SAPC  H20R 5773   3.478   3.663   3.631  0.1471  0.7875  1.6822
   68SAPC  H20S 5774   3.431   3.486   3.665  0.4489 -0.0696  2.4308
   68SAPC  H20T 5775   3.372   3.635   3.761 -3.9710 -0.5735 -1.1521
   68SAPC   C33 5776   2.337   3.713   2.942  0.1005  0.1609 -0.4458
   68SAPC   H3X 5777   2.261   3.633   2.936  0.5334 -0.1862 -1.6966
   68SAPC   H3Y 5778   2.281   3.807   2.958 -1.0954 -0.7594  0.9529
   68SAPC   C34 5779   2.435   3.671   3.063  0.7341  0.2719  0.3276
   68SAPC   H4X 5780   2.518   3.745   3.063  0.4841  0.6181 -1.6480
   68SAPC   H4Y 5781   2.467   3.567   3.041  1.9114  0.6892  0.0063
   68SAPC   C35 5782   2.370   3.671   3.196  0.7474 -0.1067  0.0704
   68SAPC   H5X 5783   2.278   3.609   3.197  0.7147 -0.1121  2.3401
   68SAPC   H5Y 5784   2.347   3.777   3.216  1.7370 -0.1946  1.8411
   68SAPC   C36 5785   2.464   3.612   3.298 -0.3493 -0.3344 -0.2842
   68SAPC   H6X 5786   2.548   3.682   3.319 -2.0737  1.3403  1.4754
   68SAPC   H6Y 5787   2.505   3.516   3.260  1.7393 -0.6226  2.3717
   68SAPC   C37 5788   2.397   3.577   3.433 -0.0006 -0.1292  0.5415
   68SAPC   H7X 5789   2.467   3.508   3.485 -1.0950 -1.2083  0.6243
   68SAPC   H7Y 5790   2.305   3.517   3.418 -0.7452  0.6320  1.9342
   68SAPC   C38 5791   2.366   3.707   3.515 -0.4233 -0.1060 -0.3478
   68SAPC   H8X 5792   2.301   3.777   3.457 -1.5919  0.8485  1.9779
   68SAPC   H8Y 5793   2.467   3.746   3.537 -0.6010  1.4945 -2.0285
   68SAPC   C39 5794   2.283   3.677   3.649 -0.4537 -0.5243 -0.0958
   68SAPC   H9X 5795   2.325   3.599   3.717  1.3964  0.6943  0.2584
   68SAPC   H9Y 5796   2.184   3.643   3.614  0.3029  0.0225 -3.0193
   68SAPC  C310 5797   2.252   3.814   3.724 -0.1517  0.5325 -0.2479
   68SAPC  H10X 5798   2.209   3.899   3.667 -3.2626 -2.1067 -2.2301
   68SAPC  H10Y 5799   2.350   3.853   3.760 -0.0403 -0.0089  0.0417
   68SAPC  C311 5800   2.154   3.792   3.842 -0.9315  0.5208 -0.2832
   68SAPC  H11X 5801   2.181   3.706   3.907  0.6388  2.2220  1.4644
   68SAPC  H11Y 5802   2.058   3.761   3.795 -0.8793 -2.3844  1.2517
   68SAPC  C312 5803   2.133   3.915   3.932 -0.1288  0.0230 -1.6141
   68SAPC  H12X 5804   2.059   3.896   4.012  1.5914  0.6228  0.2003
   68SAPC  H12Y 5805   2.098   4.003   3.874 -0.1866  1.4040  0.4203
   68SAPC  C313 5806   2.265   3.955   4.013 -0.2870 -0.2350 -0.7668
   68SAPC  H13X 5807   2.335   3.983   3.931 -0.3542  1.4069 -0.2981
   68SAPC  H13Y 5808   2.304   3.863   4.063  2.6073  0.2351 -1.9327
   68SAPC  C314 5809   2.246   4.063   4.117 -0.0293 -0.3570  0.0615
   68SAPC  H14X 5810   2.144   4.072   4.159  0.3406  1.0562  0.7274
   68SAPC  H14Y 5811   2.264   4.165   4.076  0.4092 -1.0518 -1.5379
   68SAPC  C315 5812   2.339   4.040   4.240 -0.7217 -0.0977 -0.2906
   68SAPC  H15X 5813   2.441   4.000   4.222 -0.4654  0.7191 -0.7073
   68SAPC  H15Y 5814   2.302   3.967   4.315 -0.2315 -1.5870 -1.4473
   68SAPC  C316 5815   2.356   4.170   4.328  0.4221 -0.1943  0.5557
   68SAPC  H16X 5816   2.255   4.192   4.369  0.5732  1.8699 -0.0658
   68SAPC  H16Y 5817   2.384   4.254   4.261 -0.3298 -0.7415 -0.4899
   68SAPC  C317 5818   2.450   4.170   4.445  0.7721  0.1708  0.5160
   68SAPC  H17X 5819   2.551   4.144   4.407  1.3040  1.5159  0.9702
   68SAPC  H17Y 5820   2.411   4.091   4.513 -0.0437 -2.0526 -2.3259
   68SAPC  C318 5821   2.480   4.302   4.513  0.5355  1.0867  0.0449
   68SAPC  H18X 5822   2.492   4.376   4.431  1.0966 -1.8125 -2.6923
   68SAPC  H18Y 5823   2.571   4.298   4.576 -0.0434 -1.6751  0.8415
   68SAPC  H18Z 5824   2.388   4.318   4.573 -0.5371 -0.3928 -1.1120
   69SAPC     N 5825   2.143   6.688   2.012  0.7269  0.7021  0.1917
   69SAPC   C12 5826   2.069   6.613   2.116  0.3851  0.1453  0.2790
   69SAPC  H12A 5827   2.140   6.566   2.184  3.4308  0.9149 -2.1360
   69SAPC  H12B 5828   2.028   6.529   2.061 -0.1964 -0.0987  1.0691
   69SAPC   C13 5829   2.066   6.704   1.883  0.2005 -0.3532 -0.1754
   69SAPC  H13A 5830   2.127   6.756   1.810 -1.4214 -0.9988 -2.0802
   69SAPC  H13B 5831   2.049   6.606   1.841 -0.9591 -0.0544 -0.4302
   69SAPC  H13C 5832   1.974   6.759   1.894 -1.3196 -2.7965  0.0985
   69SAPC   C14 5833   2.184   6.828   2.044  0.0711  0.0026 -0.0032
   69SAPC  H14A 5834   2.216   6.846   2.146 -2.1770 -1.5173  1.0581
   69SAPC  H14B 5835   2.254   6.864   1.970  0.5449 -1.7295 -0.4533
   69SAPC  H14C 5836   2.097   6.892   2.041 -0.7607 -1.1353 -0.6359
   69SAPC   C15 5837   2.271   6.611   1.988  0.3375 -0.0481  0.2222
   69SAPC  H15A 5838   2.343   6.638   2.064  0.5894 -1.0457  0.3499
   69SAPC  H15B 5839   2.253   6.505   1.982 -1.1561  0.1829  0.2774
   69SAPC  H15C 5840   2.320   6.649   1.899  2.3191 -0.7209  0.9682
   69SAPC   C11 5841   1.951   6.683   2.188  0.3546  0.2547  0.5338
   69SAPC  H11A 5842   1.978   6.783   2.227  2.2115 -0.3171  0.8064
   69SAPC  H11B 5843   1.920   6.619   2.274 -1.9638 -0.7967 -0.9642
   69SAPC     P 5844   1.726   6.586   2.090  0.5060  0.0355 -0.2609
   69SAPC   O13 5845   1.626   6.642   1.996  0.1268  0.7564  0.4637
   69SAPC   O14 5846   1.788   6.456   2.053 -0.5895  0.7349  0.3107
   69SAPC   O12 5847   1.834   6.695   2.104 -0.5235 -0.0757  0.0677
   69SAPC   O11 5848   1.674   6.578   2.242 -0.6578  0.1071 -0.2790
   69SAPC    C1 5849   1.551   6.633   2.281  0.1546 -0.5982  0.7158
   69SAPC    HA 5850   1.557   6.743   2.298 -1.0884  0.2144 -3.0479
   69SAPC    HB 5851   1.474   6.632   2.201  0.2760  1.0972  0.5302
   69SAPC    C2 5852   1.506   6.567   2.407 -0.5051  0.5760 -0.3260
   69SAPC    HS 5853   1.479   6.465   2.371  1.8126  0.2632 -1.3556
   69SAPC   O21 5854   1.400   6.643   2.472  0.6250  0.1465 -0.4402
   69SAPC   C21 5855   1.286   6.644   2.415 -0.2478  0.3102 -0.3121
   69SAPC   O22 5856   1.251   6.585   2.312  0.2088  0.6262 -0.1515
   69SAPC   C22 5857   1.204   6.743   2.502 -0.3233  0.4484 -0.7606
   69SAPC   H2R 5858   1.200   6.698   2.604 -1.0791 -2.7180 -2.0693
   69SAPC   H2S 5859   1.251   6.843   2.509 -3.9585  2.2309  1.4127
   69SAPC    C3 5860   1.624   6.541   2.504  0.2820  0.2666 -0.3346
   69SAPC    HX 5861   1.673   6.638   2.480  1.2319 -0.6927 -2.5335
   69SAPC    HY 5862   1.686   6.455   2.472 -1.4798 -1.0185 -0.4382
   69SAPC   O31 5863   1.585   6.540   2.640 -0.1031  0.2715 -0.3762
   69SAPC   C31 5864   1.503   6.445   2.672  0.6203 -0.1572 -0.0363
   69SAPC   O32 5865   1.483   6.340   2.612  0.7480  0.5270  0.0698
   69SAPC   C32 5866   1.428   6.491   2.800 -0.2740  0.0519  0.1906
   69SAPC   H2X 5867   1.347   6.553   2.756  0.1902 -0.4941 -1.4995
   69SAPC   H2Y 5868   1.500   6.547   2.863  1.8106 -1.1103 -1.0372
   69SAPC   C23 5869   1.071   6.768   2.437  1.2472 -0.7176  0.3452
   69SAPC   H3R 5870   1.029   6.686   2.374 -0.5517  1.8188 -2.0271
   69SAPC   H3S 5871   1.078   6.859   2.373 -1.2455 -0.3079  0.5403
   69SAPC   C24 5872   0.968   6.795   2.545 -0.2554 -0.3629 -0.6493
   69SAPC   H4R 5873   0.966   6.702   2.606  0.8214 -0.2847 -0.4867
   69SAPC   H4S 5874   0.870   6.821   2.500  0.0618  1.2376 -0.4641
   69SAPC   C25 5875   1.003   6.919   2.629 -0.0525 -0.1003  0.4799
   69SAPC   H5R 5876   1.059   7.000   2.579 -0.2191  0.9625  1.9614
   69SAPC   C26 5877   1.000   6.934   2.762 -0.5695  0.1156  0.0757
   69SAPC   H6R 5878   1.035   7.028   2.806 -3.3576  1.2517  0.1044
   69SAPC   C27 5879   0.941   6.837   2.867  0.6810  0.1667  0.9962
   69SAPC   H7R 5880   0.887   6.760   2.808  0.1313  1.5804 -0.4082
   69SAPC   H7S 5881   0.859   6.889   2.919  0.6597  0.6147  0.5211
   69SAPC   C28 5882   1.036   6.769   2.956 -0.1572 -0.1915  0.4579
   69SAPC   H8R 5883   1.115   6.726   2.894  0.6364  3.0617 -1.0359
   69SAPC   C29 5884   1.031   6.743   3.087  0.1533  0.0777 -0.0456
   69SAPC   H9R 5885   1.120   6.699   3.135  0.5663  0.6431 -0.2773
   69SAPC  C210 5886   0.938   6.809   3.190  0.0178 -0.8526  0.0412
   69SAPC  H10R 5887   0.934   6.753   3.286  2.9333 -1.4959 -0.1154
   69SAPC  H10S 5888   0.842   6.799   3.134  0.1870 -2.9001  0.0353
   69SAPC  C211 5889   0.974   6.959   3.220 -0.2440  0.1902  0.0478
   69SAPC  H11R 5890   0.927   7.025   3.145  0.0168  2.6124  1.8830
   69SAPC  C212 5891   1.021   7.015   3.331 -0.8901  0.4150 -0.3599
   69SAPC  H12R 5892   1.026   7.125   3.323  0.8238  0.5374  1.5396
   69SAPC  C213 5893   1.072   6.942   3.457  0.3397 -0.0325  0.1148
   69SAPC  H13R 5894   1.048   6.835   3.443  1.5058 -0.3794  0.6695
   69SAPC  H13S 5895   1.013   6.976   3.545  0.7653  0.2694  0.2866
   69SAPC  C214 5896   1.222   6.961   3.485 -0.3495  0.2722  0.1917
   69SAPC  H14R 5897   1.279   7.004   3.401 -0.7063 -0.4011 -0.4066
   69SAPC  C215 5898   1.276   6.926   3.604 -0.4611  0.6689  0.2166
   69SAPC  H15R 5899   1.379   6.952   3.630 -0.8628  1.7433  0.7740
   69SAPC  C216 5900   1.198   6.880   3.715 -0.0653 -0.1302 -0.5469
   69SAPC  H16R 5901   1.141   6.793   3.677 -0.4198  0.1333 -0.6236
   69SAPC  H16S 5902   1.128   6.960   3.746  0.9351  0.4096  0.3881
   69SAPC  C217 5903   1.297   6.846   3.830  0.1398  0.0809 -0.3106
   69SAPC  H17R 5904   1.355   6.939   3.851 -0.0500  0.1326 -0.0124
   69SAPC  H17S 5905   1.374   6.780   3.785  1.9565  1.8038  0.1148
   69SAPC  C218 5906   1.239   6.781   3.959 -0.5473 -0.1228  0.5963
   69SAPC  H18R 5907   1.173   6.696   3.930 -1.1361  0.8600 -1.1026
   69SAPC  H18S 5908   1.173   6.856   4.007 -2.1192 -0.0917 -1.4775
   69SAPC  C219 5909   1.348   6.717   4.049  0.2345  0.0191  0.1347
   69SAPC  H19R 5910   1.428   6.789   4.076  0.2647 -0.2755  0.8562
   69SAPC  H19S 5911   1.401   6.635   3.996 -1.4427 -0.5746 -0.7212
   69SAPC  C220 5912   1.288   6.656   4.174  0.6379  0.2874 -0.1913
   69SAPC  H20R 5913   1.372   6.609   4.230  0.5144 -2.7266 -2.2694
   69SAPC  H20S 5914   1.217   6.575   4.146  1.1306 -0.0538 -0.4788
   69SAPC  H20T 5915   1.227   6.725   4.236  0.5314 -0.1930  0.2433
   69SAPC   C33 5916   1.359   6.384   2.892  0.1675 -0.4282 -0.4486
   69SAPC   H3X 5917   1.431   6.314   2.941 -1.5027 -0.6589  1.8649
   69SAPC   H3Y 5918   1.305   6.314   2.824 -0.4140  0.3443 -0.8009
   69SAPC   C34 5919   1.271   6.452   3.005 -0.1878  0.6107  1.0000
   69SAPC   H4X 5920   1.219   6.375   3.065  0.3165 -0.7488 -0.2525
   69SAPC   H4Y 5921   1.199   6.522   2.958  0.1569  0.0757 -0.3568
   69SAPC   C35 5922   1.358   6.524   3.110  0.0758  0.2881  0.2171
   69SAPC   H5X 5923   1.354   6.632   3.086  0.1642 -0.5401 -4.3417
   69SAPC   H5Y 5924   1.464   6.502   3.085  0.2040  0.9593  0.1423
   69SAPC   C36 5925   1.327   6.499   3.257 -0.4206  0.1931  0.1205
   69SAPC   H6X 5926   1.353   6.396   3.291  0.2698  0.0563 -0.7859
   69SAPC   H6Y 5927   1.217   6.511   3.267 -0.5930  0.4875 -1.7623
   69SAPC   C37 5928   1.391   6.608   3.338  0.4887  0.1642 -1.2578
   69SAPC   H7X 5929   1.364   6.708   3.298 -1.5186 -0.5364 -1.7871
   69SAPC   H7Y 5930   1.501   6.594   3.345  0.6417 -0.0820 -3.5202
   69SAPC   C38 5931   1.329   6.600   3.484 -0.6659 -0.1614 -0.0446
   69SAPC   H8X 5932   1.223   6.629   3.471  0.1646  2.3619 -2.0192
   69SAPC   H8Y 5933   1.375   6.679   3.547  0.1354 -0.2171 -0.5392
   69SAPC   C39 5934   1.339   6.465   3.559 -0.2063 -0.3925 -0.5892
   69SAPC   H9X 5935   1.445   6.434   3.556 -0.2146 -0.4787 -0.1116
   69SAPC   H9Y 5936   1.274   6.390   3.509 -0.5570 -1.2790  1.0901
   69SAPC  C310 5937   1.295   6.482   3.705 -0.5964 -0.3505  0.7977
   69SAPC  H10X 5938   1.195   6.531   3.703 -1.7084 -2.4846  1.2742
   69SAPC  H10Y 5939   1.357   6.555   3.761  2.5209 -0.2836 -2.3862
   69SAPC  C311 5940   1.290   6.350   3.783  0.2274  0.1180  0.0970
   69SAPC  H11X 5941   1.391   6.305   3.793  1.3723  2.2983 -0.9207
   69SAPC  H11Y 5942   1.227   6.276   3.730 -0.0522 -1.7945  2.8843
   69SAPC  C312 5943   1.236   6.369   3.921 -0.4343 -0.2572  1.3063
   69SAPC  H12X 5944   1.142   6.428   3.915 -0.8147 -0.9713 -0.1914
   69SAPC  H12Y 5945   1.318   6.428   3.967  0.3487 -0.1426 -0.1788
   69SAPC  C313 5946   1.225   6.244   4.015  0.0994  0.6160  0.3631
   69SAPC  H13X 5947   1.292   6.159   3.989  1.1745  1.6644 -0.4012
   69SAPC  H13Y 5948   1.119   6.216   4.003 -0.3259  2.8187 -1.7625
   69SAPC  C314 5949   1.246   6.294   4.153  0.2520 -0.1693 -0.0493
   69SAPC  H14X 5950   1.167   6.368   4.178 -0.1624 -0.0263 -1.6938
   69SAPC  H14Y 5951   1.341   6.352   4.157  0.3775 -0.3266 -0.7033
   69SAPC  C315 5952   1.245   6.194   4.267  0.4195  0.2091  0.5560
   69SAPC  H15X 5953   1.221   6.093   4.230 -0.2661  0.6305 -0.1712
   69SAPC  H15Y 5954   1.163   6.213   4.340 -1.4421  0.9511 -1.6258
   69SAPC  C316 5955   1.380   6.192   4.330  0.5017  0.5111 -0.2788
   69SAPC  H16X 5956   1.411   6.283   4.386  1.9151 -1.4889  2.4414
   69SAPC  H16Y 5957   1.457   6.175   4.251  1.9083 -1.5635  1.4216
   69SAPC  C317 5958   1.398   6.077   4.431  0.4841  0.0350  0.5264
   69SAPC  H17X 5959   1.506   6.072   4.457  0.5505  0.3484  0.3189
   69SAPC  H17Y 5960   1.370   5.991   4.367 -0.0657 -0.1972  1.0700
   69SAPC  C318 5961   1.315   6.081   4.554 -0.0904 -0.2991 -0.4292
   69SAPC  H18X 5962   1.363   6.158   4.618 -1.9226  0.2565  0.3461
   69SAPC  H18Y 5963   1.324   5.988   4.615  3.4544  1.4403  2.0516
   69SAPC  H18Z 5964   1.207   6.099   4.532  0.5704  2.3119 -2.0121
   70SAPC     N 5965   3.299   6.477   1.425  0.3726  1.3348 -0.3229
   70SAPC   C12 5966   3.336   6.428   1.569  0.8567  0.0062  0.8083
   70SAPC  H12A 5967   3.427   6.477   1.603  0.7473  1.8934 -1.3562
   70SAPC  H12B 5968   3.369   6.325   1.573  1.7404  0.2152 -0.4578
   70SAPC   C13 5969   3.315   6.622   1.408 -0.1395 -0.6501 -0.0434
   70SAPC  H13A 5970   3.252   6.671   1.482  2.2897  0.5506  1.3512
   70SAPC  H13B 5971   3.419   6.649   1.421 -0.3444  0.5934 -0.8065
   70SAPC  H13C 5972   3.287   6.657   1.310  0.0684  0.7344  0.3705
   70SAPC   C14 5973   3.395   6.415   1.329  0.1554  0.0435 -0.2501
   70SAPC  H14A 5974   3.361   6.312   1.323 -2.1864  0.7189  0.2120
   70SAPC  H14B 5975   3.378   6.458   1.231  1.2881 -0.8894 -0.8849
   70SAPC  H14C 5976   3.500   6.432   1.346  0.1423 -2.0346  2.6368
   70SAPC   C15 5977   3.158   6.448   1.396  0.9783 -0.7574 -0.7000
   70SAPC  H15A 5978   3.133   6.509   1.310  1.1761  0.1722 -0.1183
   70SAPC  H15B 5979   3.144   6.344   1.372  1.5902 -0.4718 -2.4186
   70SAPC  H15C 5980   3.097   6.491   1.474  1.0283 -0.2876 -0.9165
   70SAPC   C11 5981   3.249   6.454   1.690  0.0901 -0.5559 -0.3581
   70SAPC  H11A 5982   3.292   6.394   1.773 -0.6362 -0.7718 -0.1339
   70SAPC  H11B 5983   3.151   6.407   1.670 -0.0316 -0.9789  1.1151
   70SAPC     P 5984   3.098   6.666   1.719  0.0947  0.0496 -0.3017
   70SAPC   O13 5985   3.127   6.814   1.739 -0.2434  0.7171 -0.0321
   70SAPC   O14 5986   3.013   6.629   1.602 -0.0064 -0.7768 -0.7360
   70SAPC   O12 5987   3.236   6.594   1.709  0.0098  0.3172 -0.5508
   70SAPC   O11 5988   3.029   6.605   1.847 -0.0506 -0.2032 -1.1059
   70SAPC    C1 5989   3.043   6.660   1.978 -0.5905  0.0382 -0.4480
   70SAPC    HA 5990   3.151   6.677   1.997 -0.1444  0.4990 -2.9878
   70SAPC    HB 5991   3.002   6.763   1.983  1.0851  0.6660  1.5740
   70SAPC    C2 5992   2.987   6.577   2.091 -0.2552 -0.0015  0.7423
   70SAPC    HS 5993   3.047   6.484   2.081 -0.6411 -0.1352 -0.5269
   70SAPC   O21 5994   2.847   6.550   2.068  0.2157  0.1617  0.0229
   70SAPC   C21 5995   2.802   6.427   2.097  0.3514 -0.4783 -0.0593
   70SAPC   O22 5996   2.866   6.332   2.137 -0.0453 -0.5617  0.1709
   70SAPC   C22 5997   2.657   6.427   2.061 -0.5400  0.3204 -0.0656
   70SAPC   H2R 5998   2.598   6.519   2.079  0.5406  0.8554  0.8640
   70SAPC   H2S 5999   2.649   6.420   1.950  0.4075  2.0792 -0.2791
   70SAPC    C3 6000   3.011   6.627   2.239  0.4813 -0.1468  0.4801
   70SAPC    HX 6001   2.934   6.704   2.262 -1.0170 -1.1435 -0.9604
   70SAPC    HY 6002   3.113   6.671   2.240  0.1183  0.7036  1.3937
   70SAPC   O31 6003   2.999   6.524   2.337 -0.2280  0.0061 -0.1490
   70SAPC   C31 6004   3.108   6.460   2.369 -0.0203 -0.0508  0.3134
   70SAPC   O32 6005   3.221   6.477   2.335  0.2623 -0.1346  0.2696
   70SAPC   C32 6006   3.063   6.350   2.474 -0.0328  0.0068  0.3276
   70SAPC   H2X 6007   2.984   6.284   2.432  1.3570 -1.7570  0.3834
   70SAPC   H2Y 6008   3.020   6.420   2.549 -2.9684 -1.5370  0.2591
   70SAPC   C23 6009   2.576   6.318   2.137 -0.2423  0.6037 -0.4000
   70SAPC   H3R 6010   2.626   6.219   2.137 -0.7097  0.3023  2.2138
   70SAPC   H3S 6011   2.478   6.307   2.085 -1.6187  4.1810  1.1170
   70SAPC   C24 6012   2.552   6.358   2.279 -0.2037  0.1595 -0.0731
   70SAPC   H4R 6013   2.475   6.437   2.290 -0.9608 -0.6394  0.4888
   70SAPC   H4S 6014   2.643   6.394   2.331  0.2352 -1.3835  0.2954
   70SAPC   C25 6015   2.502   6.237   2.342  0.0695  0.1342 -0.5897
   70SAPC   H5R 6016   2.402   6.198   2.318 -0.5638  0.7186  0.9530
   70SAPC   C26 6017   2.560   6.177   2.447 -0.1057 -0.3752  0.6655
   70SAPC   H6R 6018   2.500   6.092   2.484 -1.3555 -0.2711 -1.0327
   70SAPC   C27 6019   2.695   6.214   2.496  0.9157 -0.0891 -0.2297
   70SAPC   H7R 6020   2.679   6.292   2.574 -2.0995 -0.2191 -0.5967
   70SAPC   H7S 6021   2.767   6.231   2.413  0.0983  1.1948 -0.7147
   70SAPC   C28 6022   2.761   6.101   2.576 -0.7395 -0.5535 -0.2405
   70SAPC   H8R 6023   2.757   6.003   2.525  0.6638 -0.7382 -0.0171
   70SAPC   C29 6024   2.806   6.114   2.698  0.1063  0.1824 -0.0604
   70SAPC   H9R 6025   2.835   6.020   2.748  0.5596 -0.1893 -0.9946
   70SAPC  C210 6026   2.812   6.235   2.792  0.2982 -0.0524  0.0528
   70SAPC  H10R 6027   2.807   6.327   2.729  1.1529 -0.4111 -0.5465
   70SAPC  H10S 6028   2.914   6.231   2.835 -0.0859 -2.4654  0.8432
   70SAPC  C211 6029   2.703   6.235   2.899  0.7047 -0.1974 -0.3951
   70SAPC  H11R 6030   2.605   6.220   2.853  0.3652 -0.6181  0.4468
   70SAPC  C212 6031   2.720   6.244   3.037  0.1989 -0.4028 -0.4899
   70SAPC  H12R 6032   2.633   6.252   3.104 -0.8760 -1.8027 -1.6444
   70SAPC  C213 6033   2.852   6.274   3.099  0.0932  0.2524 -0.7233
   70SAPC  H13R 6034   2.907   6.337   3.026  2.2766 -0.7810 -0.0511
   70SAPC  H13S 6035   2.912   6.184   3.122 -0.7038  0.3474  2.2193
   70SAPC  C214 6036   2.843   6.364   3.229 -0.3883 -0.0760  0.1024
   70SAPC  H14R 6037   2.836   6.474   3.217 -0.2918 -0.0985 -0.1531
   70SAPC  C215 6038   2.825   6.329   3.358 -0.4624 -0.0477  0.3704
   70SAPC  H15R 6039   2.800   6.408   3.431 -0.5387 -0.2633  0.5787
   70SAPC  C216 6040   2.807   6.183   3.402  0.4584 -0.6387 -0.1700
   70SAPC  H16R 6041   2.891   6.161   3.471  0.6766  2.8784  0.8545
   70SAPC  H16S 6042   2.820   6.108   3.320  1.7256 -2.5234  1.6480
   70SAPC  C217 6043   2.676   6.137   3.464 -0.1776 -0.8232  0.1495
   70SAPC  H17R 6044   2.675   6.028   3.484  1.0008 -1.0185 -0.7281
   70SAPC  H17S 6045   2.598   6.158   3.387  0.2055 -3.2939 -1.0038
   70SAPC  C218 6046   2.660   6.192   3.608  0.4811 -0.2832  0.2725
   70SAPC  H18R 6047   2.567   6.253   3.609  2.7847  3.7418 -1.6339
   70SAPC  H18S 6048   2.737   6.268   3.634 -0.7332  2.0348 -2.3584
   70SAPC  C219 6049   2.658   6.083   3.716  0.0735  0.4212 -0.0012
   70SAPC  H19R 6050   2.748   6.020   3.710  0.1525  0.6088 -1.0589
   70SAPC  H19S 6051   2.574   6.012   3.702  0.4936  0.2651 -2.0383
   70SAPC  C220 6052   2.660   6.146   3.849  0.5327  0.3726 -0.3312
   70SAPC  H20R 6053   2.662   6.066   3.926  0.5682  0.4181 -0.2847
   70SAPC  H20S 6054   2.571   6.209   3.868 -0.6838 -1.4017  0.0328
   70SAPC  H20T 6055   2.749   6.212   3.863 -1.9864  4.0289 -0.1969
   70SAPC   C33 6056   3.186   6.266   2.513  0.2451  0.6919  0.1728
   70SAPC   H3X 6057   3.286   6.314   2.508  1.0885 -1.0946 -1.2863
   70SAPC   H3Y 6058   3.203   6.182   2.443 -2.6690 -1.4058  1.7744
   70SAPC   C34 6059   3.164   6.190   2.641 -0.0751 -0.2931 -1.0271
   70SAPC   H4X 6060   3.097   6.103   2.625  1.0694 -1.2893 -0.4761
   70SAPC   H4Y 6061   3.114   6.260   2.711 -3.5109 -1.7338 -1.8527
   70SAPC   C35 6062   3.305   6.142   2.703  0.3163 -0.5846  0.2850
   70SAPC   H5X 6063   3.365   6.236   2.703 -1.7570  0.8094 -0.4259
   70SAPC   H5Y 6064   3.359   6.065   2.644  2.3798  0.8588  0.1400
   70SAPC   C36 6065   3.270   6.081   2.842  0.0509  0.9050  0.3773
   70SAPC   H6X 6066   3.205   6.000   2.804  0.2692  1.3812 -1.0480
   70SAPC   H6Y 6067   3.208   6.148   2.905  0.3256  2.4518 -0.9317
   70SAPC   C37 6068   3.385   6.033   2.927 -0.3028 -0.2554 -0.1298
   70SAPC   H7X 6069   3.457   5.962   2.879  0.4491 -1.4755  2.5693
   70SAPC   H7Y 6070   3.446   6.120   2.959 -0.3835 -0.6847  1.2274
   70SAPC   C38 6071   3.343   5.975   3.061 -0.3767 -0.5169 -0.3804
   70SAPC   H8X 6072   3.303   5.873   3.046 -1.5998 -0.0891 -0.1330
   70SAPC   H8Y 6073   3.257   6.035   3.100  0.1845  0.8203 -1.1152
   70SAPC   C39 6074   3.458   5.979   3.163  0.1740  0.4271 -0.2844
   70SAPC   H9X 6075   3.506   6.079   3.166 -0.3090  0.7347 -1.9503
   70SAPC   H9Y 6076   3.534   5.906   3.126  0.3660 -0.0677  1.0247
   70SAPC  C310 6077   3.418   5.929   3.302 -0.2651 -0.2541 -0.5062
   70SAPC  H10X 6078   3.505   5.891   3.359 -0.3199  2.6135  1.7523
   70SAPC  H10Y 6079   3.342   5.848   3.295 -0.8169  0.2405 -0.3870
   70SAPC  C311 6080   3.341   6.024   3.392 -0.9245 -0.2761 -0.0034
   70SAPC  H11X 6081   3.252   6.053   3.332 -0.2781  2.9749  0.4212
   70SAPC  H11Y 6082   3.409   6.111   3.402 -0.9294 -0.2620 -0.0885
   70SAPC  C312 6083   3.309   5.957   3.525 -0.1589  0.8578  0.4387
   70SAPC  H12X 6084   3.392   5.897   3.567 -0.8546  0.5628  1.4265
   70SAPC  H12Y 6085   3.236   5.880   3.493  1.7832 -1.3702  1.0619
   70SAPC  C313 6086   3.250   6.046   3.626 -0.3911 -0.1080  0.1523
   70SAPC  H13X 6087   3.165   6.103   3.585 -0.2378 -0.4139 -0.5972
   70SAPC  H13Y 6088   3.318   6.128   3.659 -0.5071 -0.2915  0.8729
   70SAPC  C314 6089   3.208   5.970   3.750  0.0957 -0.2173 -0.6219
   70SAPC  H14X 6090   3.301   5.924   3.790 -2.0105 -1.1310  3.8970
   70SAPC  H14Y 6091   3.156   5.879   3.712 -0.1042 -0.0946 -0.6484
   70SAPC  C315 6092   3.131   6.046   3.856  0.6410 -0.1629 -0.6696
   70SAPC  H15X 6093   3.048   6.105   3.811  2.7582  3.9065  0.2817
   70SAPC  H15Y 6094   3.204   6.116   3.902  0.5404  0.9413 -2.1411
   70SAPC  C316 6095   3.079   5.963   3.971  0.3178 -0.2820 -0.0959
   70SAPC  H16X 6096   3.150   5.878   3.984  0.5260 -0.1411 -0.3055
   70SAPC  H16Y 6097   2.978   5.923   3.950  0.7719 -0.9595 -1.0180
   70SAPC  C317 6098   3.073   6.032   4.108 -0.5511 -0.2264  0.4018
   70SAPC  H17X 6099   3.004   6.119   4.101  1.8550  1.6884 -1.4119
   70SAPC  H17Y 6100   3.173   6.072   4.136  0.8490 -1.8317 -2.0144
   70SAPC  C318 6101   3.038   5.936   4.215  0.7206 -0.2381 -0.4994
   70SAPC  H18X 6102   3.019   5.982   4.314  3.7424  0.2495 -0.0618
   70SAPC  H18Y 6103   3.117   5.859   4.220  0.5684 -0.4124 -0.7135
   70SAPC  H18Z 6104   2.938   5.888   4.201  0.8358 -0.8452  0.6926
   71SAPC     N 6105   4.075   3.295   1.484 -0.1899 -0.0158  0.2416
   71SAPC   C12 6106   4.138   3.239   1.616 -0.4585 -0.2514  0.2612
   71SAPC  H12A 6107   4.214   3.170   1.584  0.0503  1.3101 -2.1680
   71SAPC  H12B 6108   4.063   3.192   1.678 -0.9285 -0.1122 -0.1921
   71SAPC   C13 6109   3.938   3.339   1.519  0.0570 -0.0097 -0.2259
   71SAPC  H13A 6110   3.895   3.396   1.438 -1.4905 -0.5242  0.2056
   71SAPC  H13B 6111   3.870   3.257   1.536  1.3900 -1.3814 -1.2409
   71SAPC  H13C 6112   3.935   3.401   1.607  1.0401  2.5056 -1.8495
   71SAPC   C14 6113   4.165   3.395   1.429 -0.5742  0.0788 -0.3245
   71SAPC  H14A 6114   4.121   3.435   1.339  0.3031 -0.2148 -0.8908
   71SAPC  H14B 6115   4.178   3.475   1.500 -0.6438 -0.2982  0.1189
   71SAPC  H14C 6116   4.261   3.348   1.414 -1.2513 -1.9719  1.3247
   71SAPC   C15 6117   4.048   3.186   1.385  0.0238 -0.7706 -0.7959
   71SAPC  H15A 6118   4.011   3.236   1.296  0.8366  3.0075  0.7876
   71SAPC  H15B 6119   4.133   3.128   1.353 -0.9714 -3.0887  0.5285
   71SAPC  H15C 6120   3.987   3.110   1.432 -2.0023  0.6291 -1.0183
   71SAPC   C11 6121   4.223   3.338   1.709 -0.2144  0.7001  0.8929
   71SAPC  H11A 6122   4.310   3.385   1.658  0.1748  0.4781  1.3417
   71SAPC  H11B 6123   4.260   3.276   1.793  1.0404  1.7686  1.1554
   71SAPC     P 6124   4.050   3.410   1.886  0.2380  0.3664 -0.0619
   71SAPC   O13 6125   4.003   3.539   1.938  0.2708 -0.4232 -0.4589
   71SAPC   O14 6126   3.948   3.302   1.868 -0.0984 -0.1665  0.4620
   71SAPC   O12 6127   4.134   3.440   1.756  0.2215 -0.4466  0.6429
   71SAPC   O11 6128   4.156   3.359   1.992 -0.7708  0.6620  0.0330
   71SAPC    C1 6129   4.166   3.223   2.035  0.0644  0.2116  0.0770
   71SAPC    HA 6130   4.120   3.154   1.962 -1.4109  1.7087 -0.4752
   71SAPC    HB 6131   4.273   3.192   2.030 -0.1537 -0.4824 -0.4754
   71SAPC    C2 6132   4.099   3.184   2.172 -0.7153 -0.0627  0.0746
   71SAPC    HS 6133   3.996   3.223   2.187 -0.9048 -0.1856 -0.8678
   71SAPC   O21 6134   4.184   3.236   2.275  0.1692 -0.0004  0.1026
   71SAPC   C21 6135   4.166   3.369   2.297  0.8064  0.0236 -0.4825
   71SAPC   O22 6136   4.066   3.433   2.258  0.7228  0.1978  0.0588
   71SAPC   C22 6137   4.276   3.438   2.371  0.7956  0.0842  0.3808
   71SAPC   H2R 6138   4.365   3.449   2.305  0.7626 -1.6087  0.0179
   71SAPC   H2S 6139   4.254   3.546   2.382  1.0424  0.1527  0.2103
   71SAPC    C3 6140   4.079   3.027   2.178 -0.0892  0.5834 -0.1417
   71SAPC    HX 6141   4.183   2.987   2.178 -0.5353 -0.6418  0.9753
   71SAPC    HY 6142   4.041   2.998   2.078  3.9636 -2.9657 -0.9487
   71SAPC   O31 6143   3.997   2.981   2.291  0.1621 -0.1380  0.6168
   71SAPC   C31 6144   4.001   2.848   2.293 -0.1401  0.0532 -0.8958
   71SAPC   O32 6145   4.054   2.775   2.210 -0.3072 -0.1702 -0.6022
   71SAPC   C32 6146   3.929   2.792   2.414 -0.0582 -0.6695  0.1635
   71SAPC   H2X 6147   3.859   2.717   2.371  0.6446 -1.8946  1.0754
   71SAPC   H2Y 6148   3.868   2.873   2.459 -0.3714 -0.4317 -0.6828
   71SAPC   C23 6149   4.322   3.368   2.495  0.4686 -0.3129 -0.4807
   71SAPC   H3R 6150   4.309   3.261   2.472 -0.8554  0.1021 -1.8392
   71SAPC   H3S 6151   4.252   3.387   2.579  0.7102  0.9102 -0.5371
   71SAPC   C24 6152   4.461   3.405   2.537 -0.3834 -0.3875  0.4607
   71SAPC   H4R 6153   4.459   3.509   2.577 -1.8926 -0.4787  0.6980
   71SAPC   H4S 6154   4.535   3.408   2.454 -1.4604 -1.5184 -0.5855
   71SAPC   C25 6155   4.519   3.310   2.638 -0.0528 -0.4130 -0.4638
   71SAPC   H5R 6156   4.557   3.215   2.597 -1.0384 -1.9067  1.8841
   71SAPC   C26 6157   4.514   3.326   2.776 -0.3708 -0.9498 -0.0451
   71SAPC   H6R 6158   4.565   3.252   2.840 -0.2672 -0.0278  0.9750
   71SAPC   C27 6159   4.462   3.455   2.832 -0.5047  0.1511 -0.0538
   71SAPC   H7R 6160   4.351   3.447   2.819 -0.6840 -0.4865  1.6337
   71SAPC   H7S 6161   4.506   3.535   2.769  1.1914 -1.7456 -1.4109
   71SAPC   C28 6162   4.494   3.463   2.981  0.8042 -0.3152  0.3704
   71SAPC   H8R 6163   4.522   3.367   3.027 -0.6871 -0.5255  0.8849
   71SAPC   C29 6164   4.501   3.578   3.052  0.7353  0.1449 -0.1248
   71SAPC   H9R 6165   4.515   3.574   3.161 -1.5450 -0.3744  0.1998
   71SAPC  C210 6166   4.463   3.706   2.994 -0.2569 -0.4306  0.3180
   71SAPC  H10R 6167   4.352   3.713   2.982 -0.3034 -0.2597  0.8208
   71SAPC  H10S 6168   4.509   3.719   2.894  0.6720  0.7304  0.8686
   71SAPC  C211 6169   4.505   3.818   3.089  0.0502  1.1030 -0.3601
   71SAPC  H11R 6170   4.580   3.890   3.053  1.7607 -0.8971 -0.9986
   71SAPC  C212 6171   4.445   3.837   3.213 -0.5098 -0.1560  0.5905
   71SAPC  H12R 6172   4.474   3.927   3.268 -0.2255 -0.3340  0.7376
   71SAPC  C213 6173   4.335   3.758   3.273  0.6417 -0.1972  0.1511
   71SAPC  H13R 6174   4.301   3.676   3.206 -1.0469  0.2072  0.4674
   71SAPC  H13S 6175   4.252   3.831   3.275  0.1781 -0.6737 -0.8934
   71SAPC  C214 6176   4.384   3.703   3.402  0.2072  0.0069  0.2328
   71SAPC  H14R 6177   4.407   3.777   3.481  1.3436 -1.9723  1.8787
   71SAPC  C215 6178   4.382   3.571   3.438 -0.0048 -0.3256 -0.1002
   71SAPC  H15R 6179   4.411   3.539   3.539 -1.6203  0.0863  0.5185
   71SAPC  C216 6180   4.341   3.449   3.354 -0.4960 -0.1812  0.1436
   71SAPC  H16R 6181   4.432   3.396   3.319 -0.1842  1.3867 -1.5756
   71SAPC  H16S 6182   4.276   3.485   3.271 -1.4551  0.0427  0.9772
   71SAPC  C217 6183   4.259   3.354   3.441  0.3098  0.6468 -0.4003
   71SAPC  H17R 6184   4.223   3.268   3.379  4.4482 -0.1521 -1.9791
   71SAPC  H17S 6185   4.167   3.406   3.476 -0.7755  0.1467 -2.3066
   71SAPC  C218 6186   4.326   3.296   3.566  0.6725  0.1122 -0.2342
   71SAPC  H18R 6187   4.338   3.370   3.648 -1.1300 -0.5753  0.7003
   71SAPC  H18S 6188   4.424   3.259   3.529  1.4257  3.1836 -1.6047
   71SAPC  C219 6189   4.245   3.184   3.626  0.0056  0.5286 -0.9038
   71SAPC  H19R 6190   4.279   3.085   3.589  1.8417  1.3756 -1.5985
   71SAPC  H19S 6191   4.139   3.201   3.597 -0.4086  0.4239  0.4669
   71SAPC  C220 6192   4.250   3.182   3.781 -0.6650 -0.1061 -0.7692
   71SAPC  H20R 6193   4.174   3.113   3.823 -1.5369  0.4753 -1.3657
   71SAPC  H20S 6194   4.225   3.275   3.837  0.4289 -0.8591  1.0697
   71SAPC  H20T 6195   4.350   3.150   3.817 -0.4959  0.8082 -0.3873
   71SAPC   C33 6196   4.018   2.728   2.527 -0.1670 -0.5802  0.0919
   71SAPC   H3X 6197   4.091   2.809   2.548  0.4502  0.4017 -4.6391
   71SAPC   H3Y 6198   4.076   2.645   2.484  1.5106 -0.1540  1.4405
   71SAPC   C34 6199   3.917   2.693   2.641 -0.5797  1.1137 -0.5096
   71SAPC   H4X 6200   3.841   2.617   2.613 -0.1198  0.6893 -0.6289
   71SAPC   H4Y 6201   3.851   2.780   2.658 -0.1522  1.7397 -1.8733
   71SAPC   C35 6202   3.985   2.639   2.769 -0.5749 -0.2856  0.0418
   71SAPC   H5X 6203   4.069   2.707   2.796 -0.4101  0.1504 -1.4896
   71SAPC   H5Y 6204   4.028   2.538   2.750 -1.1573 -0.6134  0.4394
   71SAPC   C36 6205   3.894   2.624   2.886  0.4784 -0.4764  0.1681
   71SAPC   H6X 6206   3.790   2.591   2.865 -0.0484  1.6057 -0.7772
   71SAPC   H6Y 6207   3.865   2.725   2.924  1.2552 -0.7997  1.6904
   71SAPC   C37 6208   3.944   2.551   3.004 -0.5534  0.1078 -0.2540
   71SAPC   H7X 6209   3.936   2.440   2.999  0.9885 -0.0123 -0.6806
   71SAPC   H7Y 6210   3.877   2.559   3.092 -0.4071  0.9022 -0.2125
   71SAPC   C38 6211   4.082   2.601   3.050 -0.6476 -0.1363  0.4325
   71SAPC   H8X 6212   4.094   2.710   3.065  0.2528 -0.0489 -0.7590
   71SAPC   H8Y 6213   4.150   2.576   2.965  0.0444  1.4261  0.5071
   71SAPC   C39 6214   4.131   2.527   3.176 -0.7825 -0.2252  0.7835
   71SAPC   H9X 6215   4.241   2.514   3.165 -0.3886  2.3714  1.0112
   71SAPC   H9Y 6216   4.084   2.426   3.170 -0.4820 -0.3206 -0.2160
   71SAPC  C310 6217   4.098   2.602   3.301 -0.0046 -0.9758 -0.6662
   71SAPC  H10X 6218   3.987   2.612   3.308  0.0113 -1.3576  0.3523
   71SAPC  H10Y 6219   4.142   2.703   3.291  0.2191 -1.1589 -1.5301
   71SAPC  C311 6220   4.151   2.530   3.427  0.2000 -0.5296  0.2125
   71SAPC  H11X 6221   4.148   2.601   3.512  0.2382 -0.1664 -0.0890
   71SAPC  H11Y 6222   4.259   2.522   3.403  0.0869 -0.7942 -0.2050
   71SAPC  C312 6223   4.095   2.397   3.464  0.6062  0.8189  0.4534
   71SAPC  H12X 6224   4.181   2.340   3.507 -0.7459 -3.0305 -1.4501
   71SAPC  H12Y 6225   4.054   2.349   3.372  0.5957  1.7700 -0.0514
   71SAPC  C313 6226   3.975   2.401   3.562  0.5696 -0.0223 -0.7386
   71SAPC  H13X 6227   3.904   2.480   3.530 -0.6843  0.9161  3.6872
   71SAPC  H13Y 6228   4.016   2.434   3.660  1.9492 -0.2748 -1.2097
   71SAPC  C314 6229   3.898   2.267   3.588  1.2182 -0.1298 -0.6210
   71SAPC  H14X 6230   3.970   2.183   3.580  0.9612 -0.2904 -1.4135
   71SAPC  H14Y 6231   3.833   2.264   3.497  0.8246  0.2068 -0.3565
   71SAPC  C315 6232   3.802   2.260   3.714  0.5058  0.0560 -0.7764
   71SAPC  H15X 6233   3.869   2.261   3.802  1.7004 -0.9188 -1.6428
   71SAPC  H15Y 6234   3.755   2.159   3.718  0.8029 -0.1005 -1.1766
   71SAPC  C316 6235   3.702   2.379   3.733 -0.2761  0.2753  0.2052
   71SAPC  H16X 6236   3.609   2.362   3.675 -1.4545  1.4135  1.6752
   71SAPC  H16Y 6237   3.747   2.478   3.709 -1.4949  1.1834  1.4545
   71SAPC  C317 6238   3.648   2.383   3.879  0.1413 -0.4700 -0.1795
   71SAPC  H17X 6239   3.739   2.373   3.941 -0.7004 -0.8354  1.0242
   71SAPC  H17Y 6240   3.577   2.302   3.905 -0.5581  0.7542  1.9450
   71SAPC  C318 6241   3.579   2.514   3.922 -0.1981  0.1971 -0.4243
   71SAPC  H18X 6242   3.564   2.504   4.031 -0.0779 -0.8727 -0.4897
   71SAPC  H18Y 6243   3.481   2.527   3.871 -1.2500 -0.2034  1.4185
   71SAPC  H18Z 6244   3.644   2.601   3.896  1.5923 -1.1233 -0.5828
   72SAPC     N 6245   0.850   2.458   2.329  0.0810  0.3534  0.0435
   72SAPC   C12 6246   1.002   2.480   2.360  0.1045 -0.2836 -0.6372
   72SAPC  H12A 6247   1.044   2.523   2.270 -1.1620  6.8388  1.5632
   72SAPC  H12B 6248   1.052   2.386   2.375 -0.3657 -0.4756 -0.2564
   72SAPC   C13 6249   0.792   2.590   2.269  0.5762 -0.0095 -0.4395
   72SAPC  H13A 6250   0.805   2.668   2.343 -0.8085  0.1940 -0.3793
   72SAPC  H13B 6251   0.858   2.614   2.187  1.5010 -2.9914 -0.6845
   72SAPC  H13C 6252   0.689   2.582   2.238  0.6283  0.6891 -0.8158
   72SAPC   C14 6253   0.830   2.357   2.223 -0.0931 -0.2407  0.0087
   72SAPC  H14A 6254   0.863   2.260   2.259 -2.3602 -1.2741 -0.5426
   72SAPC  H14B 6255   0.725   2.342   2.203  0.0709 -1.8059  0.1653
   72SAPC  H14C 6256   0.890   2.372   2.135 -1.1047 -0.3836 -0.7182
   72SAPC   C15 6257   0.780   2.410   2.452 -0.3906 -0.0904 -0.6868
   72SAPC  H15A 6258   0.681   2.377   2.423 -0.4774 -0.9815  0.5255
   72SAPC  H15B 6259   0.831   2.325   2.495 -0.6823 -0.7488 -1.6133
   72SAPC  H15C 6260   0.775   2.489   2.525 -0.7789 -2.1385  1.6471
   72SAPC   C11 6261   1.032   2.569   2.487  0.6820 -0.6605  0.4704
   72SAPC  H11A 6262   1.140   2.571   2.512  0.7911 -0.6053 -0.0081
   72SAPC  H11B 6263   0.988   2.517   2.575  0.9699 -2.6825 -0.5265
   72SAPC     P 6264   1.070   2.816   2.412  0.3960 -0.2078  0.2272
   72SAPC   O13 6265   1.109   2.789   2.270 -0.2026 -0.4662  0.1034
   72SAPC   O14 6266   0.999   2.946   2.434 -0.5404  0.4246 -0.2231
   72SAPC   O12 6267   0.974   2.705   2.470  0.0384  0.6642 -0.4440
   72SAPC   O11 6268   1.210   2.814   2.485 -0.1370 -0.1363  0.0054
   72SAPC    C1 6269   1.230   2.829   2.620  0.6575 -0.6889 -0.1008
   72SAPC    HA 6270   1.157   2.899   2.667  2.5865  1.3793 -0.0172
   72SAPC    HB 6271   1.215   2.729   2.666 -1.3639  0.6038  2.3213
   72SAPC    C2 6272   1.365   2.873   2.666 -0.4311 -0.2312 -0.2014
   72SAPC    HS 6273   1.427   2.818   2.592 -1.0782 -0.0463 -0.9014
   72SAPC   O21 6274   1.391   2.842   2.802 -0.0257 -0.3095  0.0236
   72SAPC   C21 6275   1.465   2.733   2.819 -0.4801  0.3418  0.2932
   72SAPC   O22 6276   1.506   2.666   2.730 -0.8208  0.1560  0.1087
   72SAPC   C22 6277   1.482   2.710   2.970 -0.0465 -0.4983  0.4305
   72SAPC   H2R 6278   1.544   2.795   3.006 -0.8442 -0.1336  0.9706
   72SAPC   H2S 6279   1.380   2.717   3.012  0.8389  0.2453  2.6431
   72SAPC    C3 6280   1.380   3.027   2.645 -0.2777 -0.2465  0.3412
   72SAPC    HX 6281   1.356   3.039   2.537 -0.9956 -1.1723  0.3902
   72SAPC    HY 6282   1.479   3.078   2.647  0.5812 -1.8854  1.1329
   72SAPC   O31 6283   1.291   3.105   2.727 -0.0379  0.0784  0.0609
   72SAPC   C31 6284   1.341   3.137   2.846  0.0867  0.7614  0.6280
   72SAPC   O32 6285   1.461   3.131   2.875  0.1714 -0.1944  0.2820
   72SAPC   C32 6286   1.248   3.222   2.932  0.1251 -0.3035  0.5222
   72SAPC   H2X 6287   1.142   3.191   2.924 -0.2127  0.9978 -0.4861
   72SAPC   H2Y 6288   1.246   3.321   2.881  2.5243  0.6450  2.0763
   72SAPC   C23 6289   1.555   2.579   2.990  0.5460 -0.0329 -0.4684
   72SAPC   H3R 6290   1.665   2.579   2.973  0.3781 -1.1358 -1.7205
   72SAPC   H3S 6291   1.518   2.502   2.919 -0.1512 -0.8147  0.6979
   72SAPC   C24 6292   1.540   2.522   3.131 -0.0502 -0.1838 -0.3123
   72SAPC   H4R 6293   1.589   2.423   3.131  0.5810  0.1220  0.2401
   72SAPC   H4S 6294   1.436   2.503   3.164  0.3997 -2.4942 -0.0842
   72SAPC   C25 6295   1.608   2.611   3.226  0.0924  0.0331 -0.3841
   72SAPC   H5R 6296   1.629   2.717   3.206 -1.7643  0.8814  1.8105
   72SAPC   C26 6297   1.663   2.568   3.344 -0.0895  0.4933 -0.1386
   72SAPC   H6R 6298   1.717   2.635   3.412  1.4010 -1.3647  0.6051
   72SAPC   C27 6299   1.661   2.426   3.382 -0.5198  0.3729 -0.7390
   72SAPC   H7R 6300   1.739   2.378   3.319 -2.4414 -2.1740 -1.3376
   72SAPC   H7S 6301   1.571   2.366   3.354 -0.4332 -1.4587  2.4700
   72SAPC   C28 6302   1.700   2.386   3.526  0.3868 -0.4842  0.0860
   72SAPC   H8R 6303   1.616   2.344   3.584  0.4268 -0.3518  0.2437
   72SAPC   C29 6304   1.814   2.406   3.602  0.0618 -0.4509 -0.1841
   72SAPC   H9R 6305   1.827   2.361   3.701 -0.3854  1.5841  0.8546
   72SAPC  C210 6306   1.945   2.468   3.555  0.6277  0.3648 -0.7366
   72SAPC  H10R 6307   1.923   2.528   3.464  0.8067  0.3305 -0.8031
   72SAPC  H10S 6308   2.018   2.391   3.523 -0.0142  0.6212 -2.9235
   72SAPC  C211 6309   2.013   2.552   3.657 -0.6958 -0.0469 -0.1653
   72SAPC  H11R 6310   2.113   2.514   3.682 -1.2712  0.4741  3.6105
   72SAPC  C212 6311   1.966   2.657   3.719  0.9508  0.1014 -0.4070
   72SAPC  H12R 6312   2.018   2.691   3.810  2.3825  0.9542 -1.5098
   72SAPC  C213 6313   1.842   2.744   3.707 -0.1619 -0.3738 -0.0496
   72SAPC  H13R 6314   1.788   2.744   3.803  0.6470 -2.0704  0.4374
   72SAPC  H13S 6315   1.771   2.695   3.636 -0.9402  1.0737 -0.2997
   72SAPC  C214 6316   1.869   2.884   3.668 -0.4997  0.2072 -0.0155
   72SAPC  H14R 6317   1.857   2.902   3.560 -1.4813  0.2627  0.0890
   72SAPC  C215 6318   1.905   2.987   3.753  0.5442 -0.3458  0.6407
   72SAPC  H15R 6319   1.903   3.091   3.720  1.1241 -0.5711 -0.1301
   72SAPC  C216 6320   1.918   2.968   3.899  0.3098  0.3415  0.5081
   72SAPC  H16R 6321   1.857   2.887   3.944 -0.6433 -0.7740 -2.5088
   72SAPC  H16S 6322   1.884   3.065   3.940  3.6938  2.6799 -1.6736
   72SAPC  C217 6323   2.060   2.925   3.939  0.3992 -0.3493 -0.4565
   72SAPC  H17R 6324   2.135   3.008   3.931 -2.2071  2.0367 -1.6877
   72SAPC  H17S 6325   2.096   2.841   3.876  1.7526  0.8997 -1.4261
   72SAPC  C218 6326   2.060   2.887   4.090 -0.0606  1.1974 -0.2083
   72SAPC  H18R 6327   1.991   2.800   4.100  0.2918  0.7751 -1.3477
   72SAPC  H18S 6328   2.025   2.973   4.151 -0.2217  0.5861  0.5822
   72SAPC  C219 6329   2.200   2.837   4.140  0.0317  0.5258  0.2780
   72SAPC  H19R 6330   2.270   2.860   4.056 -0.5321 -1.4623 -0.7979
   72SAPC  H19S 6331   2.202   2.728   4.160  1.1760  0.3130 -0.8252
   72SAPC  C220 6332   2.258   2.916   4.262 -0.4856 -0.6862 -0.1572
   72SAPC  H20R 6333   2.299   3.010   4.220  0.3083 -1.2286 -0.6207
   72SAPC  H20S 6334   2.342   2.856   4.304 -0.4749 -0.1571  0.5966
   72SAPC  H20T 6335   2.178   2.935   4.336  1.1349  0.5243  1.4043
   72SAPC   C33 6336   1.287   3.231   3.078  0.2315  0.1786 -0.0939
   72SAPC   H3X 6337   1.366   3.310   3.086  1.7178 -1.3991  2.3310
   72SAPC   H3Y 6338   1.331   3.136   3.116 -1.5071 -0.0730  1.4704
   72SAPC   C34 6339   1.169   3.265   3.174  0.2885  0.2538 -0.5754
   72SAPC   H4X 6340   1.083   3.196   3.171 -1.3238  2.1498 -0.0248
   72SAPC   H4Y 6341   1.117   3.355   3.136 -0.4476  0.1555  0.1813
   72SAPC   C35 6342   1.206   3.266   3.320 -0.4393  0.1800 -0.1474
   72SAPC   H5X 6343   1.260   3.362   3.329  1.9273  0.0427 -7.0750
   72SAPC   H5Y 6344   1.278   3.184   3.347  1.4546  1.5798 -0.7310
   72SAPC   C36 6345   1.087   3.263   3.428 -0.2756  0.3895  0.0391
   72SAPC   H6X 6346   1.050   3.161   3.404  0.1161  0.7833 -2.5326
   72SAPC   H6Y 6347   0.999   3.326   3.405 -0.8505  0.5748  2.5193
   72SAPC   C37 6348   1.134   3.295   3.567  0.3294 -0.1399 -0.8978
   72SAPC   H7X 6349   1.162   3.401   3.588  2.1972 -0.7586 -0.0364
   72SAPC   H7Y 6350   1.219   3.234   3.605 -2.6390 -2.3773  2.9652
   72SAPC   C38 6351   1.024   3.259   3.672 -0.1967 -0.1645  0.5076
   72SAPC   H8X 6352   1.012   3.151   3.647  0.8244 -0.6834  2.0922
   72SAPC   H8Y 6353   0.937   3.323   3.645  0.1369 -0.3037 -0.9600
   72SAPC   C39 6354   1.070   3.273   3.817  0.5495  0.0003  0.0689
   72SAPC   H9X 6355   1.091   3.381   3.831 -0.0225  0.1845 -0.4457
   72SAPC   H9Y 6356   1.161   3.213   3.838 -0.3748 -0.8225  2.0169
   72SAPC  C310 6357   0.954   3.239   3.913  0.8365 -0.0514  0.0884
   72SAPC  H10X 6358   0.928   3.133   3.897 -2.5947  0.3021  2.2368
   72SAPC  H10Y 6359   0.865   3.302   3.889  0.2447 -1.1028 -0.5223
   72SAPC  C311 6360   0.994   3.257   4.062  0.2115  0.5716 -0.1389
   72SAPC  H11X 6361   1.084   3.193   4.077 -1.2040 -1.5082 -0.0828
   72SAPC  H11Y 6362   0.909   3.211   4.117  0.5527  0.5999  0.4114
   72SAPC  C312 6363   1.013   3.397   4.122 -0.2088  0.3909 -0.3349
   72SAPC  H12X 6364   1.105   3.451   4.091 -0.5163  0.8467 -0.4551
   72SAPC  H12Y 6365   1.005   3.384   4.232 -0.7034 -0.9279 -0.5006
   72SAPC  C313 6366   0.903   3.496   4.082 -0.1297  0.4270  0.3049
   72SAPC  H13X 6367   0.806   3.449   4.107  0.1956 -0.5455 -0.1968
   72SAPC  H13Y 6368   0.907   3.516   3.973 -1.0989 -0.2240  0.1410
   72SAPC  C314 6369   0.923   3.634   4.151  0.7441  0.8311 -0.6784
   72SAPC  H14X 6370   1.019   3.653   4.203  1.2111  0.1918 -1.2736
   72SAPC  H14Y 6371   0.861   3.645   4.242  0.4980  2.2274 -0.9788
   72SAPC  C315 6372   0.905   3.759   4.056  0.4635 -0.2806 -0.6653
   72SAPC  H15X 6373   0.981   3.746   3.976  0.4336 -1.2105 -0.5502
   72SAPC  H15Y 6374   0.920   3.853   4.114  0.8443  0.6545 -2.2331
   72SAPC  C316 6375   0.765   3.768   3.999 -0.0733  0.6620  0.4023
   72SAPC  H16X 6376   0.700   3.757   4.088  0.5586 -0.8773  0.7064
   72SAPC  H16Y 6377   0.742   3.681   3.935 -0.7271  1.1550 -0.0472
   72SAPC  C317 6378   0.729   3.897   3.918  0.6297  0.8710  0.0645
   72SAPC  H17X 6379   0.776   3.876   3.819 -0.4643  1.8107 -0.6863
   72SAPC  H17Y 6380   0.780   3.977   3.975  0.4079 -0.0035  1.5540
   72SAPC  C318 6381   0.575   3.919   3.916 -0.6537  0.0567  0.6460
   72SAPC  H18X 6382   0.539   3.933   4.019  2.4272  0.4131  1.7940
   72SAPC  H18Y 6383   0.530   3.829   3.870  1.6577 -1.1160  0.5242
   72SAPC  H18Z 6384   0.546   4.007   3.854 -0.5774 -0.6556 -0.4453
   73SLPC     N 6385   4.036   3.841   6.896  0.0100 -0.3098 -0.4377
   73SLPC   C13 6386   4.166   3.912   6.905  0.4933 -0.0179 -0.0059
   73SLPC  H13A 6387   4.171   4.014   6.869 -0.0727  0.3515  0.9233
   73SLPC  H13B 6388   4.211   3.902   7.003  3.2880 -0.5106 -1.2242
   73SLPC  H13C 6389   4.244   3.868   6.843  2.2327  1.4785  1.0170
   73SLPC   C14 6390   3.941   3.905   6.996 -0.5082 -0.3118  0.0178
   73SLPC  H14A 6391   3.839   3.869   6.992 -0.4274 -1.2275  3.3028
   73SLPC  H14B 6392   3.983   3.889   7.094 -1.7975 -1.1455  0.4542
   73SLPC  H14C 6393   3.955   4.012   6.983  4.0250 -0.5464  1.2116
   73SLPC   C15 6394   4.059   3.699   6.920  0.1803  0.3991 -0.4112
   73SLPC  H15A 6395   4.104   3.684   7.016  0.0615 -0.5136 -0.4883
   73SLPC  H15B 6396   3.968   3.640   6.915  0.3206  0.1824 -0.4190
   73SLPC  H15C 6397   4.125   3.661   6.843  0.4310  1.3155 -0.6592
   73SLPC   C12 6398   3.982   3.859   6.750  0.8568 -0.1585 -0.1249
   73SLPC  H12A 6399   3.943   3.959   6.736 -1.0663 -1.0285 -1.4924
   73SLPC  H12B 6400   3.893   3.799   6.737  0.3766 -0.0520  2.1787
   73SLPC   C11 6401   4.069   3.832   6.624 -0.6738  0.0615 -1.4234
   73SLPC  H11A 6402   4.141   3.917   6.625 -1.3452  0.6765 -2.4006
   73SLPC  H11B 6403   3.994   3.835   6.542 -0.4091  0.0628 -1.6668
   73SLPC     P 6404   4.207   3.639   6.527 -0.2404 -0.4015 -0.0748
   73SLPC   O13 6405   4.348   3.683   6.536 -0.8631  0.0834  0.3354
   73SLPC   O14 6406   4.181   3.495   6.532 -0.3056 -0.1368 -0.2056
   73SLPC   O12 6407   4.135   3.702   6.643  0.0571 -0.3436  0.0901
   73SLPC   O11 6408   4.142   3.700   6.393 -0.1245 -0.3723  0.1634
   73SLPC    C1 6409   4.201   3.663   6.267  0.0278  0.3489 -1.2511
   73SLPC    HA 6410   4.312   3.659   6.264 -0.0306 -1.5013 -1.7318
   73SLPC    HB 6411   4.189   3.554   6.254 -2.4090  0.4176 -0.2921
   73SLPC    C2 6412   4.135   3.726   6.143  0.2523  0.3316 -0.3142
   73SLPC    HS 6413   4.026   3.706   6.146  0.0698  1.2957 -0.2163
   73SLPC   O21 6414   4.209   3.674   6.030  0.3443 -0.2169 -0.6856
   73SLPC   C21 6415   4.134   3.649   5.931  0.1614 -0.0942  0.6672
   73SLPC   O22 6416   4.014   3.648   5.932 -0.1044  0.2778 -0.2787
   73SLPC   C22 6417   4.216   3.606   5.807 -0.3233 -1.3469  0.1970
   73SLPC   H2R 6418   4.269   3.701   5.782 -0.6588 -0.6485  1.9715
   73SLPC   H2S 6419   4.290   3.527   5.835  2.5500  1.5944  1.6805
   73SLPC    C3 6420   4.140   3.880   6.155 -0.3419  0.1914  0.4289
   73SLPC    HX 6421   4.249   3.896   6.165 -0.3967  0.4931  0.5368
   73SLPC    HY 6422   4.089   3.909   6.249 -0.3068  1.4511  0.0661
   73SLPC   O31 6423   4.096   3.950   6.039  0.3964 -0.1006  0.1321
   73SLPC   C31 6424   3.963   3.955   6.022  0.7585  0.3146  0.1314
   73SLPC   O32 6425   3.880   3.922   6.107  0.2996  0.0111  0.3305
   73SLPC   C32 6426   3.932   4.009   5.882  0.3037  0.0621 -0.3733
   73SLPC   H2X 6427   3.883   4.108   5.897  0.4154  0.3885 -2.0016
   73SLPC   H2Y 6428   3.856   3.941   5.839  3.0758 -1.4045 -3.4375
   73SLPC   C23 6429   4.117   3.568   5.698 -0.4897 -0.0917  0.4662
   73SLPC   H3R 6430   4.045   3.647   5.665  0.3150  0.3310 -0.3139
   73SLPC   H3S 6431   4.040   3.496   5.732 -1.2763  0.0759 -0.8724
   73SLPC   C24 6432   4.180   3.513   5.569  0.3849  0.9121 -0.5709
   73SLPC   H4R 6433   4.109   3.439   5.527 -0.9129  0.4873  2.1257
   73SLPC   H4S 6434   4.272   3.451   5.585  0.4592  0.8070 -1.3622
   73SLPC   C25 6435   4.224   3.611   5.460 -0.0645  0.3338  0.2459
   73SLPC   H5R 6436   4.294   3.680   5.511 -0.1969  0.2240  0.5807
   73SLPC   H5S 6437   4.132   3.656   5.418 -1.9519 -3.2852  0.0945
   73SLPC   C26 6438   4.289   3.541   5.341 -0.5687 -0.5360 -0.7321
   73SLPC   H6R 6439   4.226   3.459   5.301  0.5206 -2.1336  0.6801
   73SLPC   H6S 6440   4.382   3.487   5.369 -1.5749 -2.5126 -1.0240
   73SLPC   C27 6441   4.333   3.639   5.229 -0.4071  0.1598  0.0492
   73SLPC   H7R 6442   4.423   3.607   5.172 -0.7521 -0.8070  0.0256
   73SLPC   H7S 6443   4.345   3.735   5.284  0.9131  0.3814 -0.5926
   73SLPC   C28 6444   4.218   3.655   5.124 -0.1862  1.1544  0.3941
   73SLPC   H8R 6445   4.119   3.673   5.170 -0.9017  0.5298 -0.8317
   73SLPC   H8S 6446   4.204   3.563   5.063  1.0120  0.5684  0.9858
   73SLPC   C29 6447   4.255   3.765   5.030 -0.4353  0.2158 -0.2321
   73SLPC   H9R 6448   4.247   3.866   5.074 -0.3973  0.1695 -0.1193
   73SLPC  C210 6449   4.316   3.767   4.910 -0.0334  0.4306  0.0032
   73SLPC  H10R 6450   4.315   3.862   4.854 -0.8158 -1.0039 -2.5813
   73SLPC  C211 6451   4.367   3.636   4.839 -0.2251 -0.7419  0.3448
   73SLPC  H11R 6452   4.328   3.547   4.893 -1.6742 -0.3096  0.0708
   73SLPC  H11S 6453   4.478   3.629   4.843 -0.1968 -1.4785 -1.1471
   73SLPC  C212 6454   4.322   3.648   4.692  0.1823 -0.1474 -0.1999
   73SLPC  H12R 6455   4.284   3.744   4.653 -0.4386 -0.8823 -1.4711
   73SLPC  C213 6456   4.297   3.544   4.617 -0.0779  0.2451  0.4710
   73SLPC  H13R 6457   4.280   3.567   4.510 -2.8111 -0.7849  0.6089
   73SLPC  C214 6458   4.296   3.402   4.659  0.4436  0.6171  0.3068
   73SLPC  H14R 6459   4.323   3.396   4.766 -2.0356  0.1621  0.9690
   73SLPC  H14S 6460   4.363   3.344   4.592  0.0542  2.3468 -1.7002
   73SLPC  C215 6461   4.160   3.327   4.654  0.6297 -0.2912 -0.1308
   73SLPC  H15R 6462   4.085   3.363   4.727  0.0908 -1.7771  0.0708
   73SLPC  H15S 6463   4.175   3.218   4.667 -0.0359 -0.4191 -0.4124
   73SLPC  C216 6464   4.086   3.346   4.522 -0.7769 -0.0293  0.1274
   73SLPC  H16R 6465   4.053   3.449   4.496 -0.1050  0.0736 -0.3360
   73SLPC  H16S 6466   3.990   3.291   4.533 -1.3198  0.5960 -1.3194
   73SLPC  C217 6467   4.157   3.286   4.396  0.2921  0.7026  0.0829
   73SLPC  H17R 6468   4.172   3.177   4.413  1.6421  1.0392  1.2903
   73SLPC  H17S 6469   4.256   3.334   4.382  0.2360  0.3547 -1.7311
   73SLPC  C218 6470   4.079   3.300   4.269  0.2679  0.7596 -0.5346
   73SLPC  H18R 6471   3.972   3.280   4.290  0.4028 -1.2246 -1.5200
   73SLPC  H18S 6472   4.123   3.221   4.204 -2.1566 -0.8517 -0.3399
   73SLPC  H18T 6473   4.089   3.395   4.213 -0.8072  1.7407  0.8851
   73SLPC   C33 6474   4.052   4.023   5.782  0.1132  0.0198  0.3411
   73SLPC   H3X 6475   4.109   3.927   5.787  3.6618  1.6235 -3.2615
   73SLPC   H3Y 6476   4.128   4.097   5.815 -0.5601  0.4222  0.9838
   73SLPC   C34 6477   4.006   4.077   5.647  0.0670 -0.0611  0.5003
   73SLPC   H4X 6478   4.089   4.126   5.592 -0.7683 -0.1161 -0.8319
   73SLPC   H4Y 6479   3.923   4.150   5.662  0.6159  0.3916  1.4195
   73SLPC   C35 6480   3.945   3.981   5.536  0.1090  0.3527  0.1733
   73SLPC   H5X 6481   3.840   3.954   5.560 -0.4850  0.0818 -2.5103
   73SLPC   H5Y 6482   4.006   3.889   5.530 -1.0486 -0.6695  2.4951
   73SLPC   C36 6483   3.945   4.056   5.405  0.1900 -0.2536  0.7797
   73SLPC   H6X 6484   4.046   4.060   5.360  0.0304  1.4754  0.5263
   73SLPC   H6Y 6485   3.919   4.163   5.416 -1.2420 -0.4619 -0.2686
   73SLPC   C37 6486   3.843   4.001   5.297 -0.2760  0.5572 -0.4188
   73SLPC   H7X 6487   3.747   4.042   5.334 -0.6379 -0.3108 -0.3839
   73SLPC   H7Y 6488   3.858   3.892   5.308  2.6515  1.0540  1.5093
   73SLPC   C38 6489   3.891   4.037   5.144  0.0158  0.6573 -0.2322
   73SLPC   H8X 6490   3.962   3.957   5.114 -2.1077 -0.6971 -1.9319
   73SLPC   H8Y 6491   3.941   4.136   5.142  1.2343  0.1940  2.6056
   73SLPC   C39 6492   3.773   4.037   5.047  0.0837 -0.2479 -0.6460
   73SLPC   H9X 6493   3.697   4.112   5.080 -3.0308 -3.0577 -0.8537
   73SLPC   H9Y 6494   3.731   3.935   5.056 -0.4742  0.0840  0.9312
   73SLPC  C310 6495   3.823   4.066   4.908 -0.0242 -0.2949 -1.1878
   73SLPC  H10X 6496   3.925   4.107   4.915 -0.5161  0.6550  1.9680
   73SLPC  H10Y 6497   3.755   4.137   4.857  1.5232 -0.0269 -2.9864
   73SLPC  C311 6498   3.827   3.941   4.816  0.4087  0.5834 -0.2395
   73SLPC  H11X 6499   3.748   3.868   4.841  0.6911 -0.5890 -2.4951
   73SLPC  H11Y 6500   3.928   3.895   4.827  0.3423  0.6062  0.5400
   73SLPC  C312 6501   3.802   3.966   4.665 -0.5225  0.2216 -0.6496
   73SLPC  H12X 6502   3.887   4.028   4.627  0.2106  0.7135  1.6272
   73SLPC  H12Y 6503   3.705   4.017   4.646  0.0467  1.7432  0.3184
   73SLPC  C313 6504   3.807   3.842   4.574  0.6649 -0.8099  0.2513
   73SLPC  H13X 6505   3.762   3.860   4.474 -0.8494 -0.0425  1.0292
   73SLPC  H13Y 6506   3.762   3.750   4.618 -0.0690 -0.9435 -0.7587
   73SLPC  C314 6507   3.956   3.808   4.543 -0.1139 -0.2229  0.8848
   73SLPC  H14X 6508   3.971   3.708   4.496 -1.8781 -1.2525  2.3250
   73SLPC  H14Y 6509   4.018   3.804   4.635 -0.7984 -0.9666  1.3298
   73SLPC  C315 6510   4.012   3.915   4.445  0.0600 -0.0503  0.0848
   73SLPC  H15X 6511   4.037   4.012   4.494  0.8812  0.3933 -1.1724
   73SLPC  H15Y 6512   3.934   3.929   4.368 -1.6885 -0.2057  1.7533
   73SLPC  C316 6513   4.146   3.870   4.379  0.4366  0.8437 -0.7142
   73SLPC  H16X 6514   4.144   3.768   4.335  0.3201  1.3440 -1.8864
   73SLPC  H16Y 6515   4.238   3.863   4.442  1.9404 -0.2839 -2.9088
   73SLPC  C317 6516   4.189   3.969   4.277 -0.6125 -0.3474  0.2218
   73SLPC  H17X 6517   4.289   3.952   4.231 -0.0491 -0.5787  1.4849
   73SLPC  H17Y 6518   4.199   4.061   4.338 -2.6822  0.4392 -0.5636
   73SLPC  C318 6519   4.098   3.999   4.159  0.4410 -0.0904 -0.2655
   73SLPC  H18X 6520   3.993   4.014   4.194  1.4108  0.9035  2.4890
   73SLPC  H18Y 6521   4.112   3.915   4.089  0.1656  1.5493 -2.3874
   73SLPC  H18Z 6522   4.133   4.091   4.109  0.9988  1.2515  2.3829
   74SLPC     N 6523   1.391   4.678   7.070 -0.2050 -0.3107 -0.0895
   74SLPC   C13 6524   1.310   4.746   7.178  0.1503 -0.2468 -1.1042
   74SLPC  H13A 6525   1.245   4.824   7.142 -0.6497 -0.5088 -0.2496
   74SLPC  H13B 6526   1.248   4.682   7.239  0.1696  1.4934  0.8356
   74SLPC  H13C 6527   1.377   4.796   7.247 -0.5755 -1.6417  0.6906
   74SLPC   C14 6528   1.480   4.570   7.128  0.4595 -0.0747  0.3879
   74SLPC  H14A 6529   1.532   4.515   7.051 -0.4619  0.5881 -0.7346
   74SLPC  H14B 6530   1.562   4.601   7.191 -0.0576  0.0440  1.0135
   74SLPC  H14C 6531   1.420   4.500   7.185  0.3477  0.1913  0.6011
   74SLPC   C15 6532   1.474   4.778   7.005  0.2101  0.3387 -0.4522
   74SLPC  H15A 6533   1.424   4.849   6.942  1.9962  0.0634 -2.2709
   74SLPC  H15B 6534   1.530   4.832   7.081  0.0680  1.7440 -1.3292
   74SLPC  H15C 6535   1.555   4.740   6.944  2.2217  2.5162  0.6619
   74SLPC   C12 6536   1.304   4.611   6.969  0.4870  0.1038  0.5421
   74SLPC  H12A 6537   1.234   4.548   7.023  0.9269  0.5667  1.7017
   74SLPC  H12B 6538   1.366   4.540   6.916 -0.8042 -1.8766  1.5702
   74SLPC   C11 6539   1.214   4.704   6.883 -0.4084  0.2526  0.1051
   74SLPC  H11A 6540   1.158   4.762   6.960 -0.8611  1.6093 -1.2041
   74SLPC  H11B 6541   1.143   4.636   6.831  0.9115  0.3289 -1.8920
   74SLPC     P 6542   1.335   4.727   6.656  0.2471 -0.3275 -0.1813
   74SLPC   O13 6543   1.480   4.764   6.633  0.1267  0.2333  0.0993
   74SLPC   O14 6544   1.290   4.587   6.641  0.7284  0.2646  0.7366
   74SLPC   O12 6545   1.293   4.789   6.798 -0.0572 -0.4735 -0.1329
   74SLPC   O11 6546   1.253   4.817   6.561  0.3222 -0.3056 -0.0888
   74SLPC    C1 6547   1.303   4.926   6.486  0.0042  0.4085  0.0738
   74SLPC    HA 6548   1.243   5.016   6.511  0.7120  0.1744  3.0738
   74SLPC    HB 6549   1.409   4.956   6.505  1.2204 -0.4699 -4.3191
   74SLPC    C2 6550   1.279   4.904   6.328 -0.5298 -0.6979  0.3919
   74SLPC    HS 6551   1.359   4.837   6.289  2.3854  1.0363  2.9428
   74SLPC   O21 6552   1.277   5.028   6.257 -0.2839  0.8100 -0.1264
   74SLPC   C21 6553   1.381   5.105   6.259  0.5658 -0.1481  0.3307
   74SLPC   O22 6554   1.487   5.092   6.312  0.0446  0.2293  0.4207
   74SLPC   C22 6555   1.336   5.226   6.173 -0.1969 -0.0607 -0.1684
   74SLPC   H2R 6556   1.275   5.187   6.088 -1.2214 -0.2651  0.6371
   74SLPC   H2S 6557   1.272   5.284   6.242  0.5618 -0.9948  1.3605
   74SLPC    C3 6558   1.151   4.829   6.287  0.2569  0.2823 -0.4204
   74SLPC    HX 6559   1.066   4.899   6.304  2.4391  3.9127 -2.9470
   74SLPC    HY 6560   1.154   4.741   6.353  0.6346 -0.3216 -1.2198
   74SLPC   O31 6561   1.161   4.795   6.144  0.3003 -0.1736  0.0140
   74SLPC   C31 6562   1.113   4.670   6.111  0.5109 -0.6999  0.3582
   74SLPC   O32 6563   1.057   4.593   6.186 -0.0445  0.1929  0.2235
   74SLPC   C32 6564   1.148   4.634   5.975  0.2475 -0.2519  0.8514
   74SLPC   H2X 6565   1.259   4.632   5.983  0.1731  0.5234  2.5021
   74SLPC   H2Y 6566   1.106   4.705   5.901  1.2088 -0.7853 -0.2546
   74SLPC   C23 6567   1.447   5.308   6.117  0.2914 -0.4871 -0.3073
   74SLPC   H3R 6568   1.516   5.334   6.201 -0.2686 -0.2696  0.0962
   74SLPC   H3S 6569   1.397   5.404   6.090  0.0857 -0.2304  0.8901
   74SLPC   C24 6570   1.523   5.235   6.004 -1.0070  0.0867 -0.4100
   74SLPC   H4R 6571   1.473   5.137   5.992 -0.2446 -0.3516 -0.0616
   74SLPC   H4S 6572   1.623   5.207   6.044 -1.3832 -0.4388  0.1886
   74SLPC   C25 6573   1.555   5.300   5.865  0.0794 -0.2982  0.1399
   74SLPC   H5R 6574   1.617   5.233   5.801 -0.3426  0.0492 -0.6466
   74SLPC   H5S 6575   1.610   5.395   5.880 -0.7469  0.5716 -1.9235
   74SLPC   C26 6576   1.425   5.346   5.789  0.0874  0.1777  0.8012
   74SLPC   H6R 6577   1.363   5.402   5.861 -1.2018 -2.3584  1.8025
   74SLPC   H6S 6578   1.364   5.258   5.759 -1.1727  1.5844 -0.9780
   74SLPC   C27 6579   1.467   5.416   5.658 -0.6055 -0.3403 -0.3856
   74SLPC   H7R 6580   1.514   5.514   5.680 -2.2833 -0.0479  2.2849
   74SLPC   H7S 6581   1.381   5.445   5.595  0.1858  1.5856 -0.6570
   74SLPC   C28 6582   1.555   5.339   5.558 -0.5147 -0.3926 -0.0357
   74SLPC   H8R 6583   1.532   5.231   5.575 -0.4737 -0.0442  2.5831
   74SLPC   H8S 6584   1.658   5.344   5.597 -0.8166 -2.3008  1.1728
   74SLPC   C29 6585   1.545   5.380   5.410 -0.3203 -0.0175  0.1256
   74SLPC   H9R 6586   1.551   5.489   5.396 -1.3561  0.2090  1.2730
   74SLPC  C210 6587   1.507   5.299   5.308  0.1965 -0.9633  0.0843
   74SLPC  H10R 6588   1.482   5.344   5.211  0.9571  1.7907  1.0645
   74SLPC  C211 6589   1.482   5.145   5.308 -0.2266  0.1159  0.0743
   74SLPC  H11R 6590   1.440   5.104   5.403 -0.1341 -2.8172 -1.0408
   74SLPC  H11S 6591   1.580   5.092   5.308  0.4400  1.3126 -0.2897
   74SLPC  C212 6592   1.391   5.088   5.198  0.0726  0.0538 -0.1222
   74SLPC  H12R 6593   1.287   5.067   5.226  0.2344 -2.0415 -0.9791
   74SLPC  C213 6594   1.438   5.037   5.079  0.2769  0.5035 -0.3020
   74SLPC  H13R 6595   1.362   4.992   5.013  0.2382 -0.9504  0.6795
   74SLPC  C214 6596   1.579   5.037   5.034 -0.0230  0.1556 -0.5709
   74SLPC  H14R 6597   1.599   4.932   5.003 -2.5076 -0.5322 -0.1193
   74SLPC  H14S 6598   1.647   5.066   5.117 -1.8939 -0.5822  1.3401
   74SLPC  C215 6599   1.596   5.147   4.931  0.1238  0.1331 -0.7418
   74SLPC  H15R 6600   1.698   5.119   4.899  0.6495 -0.6140  1.4029
   74SLPC  H15S 6601   1.602   5.251   4.970 -3.3333  0.3319 -0.3971
   74SLPC  C216 6602   1.502   5.135   4.806 -0.8084  0.2343  0.1568
   74SLPC  H16R 6603   1.416   5.205   4.808  0.4125  1.7819  0.0036
   74SLPC  H16S 6604   1.451   5.036   4.811  1.6754 -1.1070  0.6765
   74SLPC  C217 6605   1.555   5.153   4.662  0.1608  0.3921  0.7939
   74SLPC  H17R 6606   1.630   5.235   4.653  0.5971 -0.2206 -2.7080
   74SLPC  H17S 6607   1.472   5.185   4.596  0.4650 -0.2728  0.0718
   74SLPC  C218 6608   1.619   5.029   4.610  0.0444  0.6283  0.2626
   74SLPC  H18R 6609   1.697   4.996   4.681  0.6900  2.9488  0.7414
   74SLPC  H18S 6610   1.658   5.047   4.507 -0.9234 -0.0788 -0.2403
   74SLPC  H18T 6611   1.544   4.949   4.595  0.6046  0.2313 -0.4697
   74SLPC   C33 6612   1.111   4.492   5.927  0.0799  0.1576  0.0560
   74SLPC   H3X 6613   1.004   4.474   5.950  0.5005 -1.4936  0.9047
   74SLPC   H3Y 6614   1.168   4.430   6.000  0.2430 -1.0678 -1.0767
   74SLPC   C34 6615   1.166   4.453   5.794  0.2208 -1.0354  0.3307
   74SLPC   H4X 6616   1.166   4.541   5.726  2.1140  1.7685  3.5915
   74SLPC   H4Y 6617   1.085   4.385   5.760  0.7488 -1.6621  0.3114
   74SLPC   C35 6618   1.307   4.392   5.793 -0.1931 -0.5236 -0.1334
   74SLPC   H5X 6619   1.301   4.299   5.854  0.9768  0.6641  1.8955
   74SLPC   H5Y 6620   1.378   4.458   5.847 -1.5941  1.2017 -0.2914
   74SLPC   C36 6621   1.354   4.361   5.651 -0.1836 -0.6469  0.2030
   74SLPC   H6X 6622   1.346   4.454   5.590  1.9415 -1.1130 -0.9125
   74SLPC   H6Y 6623   1.293   4.283   5.601  0.1472 -0.6692 -0.1793
   74SLPC   C37 6624   1.497   4.326   5.635  0.2547 -0.0915 -0.4099
   74SLPC   H7X 6625   1.559   4.405   5.681  1.0135 -1.9566  2.0174
   74SLPC   H7Y 6626   1.510   4.310   5.526 -1.8512  0.7000 -0.8361
   74SLPC   C38 6627   1.533   4.212   5.730 -0.6284  0.5813 -0.2080
   74SLPC   H8X 6628   1.535   4.251   5.834  0.7969 -1.8302  0.7392
   74SLPC   H8Y 6629   1.633   4.180   5.695 -1.2397 -1.5761 -0.1367
   74SLPC   C39 6630   1.453   4.080   5.727 -0.4654 -0.4624 -0.4837
   74SLPC   H9X 6631   1.351   4.104   5.765 -0.4713 -1.9456  0.5230
   74SLPC   H9Y 6632   1.504   4.018   5.804  1.2789 -0.4697 -1.5944
   74SLPC  C310 6633   1.458   3.996   5.595 -0.5143 -0.9769 -0.4037
   74SLPC  H10X 6634   1.448   4.070   5.512 -0.7800  0.1619  0.6106
   74SLPC  H10Y 6635   1.369   3.930   5.586 -1.4585  0.5213 -3.9340
   74SLPC  C311 6636   1.581   3.913   5.590  0.3880 -0.4011 -0.2029
   74SLPC  H11X 6637   1.589   3.826   5.659  2.7431 -0.5914 -0.6241
   74SLPC  H11Y 6638   1.671   3.969   5.623  1.1430 -0.2313 -2.3993
   74SLPC  C312 6639   1.606   3.866   5.446 -0.0347  0.2683 -0.5240
   74SLPC  H12X 6640   1.579   3.949   5.377 -2.3966  1.8684  2.0602
   74SLPC  H12Y 6641   1.522   3.799   5.418 -1.4932  1.6221  0.3956
   74SLPC  C313 6642   1.740   3.799   5.432 -0.3063  0.1637 -0.9039
   74SLPC  H13X 6643   1.751   3.739   5.525 -1.3655 -0.5717 -1.2363
   74SLPC  H13Y 6644   1.818   3.879   5.432  2.6731 -2.5169 -0.6292
   74SLPC  C314 6645   1.731   3.714   5.304  0.9413 -0.6473 -0.2651
   74SLPC  H14X 6646   1.650   3.639   5.315  1.2810 -0.8928  0.6226
   74SLPC  H14Y 6647   1.820   3.650   5.287  0.4523 -1.0345 -1.5426
   74SLPC  C315 6648   1.724   3.801   5.178  0.2324  0.0845 -0.0248
   74SLPC  H15X 6649   1.790   3.889   5.187  1.0357 -0.5093 -0.0471
   74SLPC  H15Y 6650   1.623   3.845   5.160  0.8176  0.8038 -1.7069
   74SLPC  C316 6651   1.770   3.728   5.050  0.8909 -0.7162 -0.6589
   74SLPC  H16X 6652   1.697   3.646   5.035 -1.9078  1.1318  1.6070
   74SLPC  H16Y 6653   1.869   3.689   5.080  1.2137  1.6757  1.8203
   74SLPC  C317 6654   1.762   3.816   4.929 -0.2659 -0.2620 -0.5720
   74SLPC  H17X 6655   1.828   3.905   4.937 -0.9569  0.2624 -0.5702
   74SLPC  H17Y 6656   1.656   3.850   4.924 -1.2087 -2.8994  0.3424
   74SLPC  C318 6657   1.798   3.740   4.809 -0.1972 -0.4891 -0.0880
   74SLPC  H18X 6658   1.739   3.645   4.803  1.7559 -1.8179  0.7690
   74SLPC  H18Y 6659   1.904   3.711   4.822  0.1942 -0.6922 -2.9214
   74SLPC  H18Z 6660   1.783   3.797   4.715 -1.1665  1.1280  1.0043
   75SLPC     N 6661   6.381   2.214   6.746 -0.3269 -0.3645  0.3998
   75SLPC   C13 6662   6.426   2.333   6.828 -0.4036  0.6251 -0.2884
   75SLPC  H13A 6663   6.355   2.367   6.902  1.1860 -1.3309  2.3400
   75SLPC  H13B 6664   6.518   2.307   6.878 -1.1655  0.0952  0.8980
   75SLPC  H13C 6665   6.441   2.424   6.774  0.6251  0.5016 -0.2234
   75SLPC   C14 6666   6.389   2.091   6.832 -0.2590  0.0288  0.3248
   75SLPC  H14A 6667   6.486   2.077   6.876 -0.8074 -1.3923  1.1372
   75SLPC  H14B 6668   6.322   2.085   6.916  0.4039 -0.7436  0.8141
   75SLPC  H14C 6669   6.374   2.002   6.772  2.6719 -0.3352  0.0049
   75SLPC   C15 6670   6.471   2.188   6.629 -0.6032 -0.0311  0.2037
   75SLPC  H15A 6671   6.574   2.171   6.657 -0.3282 -0.5339 -1.0509
   75SLPC  H15B 6672   6.439   2.098   6.578 -4.4760  0.4865  1.4020
   75SLPC  H15C 6673   6.469   2.267   6.555  1.2074  1.3066  1.4773
   75SLPC   C12 6674   6.238   2.233   6.703  0.3791  0.4390 -0.3384
   75SLPC  H12A 6675   6.176   2.268   6.784 -0.2091  0.3824 -0.7661
   75SLPC  H12B 6676   6.190   2.137   6.695  1.3321 -0.2913  1.7834
   75SLPC   C11 6677   6.196   2.318   6.582 -0.4368  0.4456  0.4961
   75SLPC  H11A 6678   6.087   2.299   6.566 -0.4672  0.0226  1.1581
   75SLPC  H11B 6679   6.256   2.293   6.492  1.6225 -0.6697  2.0919
   75SLPC     P 6680   6.137   2.535   6.709 -0.1479  0.0135 -0.1122
   75SLPC   O13 6681   6.033   2.446   6.762 -0.4538 -0.1139 -0.0604
   75SLPC   O14 6682   6.226   2.604   6.807  1.0480 -0.5646 -0.3544
   75SLPC   O12 6683   6.226   2.458   6.601  0.6524  0.1854 -0.5453
   75SLPC   O11 6684   6.076   2.649   6.624  0.2221  0.3424 -0.3788
   75SLPC    C1 6685   6.003   2.615   6.497  0.2253  0.0580 -0.2053
   75SLPC    HA 6686   5.996   2.505   6.485 -1.7932  0.3405 -2.3419
   75SLPC    HB 6687   5.900   2.653   6.517  0.3018 -0.0231  0.3757
   75SLPC    C2 6688   6.052   2.694   6.372 -0.2439 -0.1756  0.4778
   75SLPC    HS 6689   5.987   2.676   6.284  2.1283  1.0969 -1.6502
   75SLPC   O21 6690   6.184   2.651   6.337  0.6173  0.1061 -0.6552
   75SLPC   C21 6691   6.186   2.522   6.291  0.4691 -0.1183 -0.5970
   75SLPC   O22 6692   6.091   2.452   6.257  0.0451 -0.4209 -0.1126
   75SLPC   C22 6693   6.332   2.474   6.292 -0.0579  0.5432  0.7650
   75SLPC   H2R 6694   6.387   2.504   6.384  2.5786  0.9099 -0.8572
   75SLPC   H2S 6695   6.339   2.364   6.286  0.6911  0.6639 -1.5896
   75SLPC    C3 6696   6.053   2.844   6.397 -0.2234  0.3521 -0.4364
   75SLPC    HX 6697   6.138   2.878   6.461  0.6069 -1.6668 -0.3642
   75SLPC    HY 6698   5.966   2.881   6.455  0.5951 -1.4174  2.1014
   75SLPC   O31 6699   6.047   2.917   6.268  0.1028 -0.2378 -0.5865
   75SLPC   C31 6700   6.164   2.922   6.207  0.1723  0.2240 -0.2763
   75SLPC   O32 6701   6.272   2.892   6.252  0.1257 -0.0927  0.0595
   75SLPC   C32 6702   6.140   3.000   6.078  0.0160 -0.0468 -0.2826
   75SLPC   H2X 6703   6.132   3.108   6.103  1.4883  0.0173  0.0105
   75SLPC   H2Y 6704   6.046   2.953   6.042 -0.1902  1.1082 -1.3328
   75SLPC   C23 6705   6.395   2.523   6.159 -0.6473 -0.1312  0.0177
   75SLPC   H3R 6706   6.505   2.515   6.170  0.1151  2.4153 -3.8388
   75SLPC   H3S 6707   6.376   2.630   6.138 -2.1939 -0.3251  0.2963
   75SLPC   C24 6708   6.360   2.462   6.022  0.0041  0.9069  0.5440
   75SLPC   H4R 6709   6.326   2.357   6.035  0.5456  0.8336  1.4173
   75SLPC   H4S 6710   6.446   2.475   5.953  0.2716  0.1087  0.7117
   75SLPC   C25 6711   6.243   2.540   5.955  0.0897  0.6916 -0.1896
   75SLPC   H5R 6712   6.285   2.642   5.945 -1.8570  1.7234  1.2888
   75SLPC   H5S 6713   6.150   2.531   6.015 -0.9704 -1.2537 -1.9754
   75SLPC   C26 6714   6.211   2.487   5.814  0.0196  0.2432 -0.0355
   75SLPC   H6R 6715   6.146   2.399   5.830 -1.1754  1.5059  2.6531
   75SLPC   H6S 6716   6.305   2.452   5.766  0.6854  1.3954  0.3811
   75SLPC   C27 6717   6.129   2.586   5.727 -0.1219  0.2683 -0.1202
   75SLPC   H7R 6718   6.204   2.647   5.672 -0.1998  3.5945  3.0604
   75SLPC   H7S 6719   6.082   2.667   5.787  0.2201  1.4626 -1.4015
   75SLPC   C28 6720   6.037   2.519   5.618  0.3015 -0.4253  0.1005
   75SLPC   H8R 6721   5.947   2.488   5.675 -1.4041  0.2190 -2.1109
   75SLPC   H8S 6722   6.082   2.425   5.577 -1.1813 -1.3617  0.5479
   75SLPC   C29 6723   5.978   2.614   5.512  0.3477 -0.3414 -0.4906
   75SLPC   H9R 6724   5.916   2.693   5.556  0.8230  0.2181 -0.8101
   75SLPC  C210 6725   5.990   2.602   5.380  0.1275  0.1611 -0.3451
   75SLPC  H10R 6726   5.950   2.684   5.317 -1.2753  1.8986  2.5758
   75SLPC  C211 6727   6.062   2.501   5.292  0.1042  0.7008  0.2636
   75SLPC  H11R 6728   6.002   2.471   5.203  0.0821 -0.7404  0.7486
   75SLPC  H11S 6729   6.074   2.410   5.354 -2.9808  0.8735  1.2516
   75SLPC  C212 6730   6.199   2.542   5.245  0.0078 -0.0028  0.7046
   75SLPC  H12R 6731   6.247   2.626   5.296  1.1915 -0.4002  0.2796
   75SLPC  C213 6732   6.259   2.495   5.137  0.0056 -0.0048  0.4873
   75SLPC  H13R 6733   6.362   2.529   5.118 -0.4003 -0.1266 -2.4147
   75SLPC  C214 6734   6.207   2.393   5.042  0.3253 -0.0621 -0.2558
   75SLPC  H14R 6735   6.124   2.342   5.094 -0.3222  1.7568  0.6067
   75SLPC  H14S 6736   6.285   2.315   5.031 -0.4911 -0.9783  0.2876
   75SLPC  C215 6737   6.162   2.430   4.904 -0.3006  0.1489 -0.6770
   75SLPC  H15R 6738   6.105   2.526   4.900 -0.0107  0.3400 -0.3069
   75SLPC  H15S 6739   6.096   2.350   4.863 -2.1328  1.7839 -1.0854
   75SLPC  C216 6740   6.283   2.435   4.807  0.5920  1.5232  0.0369
   75SLPC  H16R 6741   6.331   2.335   4.796 -0.7929  0.6344  1.6955
   75SLPC  H16S 6742   6.363   2.500   4.849  1.2815  1.7697 -1.5528
   75SLPC  C217 6743   6.249   2.487   4.673  0.1407 -0.6636 -0.4105
   75SLPC  H17R 6744   6.346   2.505   4.623 -0.1437  1.7602 -0.2526
   75SLPC  H17S 6745   6.193   2.583   4.685 -0.5080 -0.8391 -1.8184
   75SLPC  C218 6746   6.161   2.393   4.592 -0.5759  0.0397  0.0247
   75SLPC  H18R 6747   6.213   2.343   4.507 -1.6329 -0.8470 -0.1197
   75SLPC  H18S 6748   6.072   2.450   4.555  0.1103  0.4349 -1.0753
   75SLPC  H18T 6749   6.132   2.305   4.654 -0.9825  0.8297  0.9930
   75SLPC   C33 6750   6.261   2.980   5.978  0.4304 -0.3626  0.4307
   75SLPC   H3X 6751   6.277   2.873   5.949 -0.4909  0.1143 -2.1124
   75SLPC   H3Y 6752   6.349   3.038   6.012 -0.7256  1.6137  0.1835
   75SLPC   C34 6753   6.220   3.045   5.840 -0.2808  0.0316 -0.5306
   75SLPC   H4X 6754   6.240   3.154   5.849 -1.0863  0.0253  2.3188
   75SLPC   H4Y 6755   6.112   3.029   5.821 -0.9909  1.9122  1.4481
   75SLPC   C35 6756   6.292   2.973   5.730 -0.4235 -0.1143  0.1048
   75SLPC   H5X 6757   6.283   2.863   5.736 -0.9510  0.0056  2.2781
   75SLPC   H5Y 6758   6.399   2.998   5.743 -0.4816  0.6512 -0.7525
   75SLPC   C36 6759   6.246   3.021   5.590 -0.2281  0.0227 -0.2479
   75SLPC   H6X 6760   6.227   3.131   5.585  1.9953  0.4374 -1.3041
   75SLPC   H6Y 6761   6.153   2.967   5.564 -0.5040 -0.0726  0.8977
   75SLPC   C37 6762   6.345   2.979   5.483  0.5390 -0.0329 -0.6481
   75SLPC   H7X 6763   6.359   2.869   5.492 -2.0089 -0.3262  0.5946
   75SLPC   H7Y 6764   6.449   3.018   5.491  0.9967 -1.5409  1.2839
   75SLPC   C38 6765   6.292   3.008   5.341  0.5062 -0.1562  0.3733
   75SLPC   H8X 6766   6.296   3.117   5.325  0.7243  0.0395  1.6520
   75SLPC   H8Y 6767   6.185   2.978   5.339 -0.0869  1.9174 -1.1552
   75SLPC   C39 6768   6.366   2.934   5.238 -0.0927  0.0611  0.5092
   75SLPC   H9X 6769   6.383   2.831   5.275 -0.1840  0.4776  1.7539
   75SLPC   H9Y 6770   6.459   2.994   5.224 -0.4776  0.9890  1.6721
   75SLPC  C310 6771   6.280   2.930   5.105 -1.0656  0.4804  0.3520
   75SLPC  H10X 6772   6.207   3.012   5.092 -2.3097 -0.8007 -1.2385
   75SLPC  H10Y 6773   6.230   2.831   5.113  0.9258 -0.6532 -0.4327
   75SLPC  C311 6774   6.373   2.921   4.980  0.2692 -0.2394  0.3662
   75SLPC  H11X 6775   6.409   3.021   4.948  2.4063 -1.2899 -0.7121
   75SLPC  H11Y 6776   6.326   2.870   4.893 -0.2829  1.2589 -0.2666
   75SLPC  C312 6777   6.485   2.823   4.998  0.3032  0.3645 -0.0659
   75SLPC  H12X 6778   6.445   2.729   5.042  0.3838  1.9458  3.8278
   75SLPC  H12Y 6779   6.555   2.857   5.077  0.4097 -2.1390  1.0104
   75SLPC  C313 6780   6.567   2.807   4.868 -0.4309 -0.6161 -0.2738
   75SLPC  H13X 6781   6.600   2.910   4.844 -1.1859 -0.5405 -1.0012
   75SLPC  H13Y 6782   6.497   2.764   4.795 -0.0062 -1.7592 -0.0340
   75SLPC  C314 6783   6.701   2.730   4.879 -0.0118 -0.0125  0.6752
   75SLPC  H14X 6784   6.687   2.630   4.925 -1.3484  0.7640  2.0914
   75SLPC  H14Y 6785   6.762   2.781   4.957 -3.3109  1.8968  2.2412
   75SLPC  C315 6786   6.780   2.719   4.752  0.0834 -0.4468 -0.5917
   75SLPC  H15X 6787   6.878   2.671   4.773 -0.0739 -0.6751 -0.3715
   75SLPC  H15Y 6788   6.808   2.820   4.717 -0.8297  0.2630  0.6723
   75SLPC  C316 6789   6.720   2.654   4.629 -0.3537 -0.0190 -1.0791
   75SLPC  H16X 6790   6.747   2.714   4.540 -1.1567  2.4281  0.2533
   75SLPC  H16Y 6791   6.611   2.671   4.627 -0.3243  0.8480  1.5496
   75SLPC  C317 6792   6.741   2.498   4.619  0.6114 -0.3146  1.0295
   75SLPC  H17X 6793   6.849   2.472   4.622  0.1292 -2.3750  2.9406
   75SLPC  H17Y 6794   6.726   2.477   4.511 -2.1521  1.1820  1.0259
   75SLPC  C318 6795   6.660   2.403   4.706  0.4470 -0.1686 -0.4829
   75SLPC  H18X 6796   6.556   2.389   4.668  0.9687 -1.2015 -1.6066
   75SLPC  H18Y 6797   6.651   2.440   4.811  0.9608 -1.6993  0.1237
   75SLPC  H18Z 6798   6.715   2.307   4.704  1.8570  0.6241 -1.7260
   76SLPC     N 6799   0.074   4.734   6.893  0.0342  0.3865  0.3762
   76SLPC   C13 6800   0.181   4.641   6.919 -0.0755 -0.6251  0.2730
   76SLPC  H13A 6801   0.152   4.593   7.011 -0.6049  0.4221  0.6718
   76SLPC  H13B 6802   0.203   4.579   6.833 -0.5813  0.4925 -0.7096
   76SLPC  H13C 6803   0.280   4.680   6.940 -0.2272 -0.8755  1.4979
   76SLPC   C14 6804   0.086   4.845   6.992  0.5514 -0.7073  0.0440
   76SLPC  H14A 6805   0.091   4.805   7.092 -0.7043 -1.0002  0.0124
   76SLPC  H14B 6806   0.177   4.898   6.967 -0.2123  0.2112 -0.9442
   76SLPC  H14C 6807   0.015   4.923   6.967  3.3637  1.9531 -0.3592
   76SLPC   C15 6808  -0.063   4.662   6.904  0.3027 -0.0783  0.1095
   76SLPC  H15A 6809  -0.055   4.585   6.829  2.9639 -0.3603  0.5771
   76SLPC  H15B 6810  -0.075   4.620   7.003  3.0849  1.2605  1.1379
   76SLPC  H15C 6811  -0.139   4.739   6.898 -1.2587 -1.5531  0.4317
   76SLPC   C12 6812   0.093   4.792   6.752 -0.2628 -0.0240 -0.0451
   76SLPC  H12A 6813   0.192   4.835   6.744  0.7715 -2.5396 -2.5170
   76SLPC  H12B 6814   0.014   4.864   6.736 -0.1043  0.4902  1.3372
   76SLPC   C11 6815   0.078   4.699   6.630  0.2412  0.4473 -0.0377
   76SLPC  H11A 6816   0.153   4.618   6.639  0.5245  0.6608 -0.4161
   76SLPC  H11B 6817   0.094   4.762   6.540 -0.0812  1.9705  0.9323
   76SLPC     P 6818  -0.175   4.740   6.584 -0.1424  0.1927  0.1747
   76SLPC   O13 6819  -0.304   4.658   6.574  0.1848 -0.1661  0.4072
   76SLPC   O14 6820  -0.178   4.854   6.675  0.5347 -0.0706 -0.0875
   76SLPC   O12 6821  -0.055   4.647   6.625  0.2462  0.3491 -0.2836
   76SLPC   O11 6822  -0.146   4.794   6.434 -0.1199  0.3705  0.5125
   76SLPC    C1 6823  -0.115   4.707   6.324 -0.1697  0.2885  0.0791
   76SLPC    HA 6824  -0.040   4.630   6.353 -0.4160 -0.4503 -1.1742
   76SLPC    HB 6825  -0.207   4.651   6.298  0.4358 -1.2066  1.0298
   76SLPC    C2 6826  -0.057   4.782   6.198  0.1869 -0.1348 -0.0077
   76SLPC    HS 6827   0.048   4.814   6.217  0.3326  0.5525 -1.8125
   76SLPC   O21 6828  -0.141   4.902   6.169 -0.2413  0.4915 -1.0549
   76SLPC   C21 6829  -0.068   4.994   6.109 -0.3791 -0.3962  0.3199
   76SLPC   O22 6830   0.058   4.994   6.090  0.3680  0.4381  0.4352
   76SLPC   C22 6831  -0.154   5.106   6.054  0.2125  0.0231  0.5196
   76SLPC   H2R 6832  -0.250   5.116   6.108  0.4027  0.9108  0.7057
   76SLPC   H2S 6833  -0.105   5.202   6.079  1.9437 -0.6193 -0.1865
   76SLPC    C3 6834  -0.048   4.686   6.076 -0.0133  0.3723 -0.1516
   76SLPC    HX 6835  -0.141   4.679   6.014  0.1636  1.7911 -0.6140
   76SLPC    HY 6836  -0.027   4.587   6.123 -0.4836  2.2297  4.4925
   76SLPC   O31 6837   0.063   4.714   5.994  0.4710  0.4811  0.7886
   76SLPC   C31 6838   0.044   4.769   5.881 -0.7837 -0.5701  0.4363
   76SLPC   O32 6839  -0.054   4.798   5.821  0.6370  0.4197  0.1226
   76SLPC   C32 6840   0.195   4.813   5.837  0.0942  0.4586  0.1841
   76SLPC   H2X 6841   0.271   4.759   5.896 -0.7300 -0.7706  0.1663
   76SLPC   H2Y 6842   0.185   4.914   5.881 -0.7505  0.6477 -0.3923
   76SLPC   C23 6843  -0.184   5.088   5.901  0.0270  0.6761 -0.2028
   76SLPC   H3R 6844  -0.276   5.147   5.883  0.5838  1.4438 -0.5770
   76SLPC   H3S 6845  -0.195   4.979   5.883  0.7369  0.6237 -0.3559
   76SLPC   C24 6846  -0.083   5.140   5.806 -0.2907  0.4638  0.0561
   76SLPC   H4R 6847   0.016   5.090   5.817 -0.0210  0.7045 -1.1063
   76SLPC   H4S 6848  -0.065   5.245   5.835 -0.0534  0.3236  0.4299
   76SLPC   C25 6849  -0.122   5.128   5.657 -0.1765  0.2799 -0.3484
   76SLPC   H5R 6850  -0.199   5.205   5.635  0.4979  0.5556 -1.8835
   76SLPC   H5S 6851  -0.164   5.027   5.637 -1.7299  0.8260  0.0511
   76SLPC   C26 6852   0.004   5.154   5.568  0.0288  0.0893 -0.0078
   76SLPC   H6R 6853   0.072   5.070   5.595  1.0828  0.9587  0.0790
   76SLPC   H6S 6854   0.041   5.258   5.571 -0.6909  0.3808 -0.6456
   76SLPC   C27 6855  -0.031   5.128   5.420  0.8392  0.1985  0.5705
   76SLPC   H7R 6856  -0.106   5.203   5.384 -0.2785 -0.6278  1.1139
   76SLPC   H7S 6857  -0.073   5.027   5.405 -1.1454  1.3742 -3.3399
   76SLPC   C28 6858   0.089   5.138   5.321 -0.0775 -0.0507  0.7867
   76SLPC   H8R 6859   0.167   5.062   5.345  0.8686  0.2831 -1.0385
   76SLPC   H8S 6860   0.140   5.234   5.339  1.7384 -0.5088 -1.3666
   76SLPC   C29 6861   0.053   5.124   5.168 -0.0705  0.0329 -0.1562
   76SLPC   H9R 6862  -0.025   5.050   5.149  0.0917 -0.1399 -0.1497
   76SLPC  C210 6863   0.100   5.203   5.067  0.4469 -0.4018  0.2490
   76SLPC  H10R 6864   0.069   5.177   4.964  2.5024 -0.2443 -0.4539
   76SLPC  C211 6865   0.209   5.308   5.082  0.0908  0.0301 -0.4778
   76SLPC  H11R 6866   0.235   5.333   5.187  0.8990 -1.8947 -0.1750
   76SLPC  H11S 6867   0.175   5.401   5.032 -0.9881 -0.4680 -0.6907
   76SLPC  C212 6868   0.336   5.273   5.014 -0.1639  0.0204  0.0537
   76SLPC  H12R 6869   0.332   5.312   4.912  0.9108  1.9576  0.6996
   76SLPC  C213 6870   0.444   5.231   5.073 -0.9184 -0.3105  0.4134
   76SLPC  H13R 6871   0.529   5.200   5.009 -3.1798 -1.1805 -2.3897
   76SLPC  C214 6872   0.452   5.202   5.226  0.1796  0.1820  0.6657
   76SLPC  H14R 6873   0.499   5.103   5.242 -1.6105 -1.3923 -2.7764
   76SLPC  H14S 6874   0.353   5.195   5.276  0.5304  0.1996  1.3700
   76SLPC  C215 6875   0.547   5.308   5.291  0.2873  0.5030 -0.0041
   76SLPC  H15R 6876   0.490   5.402   5.301 -1.4188 -0.6270  1.5612
   76SLPC  H15S 6877   0.640   5.329   5.233  1.0387 -0.7244  0.7145
   76SLPC  C216 6878   0.609   5.269   5.428  0.7336 -0.1174 -0.3678
   76SLPC  H16R 6879   0.660   5.171   5.418 -1.7849 -1.7198  1.2881
   76SLPC  H16S 6880   0.528   5.247   5.500  0.4910  0.1548 -0.5536
   76SLPC  C217 6881   0.700   5.379   5.476  0.0190 -0.0851 -0.0556
   76SLPC  H17R 6882   0.641   5.473   5.471  1.2612  0.6830 -0.9463
   76SLPC  H17S 6883   0.783   5.378   5.402  0.6129 -0.6785  0.6012
   76SLPC  C218 6884   0.746   5.354   5.621 -0.1157 -0.2777 -0.3989
   76SLPC  H18R 6885   0.810   5.264   5.636 -2.6994 -2.1411  0.2585
   76SLPC  H18S 6886   0.658   5.341   5.688  0.5977  1.3290  0.9226
   76SLPC  H18T 6887   0.797   5.446   5.654 -1.3676  0.1913  0.2962
   76SLPC   C33 6888   0.222   4.782   5.685  0.3160  0.4036 -0.5952
   76SLPC   H3X 6889   0.145   4.821   5.615  1.0004 -2.8487 -3.4773
   76SLPC   H3Y 6890   0.228   4.673   5.665  2.6957  0.3552  0.0596
   76SLPC   C34 6891   0.364   4.829   5.645  0.2448  0.4584  0.0114
   76SLPC   H4X 6892   0.430   4.765   5.706 -0.8532  1.2556  2.1342
   76SLPC   H4Y 6893   0.370   4.937   5.670  0.1867  0.9543 -1.9838
   76SLPC   C35 6894   0.383   4.808   5.494  0.2344  0.1539 -0.4582
   76SLPC   H5X 6895   0.298   4.844   5.433  0.6953  0.7048 -0.7819
   76SLPC   H5Y 6896   0.400   4.701   5.469  2.1012  0.3283 -0.1005
   76SLPC   C36 6897   0.515   4.882   5.452 -0.0748  1.3267  0.4961
   76SLPC   H6X 6898   0.588   4.849   5.529 -2.0635 -0.2860  1.8000
   76SLPC   H6Y 6899   0.498   4.992   5.456  2.0143  1.6726  1.1423
   76SLPC   C37 6900   0.552   4.837   5.312  0.7002 -0.3320  0.2192
   76SLPC   H7X 6901   0.577   4.730   5.327 -1.5525 -1.1768 -1.6443
   76SLPC   H7Y 6902   0.649   4.883   5.282  0.3328  1.0163  0.9823
   76SLPC   C38 6903   0.436   4.842   5.204 -0.2902  0.1488  0.1000
   76SLPC   H8X 6904   0.388   4.942   5.198 -0.5979 -0.0693 -1.3722
   76SLPC   H8Y 6905   0.349   4.782   5.239 -2.0748  2.3518 -0.2854
   76SLPC   C39 6906   0.496   4.800   5.069  0.3489  0.6205  0.0788
   76SLPC   H9X 6907   0.560   4.710   5.063 -1.0424 -0.3700 -0.4477
   76SLPC   H9Y 6908   0.547   4.882   5.013 -1.7729  1.0011 -1.3974
   76SLPC  C310 6909   0.381   4.778   4.964  0.5792  0.3380 -0.5899
   76SLPC  H10X 6910   0.323   4.689   4.996  1.1859  0.1290 -0.0322
   76SLPC  H10Y 6911   0.421   4.757   4.862  1.0141 -0.9374 -0.1866
   76SLPC  C311 6912   0.295   4.900   4.960  0.1597 -0.3848  0.0737
   76SLPC  H11X 6913   0.358   4.991   4.954 -0.5746  0.0440 -1.5709
   76SLPC  H11Y 6914   0.229   4.905   5.049 -0.8844  0.0186 -0.6935
   76SLPC  C312 6915   0.207   4.907   4.829  0.5087 -0.5377 -0.0665
   76SLPC  H12X 6916   0.253   4.859   4.740 -0.6768  1.9176 -2.1408
   76SLPC  H12Y 6917   0.189   5.015   4.807  1.4155 -0.2282  0.6628
   76SLPC  C313 6918   0.074   4.833   4.848 -0.0513  0.2814 -0.1515
   76SLPC  H13X 6919   0.019   4.880   4.932 -2.5225 -0.3450 -1.3535
   76SLPC  H13Y 6920   0.108   4.728   4.867  1.4278  1.0365  1.7115
   76SLPC  C314 6921  -0.031   4.833   4.734 -0.6938 -0.2364 -0.2669
   76SLPC  H14X 6922  -0.088   4.928   4.726 -1.9819 -0.7288  2.0167
   76SLPC  H14Y 6923  -0.109   4.755   4.752 -0.7823  0.0405  0.6293
   76SLPC  C315 6924   0.037   4.787   4.606  0.4021 -0.2270  0.0815
   76SLPC  H15X 6925   0.095   4.697   4.636  0.4269 -0.1391  0.2988
   76SLPC  H15Y 6926   0.112   4.859   4.567  1.3863 -1.0185  0.4475
   76SLPC  C316 6927  -0.074   4.770   4.500 -0.0629  0.1501  0.2122
   76SLPC  H16X 6928  -0.119   4.866   4.466 -2.9342 -0.6078  1.5743
   76SLPC  H16Y 6929  -0.159   4.715   4.546  1.6333 -0.3849  2.9669
   76SLPC  C317 6930  -0.024   4.694   4.384 -0.1049 -0.1047  0.3841
   76SLPC  H17X 6931   0.026   4.600   4.417 -0.9568 -1.5490 -2.1541
   76SLPC  H17Y 6932   0.050   4.764   4.339  1.0568  0.0271  2.3560
   76SLPC  C318 6933  -0.134   4.655   4.284  0.7153 -0.0640  1.0755
   76SLPC  H18X 6934  -0.201   4.571   4.314 -0.4668  0.3791 -0.1938
   76SLPC  H18Y 6935  -0.087   4.604   4.197 -0.5605 -1.6839  1.2652
   76SLPC  H18Z 6936  -0.195   4.738   4.242 -0.5945 -1.6723 -0.3749
   77SLPC     N 6937   6.433   3.212   6.479  0.4410  0.1690 -0.1162
   77SLPC   C13 6938   6.318   3.252   6.564 -0.6914 -0.8848 -0.2199
   77SLPC  H13A 6939   6.348   3.236   6.666  1.4704  0.2960 -0.6105
   77SLPC  H13B 6940   6.305   3.359   6.554  0.7541 -0.3557  2.5228
   77SLPC  H13C 6941   6.223   3.209   6.536 -0.5768 -1.5067  0.3261
   77SLPC   C14 6942   6.381   3.194   6.342  0.4782 -0.0126  0.6235
   77SLPC  H14A 6943   6.317   3.107   6.338 -0.5589  0.7822 -0.5587
   77SLPC  H14B 6944   6.317   3.276   6.315 -1.3040 -1.6244 -0.2615
   77SLPC  H14C 6945   6.454   3.168   6.267 -1.9095 -3.3175 -0.8174
   77SLPC   C15 6946   6.482   3.074   6.526  0.3885  0.5506 -0.0577
   77SLPC  H15A 6947   6.411   2.994   6.511  1.3435 -0.6276  1.3396
   77SLPC  H15B 6948   6.568   3.044   6.468 -1.1373 -0.6876 -1.7831
   77SLPC  H15C 6949   6.492   3.067   6.633 -1.3230 -1.1943  0.0387
   77SLPC   C12 6950   6.554   3.310   6.476 -0.5371  0.4337 -0.6405
   77SLPC  H12A 6951   6.632   3.248   6.434  0.5370  0.4113  1.3101
   77SLPC  H12B 6952   6.592   3.323   6.576  0.9578 -1.1701 -0.9642
   77SLPC   C11 6953   6.537   3.449   6.414 -0.1766 -0.1266  0.1906
   77SLPC  H11A 6954   6.505   3.430   6.309  0.2192 -2.8318  0.4896
   77SLPC  H11B 6955   6.641   3.486   6.401  0.0056 -1.4137 -2.8600
   77SLPC     P 6956   6.512   3.622   6.604 -0.1309  0.1531  0.2481
   77SLPC   O13 6957   6.413   3.645   6.705  0.0986 -0.5420  0.0315
   77SLPC   O14 6958   6.637   3.546   6.645  0.0864  0.3202  0.1594
   77SLPC   O12 6959   6.446   3.535   6.490  0.0583 -0.4140  0.6040
   77SLPC   O11 6960   6.552   3.758   6.536 -0.0023 -0.0079  0.0802
   77SLPC    C1 6961   6.445   3.837   6.492 -0.4808 -0.1797  0.0551
   77SLPC    HA 6962   6.360   3.831   6.563 -0.6550 -1.2856 -0.2337
   77SLPC    HB 6963   6.481   3.940   6.468 -0.0780 -0.6668 -1.5177
   77SLPC    C2 6964   6.400   3.799   6.344 -1.0358 -1.0292  0.6003
   77SLPC    HS 6965   6.353   3.699   6.360  0.0686 -1.3287  2.1869
   77SLPC   O21 6966   6.517   3.798   6.261 -0.5662 -0.1850 -0.4343
   77SLPC   C21 6967   6.534   3.699   6.176 -0.7196 -0.0585  0.3298
   77SLPC   O22 6968   6.464   3.606   6.152 -0.6382  0.4524 -0.1413
   77SLPC   C22 6969   6.676   3.710   6.112 -0.5865  0.3819  0.6641
   77SLPC   H2R 6970   6.735   3.791   6.160  1.0029  0.1482 -0.7668
   77SLPC   H2S 6971   6.721   3.608   6.123  0.3733  0.7731  0.4717
   77SLPC    C3 6972   6.297   3.894   6.280  0.5179  0.3816  0.3103
   77SLPC    HX 6973   6.212   3.903   6.351  0.3218  0.6925  0.0351
   77SLPC    HY 6974   6.261   3.858   6.181  0.2532  1.8646 -0.1545
   77SLPC   O31 6975   6.335   4.028   6.274 -0.1361 -0.1381  0.7374
   77SLPC   C31 6976   6.412   4.065   6.170  0.4306  0.0322  0.6916
   77SLPC   O32 6977   6.437   3.986   6.081 -0.4139 -0.5861  0.4778
   77SLPC   C32 6978   6.432   4.213   6.162  0.9753 -0.8360  0.8138
   77SLPC   H2X 6979   6.475   4.240   6.261 -0.8728  3.2471  0.6975
   77SLPC   H2Y 6980   6.333   4.262   6.167  0.7618 -1.1304 -0.3165
   77SLPC   C23 6981   6.652   3.726   5.954  0.0516 -0.0359 -0.8113
   77SLPC   H3R 6982   6.555   3.777   5.935  0.1227 -0.2583 -1.8481
   77SLPC   H3S 6983   6.657   3.626   5.908  0.5705  0.2919 -1.4850
   77SLPC   C24 6984   6.758   3.817   5.890  0.3975 -0.6145 -0.2497
   77SLPC   H4R 6985   6.861   3.805   5.929  0.9591  2.7302 -0.4232
   77SLPC   H4S 6986   6.739   3.917   5.935  3.2750 -0.7732  1.5898
   77SLPC   C25 6987   6.746   3.853   5.744 -1.0164  0.2477  0.2536
   77SLPC   H5R 6988   6.768   3.762   5.684 -2.6475  0.2415 -0.4004
   77SLPC   H5S 6989   6.828   3.922   5.714  0.1983 -1.7580 -1.3685
   77SLPC   C26 6990   6.607   3.902   5.702 -0.0018 -0.1503  0.0171
   77SLPC   H6R 6991   6.583   3.974   5.783  1.7926 -0.9043  1.2763
   77SLPC   H6S 6992   6.530   3.823   5.690 -0.5183  0.5029 -1.2207
   77SLPC   C27 6993   6.614   3.983   5.572 -0.6523  0.4309  0.5870
   77SLPC   H7R 6994   6.683   4.066   5.598 -0.9346  1.0153 -0.4672
   77SLPC   H7S 6995   6.517   4.034   5.557  0.2632  1.5140 -2.3927
   77SLPC   C28 6996   6.656   3.904   5.453  0.1381  0.1750 -0.2613
   77SLPC   H8R 6997   6.592   3.814   5.450  0.4699 -0.2331  2.4381
   77SLPC   H8S 6998   6.756   3.857   5.463 -0.1652 -0.1080  1.6890
   77SLPC   C29 6999   6.639   3.988   5.329  0.2338  0.1914  0.0740
   77SLPC   H9R 7000   6.692   4.083   5.346  0.2989  0.0086  0.9721
   77SLPC  C210 7001   6.564   3.962   5.223  0.5523 -0.5161 -0.1090
   77SLPC  H10R 7002   6.561   4.027   5.134 -0.5170 -2.6386 -1.7143
   77SLPC  C211 7003   6.487   3.835   5.190  1.2367 -0.1248  0.6620
   77SLPC  H11R 7004   6.436   3.782   5.273 -1.6236 -0.6361 -1.2929
   77SLPC  H11S 7005   6.557   3.753   5.160  0.2998 -0.2684 -1.3283
   77SLPC  C212 7006   6.379   3.863   5.092 -0.2501  0.2261  1.1638
   77SLPC  H12R 7007   6.309   3.941   5.127 -0.6186 -0.2514  1.4956
   77SLPC  C213 7008   6.342   3.798   4.979  0.1276  0.1193  0.7522
   77SLPC  H13R 7009   6.268   3.851   4.917 -0.3428 -0.1176  1.1056
   77SLPC  C214 7010   6.403   3.667   4.925 -0.4255 -0.6660  0.7463
   77SLPC  H14R 7011   6.319   3.604   4.891 -1.9904  0.8121  1.7362
   77SLPC  H14S 7012   6.455   3.603   5.000  0.9645 -0.4656  0.0001
   77SLPC  C215 7013   6.493   3.665   4.795  0.4054 -0.5136  0.1494
   77SLPC  H15R 7014   6.433   3.708   4.712 -0.3441 -0.3525  0.7684
   77SLPC  H15S 7015   6.512   3.560   4.765  0.2530 -0.6932  0.6746
   77SLPC  C216 7016   6.619   3.750   4.815 -0.5372 -0.5582  0.8211
   77SLPC  H16R 7017   6.654   3.742   4.920  1.7367  2.8788  0.4756
   77SLPC  H16S 7018   6.595   3.854   4.786  0.9104 -1.2690 -3.7087
   77SLPC  C217 7019   6.732   3.706   4.721 -0.4353 -0.3367  0.1042
   77SLPC  H17R 7020   6.756   3.598   4.716  1.9760  0.0161  1.9554
   77SLPC  H17S 7021   6.824   3.753   4.763 -1.3310 -0.1332  1.9785
   77SLPC  C218 7022   6.699   3.763   4.582 -0.1552 -0.4534 -0.3067
   77SLPC  H18R 7023   6.784   3.742   4.513  0.2441  1.3008 -0.3889
   77SLPC  H18S 7024   6.684   3.873   4.573 -2.1721 -0.7026 -0.3379
   77SLPC  H18T 7025   6.606   3.718   4.541 -0.5131  0.7654 -0.8934
   77SLPC   C33 7026   6.514   4.269   6.040 -0.6909 -0.6245  0.1153
   77SLPC   H3X 7027   6.589   4.193   6.010 -0.4282 -0.4451  0.3098
   77SLPC   H3Y 7028   6.556   4.359   6.090 -2.7680  0.4647  0.0211
   77SLPC   C34 7029   6.439   4.336   5.921  0.6492  0.3904  0.3597
   77SLPC   H4X 7030   6.380   4.423   5.955 -1.7574 -2.0258  2.9461
   77SLPC   H4Y 7031   6.366   4.266   5.873  0.5313  0.1574  0.8805
   77SLPC   C35 7032   6.532   4.363   5.805 -0.4062  0.2771  0.3193
   77SLPC   H5X 7033   6.587   4.268   5.787 -1.4031 -0.3556  0.5102
   77SLPC   H5Y 7034   6.598   4.451   5.815  1.7693 -0.8714 -2.6070
   77SLPC   C36 7035   6.448   4.388   5.672 -0.0568  0.2514 -0.2572
   77SLPC   H6X 7036   6.393   4.483   5.692  0.6865  0.1754  2.4640
   77SLPC   H6Y 7037   6.376   4.312   5.635 -0.5732  0.5453  0.1289
   77SLPC   C37 7038   6.546   4.421   5.555 -0.0186  0.3165 -0.0946
   77SLPC   H7X 7039   6.606   4.328   5.544 -1.8813 -0.8094 -1.1972
   77SLPC   H7Y 7040   6.619   4.502   5.577  1.7828 -1.1713 -0.3675
   77SLPC   C38 7041   6.468   4.466   5.433 -0.1492  0.1580  0.5583
   77SLPC   H8X 7042   6.411   4.557   5.461 -1.7847 -0.6195 -0.1685
   77SLPC   H8Y 7043   6.390   4.397   5.394 -0.1198  0.3529  0.1497
   77SLPC   C39 7044   6.552   4.512   5.314  0.4538  1.2194  0.0398
   77SLPC   H9X 7045   6.625   4.435   5.281 -1.0261  0.0419 -0.5894
   77SLPC   H9Y 7046   6.610   4.600   5.350  0.2937  1.9940 -1.5405
   77SLPC  C310 7047   6.447   4.549   5.208 -0.0860 -0.7594 -0.1464
   77SLPC  H10X 7048   6.353   4.587   5.253 -1.5926 -3.1261 -1.1065
   77SLPC  H10Y 7049   6.431   4.456   5.150  1.6786  0.3061 -2.5223
   77SLPC  C311 7050   6.494   4.650   5.106  0.0012 -0.2383 -0.4548
   77SLPC  H11X 7051   6.517   4.743   5.163 -1.1834 -1.0756  1.4993
   77SLPC  H11Y 7052   6.416   4.686   5.036  0.4167  0.4491 -0.5765
   77SLPC  C312 7053   6.630   4.610   5.037  0.4294 -0.1774  0.0945
   77SLPC  H12X 7054   6.708   4.628   5.114  2.1976 -1.4846 -1.3095
   77SLPC  H12Y 7055   6.639   4.675   4.947 -0.4740  0.6879  0.6047
   77SLPC  C313 7056   6.637   4.466   4.990  0.8777  0.3086  0.4526
   77SLPC  H13X 7057   6.631   4.400   5.080  1.2703 -1.1224 -0.5190
   77SLPC  H13Y 7058   6.739   4.442   4.952  1.0114 -1.2401  1.6727
   77SLPC  C314 7059   6.550   4.425   4.871  0.5626 -0.5548 -0.7419
   77SLPC  H14X 7060   6.598   4.478   4.786  0.4660 -0.9420 -1.0388
   77SLPC  H14Y 7061   6.448   4.466   4.884  0.4066 -0.8429 -1.0493
   77SLPC  C315 7062   6.532   4.277   4.837 -1.2838 -0.4224 -0.0069
   77SLPC  H15X 7063   6.453   4.229   4.898 -1.4627  0.1238  0.1949
   77SLPC  H15Y 7064   6.625   4.222   4.863 -0.9928  1.1624  2.6475
   77SLPC  C316 7065   6.502   4.251   4.688  0.5601  0.7727  0.7628
   77SLPC  H16X 7066   6.585   4.290   4.625 -0.7095  1.4690 -0.5305
   77SLPC  H16Y 7067   6.410   4.301   4.652 -0.1387 -0.5110  0.7041
   77SLPC  C317 7068   6.480   4.100   4.667  0.1093 -0.0604  1.0431
   77SLPC  H17X 7069   6.399   4.066   4.735 -0.3129 -3.0371 -0.7432
   77SLPC  H17Y 7070   6.577   4.062   4.705  1.4042  0.9490 -1.0793
   77SLPC  C318 7071   6.454   4.064   4.517  0.3550 -0.2241  0.3722
   77SLPC  H18X 7072   6.397   4.148   4.471  1.4903 -0.0350 -0.7620
   77SLPC  H18Y 7073   6.391   3.974   4.505  1.2500 -0.6512 -1.4246
   77SLPC  H18Z 7074   6.552   4.054   4.465  0.7453  0.4609  0.9385
   78SLPC     N 7075   0.978   0.735   6.790  0.0327 -0.3271 -0.1381
   78SLPC   C13 7076   0.839   0.787   6.770  0.0985 -0.1263 -0.5365
   78SLPC  H13A 7077   0.772   0.709   6.802  0.3149  0.5585  1.8216
   78SLPC  H13B 7078   0.825   0.860   6.849 -0.3362 -1.5255  0.7171
   78SLPC  H13C 7079   0.813   0.822   6.671  2.2175 -0.6408 -1.3428
   78SLPC   C14 7080   1.009   0.620   6.703  0.1706  0.3976 -0.1277
   78SLPC  H14A 7081   1.029   0.639   6.599 -0.0757 -0.6145 -0.3641
   78SLPC  H14B 7082   1.097   0.564   6.730 -0.7309 -0.6204  0.8395
   78SLPC  H14C 7083   0.930   0.548   6.718  1.4168 -0.6751  1.5603
   78SLPC   C15 7084   0.997   0.685   6.934  0.0157  0.3017  0.0861
   78SLPC  H15A 7085   0.983   0.762   7.008 -2.0668  1.1905 -1.1247
   78SLPC  H15B 7086   0.944   0.597   6.967  0.5210 -0.1775 -0.3459
   78SLPC  H15C 7087   1.101   0.655   6.940 -0.2802 -0.5009  1.8713
   78SLPC   C12 7088   1.078   0.842   6.763  0.6325  0.1024  0.2966
   78SLPC  H12A 7089   1.175   0.803   6.788  1.5618  0.4732 -2.3801
   78SLPC  H12B 7090   1.073   0.926   6.832 -0.0027  0.5471 -0.2747
   78SLPC   C11 7091   1.090   0.898   6.617  0.0926  0.2711 -0.3086
   78SLPC  H11A 7092   1.112   0.808   6.556 -1.7738 -0.3800 -0.0965
   78SLPC  H11B 7093   1.176   0.968   6.609 -0.1129  0.6076  0.3564
   78SLPC     P 7094   0.930   1.098   6.636 -0.1928  0.1642 -0.1680
   78SLPC   O13 7095   0.795   1.108   6.692  0.1230  0.0389  0.7920
   78SLPC   O14 7096   1.039   1.140   6.727 -0.0122 -0.5755  0.5578
   78SLPC   O12 7097   0.968   0.956   6.566  0.5949 -0.2026  0.1560
   78SLPC   O11 7098   0.940   1.206   6.515  0.1100 -0.0840 -0.0184
   78SLPC    C1 7099   1.054   1.202   6.423 -0.3523  0.2883  0.5775
   78SLPC    HA 7100   1.081   1.303   6.385  0.9390 -0.4502 -0.5685
   78SLPC    HB 7101   1.151   1.175   6.471 -0.7783  2.2486  2.7182
   78SLPC    C2 7102   1.036   1.105   6.300  0.1160  0.1093 -0.3351
   78SLPC    HS 7103   1.071   1.004   6.330  0.5065  0.4325  0.3372
   78SLPC   O21 7104   1.108   1.172   6.196  0.4659  0.8351 -0.0031
   78SLPC   C21 7105   1.140   1.091   6.097 -0.1863 -0.4177  0.4606
   78SLPC   O22 7106   1.122   0.969   6.100  0.0021  0.2042  0.5529
   78SLPC   C22 7107   1.213   1.172   5.985  0.5050 -0.5755  0.5561
   78SLPC   H2R 7108   1.131   1.191   5.912  0.2539 -0.5193  0.8547
   78SLPC   H2S 7109   1.253   1.268   6.026 -0.9311  0.5104 -0.4935
   78SLPC    C3 7110   0.883   1.086   6.259 -0.0695 -0.6858 -0.3717
   78SLPC    HX 7111   0.848   1.190   6.243  0.2868  0.4290  4.4108
   78SLPC    HY 7112   0.831   1.053   6.352 -1.6526  2.7784  0.1437
   78SLPC   O31 7113   0.855   0.991   6.159 -0.4315 -0.2042 -0.1614
   78SLPC   C31 7114   0.731   0.987   6.120 -0.2392 -0.1639 -0.0200
   78SLPC   O32 7115   0.643   1.057   6.169  0.1494 -0.0311  0.7210
   78SLPC   C32 7116   0.705   0.902   5.987 -0.4763  0.3493 -0.0424
   78SLPC   H2X 7117   0.636   0.958   5.921  0.8263 -0.8421 -2.5475
   78SLPC   H2Y 7118   0.646   0.817   6.027 -0.4324  0.8578  1.1473
   78SLPC   C23 7119   1.327   1.093   5.920  0.1133 -0.2703 -0.3170
   78SLPC   H3R 7120   1.284   1.005   5.866  0.0571 -0.0514 -0.6287
   78SLPC   H3S 7121   1.391   1.039   5.994 -0.5690 -0.6601  0.0053
   78SLPC   C24 7122   1.425   1.177   5.840  0.5385 -0.5622 -0.0309
   78SLPC   H4R 7123   1.520   1.192   5.896  0.1011  3.5214 -0.0833
   78SLPC   H4S 7124   1.403   1.281   5.808  2.2432 -0.2549 -0.2944
   78SLPC   C25 7125   1.475   1.110   5.708 -0.1400 -0.9743  0.4196
   78SLPC   H5R 7126   1.397   1.117   5.629 -1.4863 -0.7891  1.7140
   78SLPC   H5S 7127   1.478   0.999   5.716 -1.1913 -1.1107 -0.6741
   78SLPC   C26 7128   1.613   1.161   5.663 -0.0190  0.3612 -0.2330
   78SLPC   H6R 7129   1.683   1.140   5.746  0.5057 -0.6031 -0.8981
   78SLPC   H6S 7130   1.603   1.272   5.655 -0.9564  0.2936 -0.1008
   78SLPC   C27 7131   1.658   1.094   5.532 -0.2331 -0.0899  0.8663
   78SLPC   H7R 7132   1.679   0.985   5.534  0.1103 -0.0277  0.8104
   78SLPC   H7S 7133   1.748   1.156   5.512 -1.8189  2.2662  0.6035
   78SLPC   C28 7134   1.568   1.123   5.402  0.2447  0.2003  0.0486
   78SLPC   H8R 7135   1.528   1.227   5.411  0.9465  0.4008  1.0953
   78SLPC   H8S 7136   1.476   1.061   5.410 -0.2352  0.9606  0.6051
   78SLPC   C29 7137   1.628   1.093   5.273 -0.4375  0.1073 -0.0617
   78SLPC   H9R 7138   1.737   1.077   5.280 -0.4553  0.6110  1.8345
   78SLPC  C210 7139   1.571   1.071   5.149  0.3332 -0.3286 -0.4218
   78SLPC  H10R 7140   1.634   1.047   5.063  0.8879  0.7684 -0.3340
   78SLPC  C211 7141   1.426   1.092   5.130 -0.0204 -0.0586  0.0493
   78SLPC  H11R 7142   1.377   1.113   5.228  2.7190  0.7414  1.3768
   78SLPC  H11S 7143   1.388   0.992   5.102 -0.4509  0.2250 -0.3782
   78SLPC  C212 7144   1.379   1.190   5.027  1.3474  0.8809  0.7338
   78SLPC  H12R 7145   1.336   1.284   5.065  0.7287  1.0623 -0.3598
   78SLPC  C213 7146   1.379   1.170   4.895  0.2870 -0.2320 -1.0460
   78SLPC  H13R 7147   1.343   1.252   4.831  0.8962 -2.0535 -3.9595
   78SLPC  C214 7148   1.420   1.049   4.820 -0.0144 -0.2866 -0.4722
   78SLPC  H14R 7149   1.353   1.000   4.745 -0.8897  0.9124 -0.4851
   78SLPC  H14S 7150   1.435   0.972   4.898  1.1480  0.2488 -0.1427
   78SLPC  C215 7151   1.554   1.069   4.765 -0.4097 -0.1736  0.3907
   78SLPC  H15R 7152   1.622   1.101   4.847  0.2981 -0.9702  0.1346
   78SLPC  H15S 7153   1.559   1.147   4.686  0.6147 -1.2022 -0.6013
   78SLPC  C216 7154   1.615   0.932   4.705 -0.2152  0.2451  0.4405
   78SLPC  H16R 7155   1.541   0.887   4.636 -0.6494 -0.0051  1.0611
   78SLPC  H16S 7156   1.626   0.870   4.797 -1.1740  0.8385  0.9790
   78SLPC  C217 7157   1.753   0.930   4.632  0.5707 -0.6538 -0.1634
   78SLPC  H17R 7158   1.756   0.838   4.571  1.1584  0.5421 -2.0149
   78SLPC  H17S 7159   1.838   0.922   4.703  0.1179 -0.1335  0.4451
   78SLPC  C218 7160   1.781   1.052   4.536 -0.0760  0.2848 -0.5992
   78SLPC  H18R 7161   1.690   1.077   4.477 -1.8059  0.7441  2.0930
   78SLPC  H18S 7162   1.868   1.036   4.469  1.9726 -0.6499  2.0964
   78SLPC  H18T 7163   1.812   1.137   4.600  2.3088 -0.1740 -1.0436
   78SLPC   C33 7164   0.832   0.844   5.913 -0.1859 -0.1734  0.1490
   78SLPC   H3X 7165   0.793   0.754   5.859  1.6666 -0.9315  0.0169
   78SLPC   H3Y 7166   0.907   0.809   5.987 -0.3257 -1.1353 -0.1488
   78SLPC   C34 7167   0.892   0.948   5.822 -0.1507 -0.6751 -0.5848
   78SLPC   H4X 7168   0.915   1.042   5.875 -1.7639 -1.5363  1.8102
   78SLPC   H4Y 7169   0.818   0.982   5.746  0.1106 -0.5606 -0.7905
   78SLPC   C35 7170   1.029   0.901   5.759 -0.5132 -0.4328 -0.6163
   78SLPC   H5X 7171   1.015   0.795   5.729 -0.9583 -0.7209  0.5376
   78SLPC   H5Y 7172   1.096   0.882   5.847 -1.2418 -2.2460 -0.4087
   78SLPC   C36 7173   1.080   0.986   5.648 -0.3695 -0.7611 -0.1834
   78SLPC   H6X 7174   1.181   0.947   5.622 -0.2280 -0.7776  0.3931
   78SLPC   H6Y 7175   1.082   1.094   5.674  0.1022 -1.4180  2.8672
   78SLPC   C37 7176   0.999   0.970   5.520  0.4152 -0.3994  0.2964
   78SLPC   H7X 7177   0.892   0.985   5.544  0.2401 -1.3184  0.1370
   78SLPC   H7Y 7178   1.000   0.864   5.486  1.6959 -0.2855 -0.0807
   78SLPC   C38 7179   1.060   1.058   5.405  0.1436 -0.0302 -0.1968
   78SLPC   H8X 7180   1.168   1.035   5.402  0.4505  0.8272  2.3213
   78SLPC   H8Y 7181   1.038   1.165   5.426  1.2994  0.0486  0.7176
   78SLPC   C39 7182   1.013   1.017   5.263 -0.1077 -0.2782  0.2294
   78SLPC   H9X 7183   1.033   1.107   5.201 -0.7387 -1.3937 -1.6922
   78SLPC   H9Y 7184   0.902   1.012   5.268 -0.1746 -0.0300 -0.7705
   78SLPC  C310 7185   1.070   0.885   5.218 -0.7216  0.3373  0.0707
   78SLPC  H10X 7186   1.039   0.811   5.294 -0.0943 -0.2364 -0.2297
   78SLPC  H10Y 7187   1.181   0.882   5.221 -0.7129  1.1717  1.9370
   78SLPC  C311 7188   1.016   0.840   5.083 -0.5848  0.0345  0.7988
   78SLPC  H11X 7189   0.906   0.851   5.080 -0.9323 -2.9428 -1.2364
   78SLPC  H11Y 7190   1.041   0.732   5.074  0.3493 -0.0558  3.6202
   78SLPC  C312 7191   1.091   0.923   4.971 -0.1265 -0.2402 -0.3084
   78SLPC  H12X 7192   1.200   0.928   4.988 -0.3126 -2.6040  2.3606
   78SLPC  H12Y 7193   1.059   1.028   4.987 -0.5422 -0.4580  0.3663
   78SLPC  C313 7194   1.052   0.895   4.823 -0.1309  0.6911 -0.3915
   78SLPC  H13X 7195   1.075   0.985   4.762 -2.8928  1.9955  0.3231
   78SLPC  H13Y 7196   0.942   0.882   4.813 -0.1614  1.7149 -1.7279
   78SLPC  C314 7197   1.109   0.758   4.766 -0.2587 -0.0355  0.9242
   78SLPC  H14X 7198   1.103   0.683   4.847 -0.1903 -0.2443  0.7370
   78SLPC  H14Y 7199   1.215   0.783   4.742 -0.1697 -1.9566 -0.9846
   78SLPC  C315 7200   1.034   0.690   4.654 -0.0887  0.0674  0.6612
   78SLPC  H15X 7201   1.089   0.597   4.626 -1.8908 -1.1791  1.1382
   78SLPC  H15Y 7202   1.028   0.770   4.577  0.3181 -1.4175 -0.9873
   78SLPC  C316 7203   0.886   0.646   4.683 -0.3864 -0.2727 -0.4537
   78SLPC  H16X 7204   0.820   0.649   4.594  0.7167  0.1378 -1.2771
   78SLPC  H16Y 7205   0.839   0.727   4.744 -2.3948 -0.7996 -1.2222
   78SLPC  C317 7206   0.875   0.518   4.762  0.3349 -0.4692 -0.5617
   78SLPC  H17X 7207   0.949   0.505   4.844  0.1140  0.9783 -0.1050
   78SLPC  H17Y 7208   0.900   0.429   4.701  0.3327 -1.2847  0.6134
   78SLPC  C318 7209   0.737   0.490   4.828  0.8086  0.3289 -0.2507
   78SLPC  H18X 7210   0.684   0.575   4.875 -0.8230 -1.2498  0.8909
   78SLPC  H18Y 7211   0.750   0.411   4.905 -0.4573  0.9285  0.5968
   78SLPC  H18Z 7212   0.665   0.457   4.750 -1.2660  1.0246  1.2813
   79SLPC     N 7213   1.388   3.765   7.011  0.0965 -0.6877 -0.2393
   79SLPC   C13 7214   1.373   3.639   7.091  0.3268 -0.0073  0.3878
   79SLPC  H13A 7215   1.267   3.624   7.108 -0.2238  1.1341 -1.6554
   79SLPC  H13B 7216   1.419   3.552   7.044  0.0789  0.3671 -0.5804
   79SLPC  H13C 7217   1.418   3.649   7.188  1.1133  0.2789  0.0031
   79SLPC   C14 7218   1.532   3.809   7.021 -0.8587  0.5110  0.2814
   79SLPC  H14A 7219   1.600   3.741   6.971 -2.4648  0.4838 -2.0297
   79SLPC  H14B 7220   1.545   3.903   6.970 -1.7838  0.1086 -0.7443
   79SLPC  H14C 7221   1.568   3.817   7.122  1.7535 -1.9156 -0.3063
   79SLPC   C15 7222   1.308   3.872   7.067 -0.1229  0.1433  0.5464
   79SLPC  H15A 7223   1.337   3.902   7.166  0.7305  0.3424  0.2420
   79SLPC  H15B 7224   1.312   3.966   7.013  1.7089  0.3511  0.9840
   79SLPC  H15C 7225   1.201   3.860   7.067 -0.3279  1.6918  0.1918
   79SLPC   C12 7226   1.363   3.743   6.869 -0.4592 -0.2278 -0.2207
   79SLPC  H12A 7227   1.259   3.714   6.862 -1.0541  1.1121  2.0332
   79SLPC  H12B 7228   1.419   3.657   6.836  0.7587  1.0140 -1.5650
   79SLPC   C11 7229   1.390   3.854   6.765  0.0054  0.9859 -0.0881
   79SLPC  H11A 7230   1.381   3.817   6.660  1.1802  0.2367  0.0541
   79SLPC  H11B 7231   1.491   3.900   6.771 -0.1037  1.5731 -1.8854
   79SLPC     P 7232   1.163   3.972   6.694 -0.0958 -0.1081  0.0875
   79SLPC   O13 7233   1.049   3.913   6.771 -0.6895  0.5611 -0.1017
   79SLPC   O14 7234   1.169   4.118   6.678  0.4690 -0.4329 -0.0601
   79SLPC   O12 7235   1.296   3.954   6.780  0.1630 -0.0896 -0.1935
   79SLPC   O11 7236   1.172   3.908   6.543  0.1950 -0.0092 -0.6248
   79SLPC    C1 7237   1.266   3.967   6.453  0.3287 -0.2288  0.5023
   79SLPC    HA 7238   1.260   4.078   6.448  2.2336  0.0009  2.3089
   79SLPC    HB 7239   1.368   3.935   6.484  0.9972  2.2033  1.0021
   79SLPC    C2 7240   1.231   3.915   6.315  0.0202 -1.4487 -0.0561
   79SLPC    HS 7241   1.226   3.805   6.303 -0.0587 -1.2642 -1.9768
   79SLPC   O21 7242   1.319   3.979   6.224 -0.1828 -0.6938  0.3397
   79SLPC   C21 7243   1.437   3.920   6.217  0.1876 -0.3992 -0.1297
   79SLPC   O22 7244   1.473   3.821   6.283 -0.1804  0.2675  0.4046
   79SLPC   C22 7245   1.530   4.008   6.126  0.0783  0.0885 -0.6312
   79SLPC   H2R 7246   1.471   4.031   6.034 -1.1765  1.3666  0.4505
   79SLPC   H2S 7247   1.532   4.100   6.188 -1.5352 -1.6203  2.1842
   79SLPC    C3 7248   1.085   3.966   6.283  0.2285  0.4840  0.5220
   79SLPC    HX 7249   1.082   4.076   6.300  1.7565  0.8680 -1.3485
   79SLPC    HY 7250   1.010   3.922   6.351 -1.0397  0.1273 -1.0492
   79SLPC   O31 7251   1.048   3.920   6.155  0.4449  0.1071  0.5918
   79SLPC   C31 7252   1.059   4.007   6.058  0.4774 -0.3343  0.5023
   79SLPC   O32 7253   1.087   4.126   6.078  0.0077 -0.4952  0.2839
   79SLPC   C32 7254   0.999   3.948   5.929  0.2776  0.1227 -0.2323
   79SLPC   H2X 7255   0.890   3.948   5.950  0.5763  0.1965  1.4466
   79SLPC   H2Y 7256   1.026   3.840   5.924 -1.0056 -0.2482  0.5135
   79SLPC   C23 7257   1.664   3.943   6.087  0.4949 -0.6326  0.5609
   79SLPC   H3R 7258   1.648   3.855   6.022  0.8847  0.4716 -1.0837
   79SLPC   H3S 7259   1.713   3.906   6.180  0.2495  1.0327  1.3874
   79SLPC   C24 7260   1.756   4.053   6.024  0.1968  0.0378  0.4169
   79SLPC   H4R 7261   1.772   4.124   6.108 -1.2143 -1.6313  2.1792
   79SLPC   H4S 7262   1.698   4.105   5.945 -2.1565 -2.0720  0.6381
   79SLPC   C25 7263   1.891   4.002   5.997 -0.2152 -0.2001  0.6926
   79SLPC   H5R 7264   1.876   3.911   5.936 -0.7531  0.8029 -0.7265
   79SLPC   H5S 7265   1.938   3.986   6.097 -1.3900  0.3831  1.3628
   79SLPC   C26 7266   1.980   4.103   5.919 -0.1687 -0.3178 -0.6449
   79SLPC   H6R 7267   2.083   4.064   5.931 -0.3326 -0.9013 -1.0754
   79SLPC   H6S 7268   1.961   4.201   5.967 -0.2586 -1.1701  1.1163
   79SLPC   C27 7269   1.947   4.087   5.768  0.6168 -0.5527  0.0823
   79SLPC   H7R 7270   1.966   4.184   5.717 -2.6286  0.1990  0.1111
   79SLPC   H7S 7271   1.837   4.076   5.765  0.4102  1.3627 -1.4677
   79SLPC   C28 7272   2.026   3.984   5.689 -0.8077  0.0435  0.0369
   79SLPC   H8R 7273   1.993   3.980   5.583 -1.3002  2.0673  0.0696
   79SLPC   H8S 7274   2.013   3.885   5.738  1.0253 -0.3329 -0.1595
   79SLPC   C29 7275   2.176   4.013   5.690  0.2265 -0.1249  0.1753
   79SLPC   H9R 7276   2.228   4.015   5.787  0.1866  1.4835  0.1781
   79SLPC  C210 7277   2.254   4.046   5.584  0.0797 -0.2981 -0.0183
   79SLPC  H10R 7278   2.361   4.055   5.605  0.1930 -0.6863 -0.4275
   79SLPC  C211 7279   2.212   4.055   5.441  0.1329 -0.3644  0.1968
   79SLPC  H11R 7280   2.139   4.138   5.434 -1.0110 -1.3063  0.6194
   79SLPC  H11S 7281   2.155   3.965   5.406 -0.4601  0.7984 -2.0235
   79SLPC  C212 7282   2.315   4.085   5.341 -0.2811  0.2680 -0.8503
   79SLPC  H12R 7283   2.414   4.115   5.379 -0.4902  0.6023 -0.5639
   79SLPC  C213 7284   2.303   4.082   5.207  0.5371  0.4344  0.2055
   79SLPC  H13R 7285   2.379   4.118   5.137 -1.5685  1.7626 -1.5270
   79SLPC  C214 7286   2.171   4.052   5.136 -0.4242 -0.1419 -0.6780
   79SLPC  H14R 7287   2.112   4.143   5.114 -0.2213  0.0612 -0.3861
   79SLPC  H14S 7288   2.111   3.976   5.190  2.0839 -2.2351 -0.6285
   79SLPC  C215 7289   2.181   4.005   4.989  0.3315 -0.6482  0.6627
   79SLPC  H15R 7290   2.080   3.972   4.958  0.5612 -1.4753  0.7622
   79SLPC  H15S 7291   2.251   3.919   4.989  2.2138  0.7895 -0.8867
   79SLPC  C216 7292   2.238   4.107   4.902  0.3341 -0.0664 -0.1091
   79SLPC  H16R 7293   2.337   4.143   4.936  0.3411  0.6241 -0.8235
   79SLPC  H16S 7294   2.170   4.195   4.903  0.6738  0.2156 -0.7569
   79SLPC  C217 7295   2.250   4.070   4.752 -0.0649 -0.0101  0.1891
   79SLPC  H17R 7296   2.302   3.973   4.732  2.2984  1.2210  0.0625
   79SLPC  H17S 7297   2.336   4.135   4.726  0.9259 -1.5770 -0.6135
   79SLPC  C218 7298   2.140   4.115   4.651 -0.0173 -0.0267 -0.7796
   79SLPC  H18R 7299   2.050   4.050   4.657 -1.7501  2.1885 -1.4164
   79SLPC  H18S 7300   2.184   4.108   4.550  1.4172 -0.8222 -0.1386
   79SLPC  H18T 7301   2.110   4.222   4.657 -0.9205 -0.3262  0.7632
   79SLPC   C33 7302   1.019   4.041   5.805  0.0960 -0.3420  0.4482
   79SLPC   H3X 7303   1.128   4.035   5.782  0.1956  0.6636  0.5814
   79SLPC   H3Y 7304   0.993   4.144   5.837 -1.8222  0.1683 -2.3740
   79SLPC   C34 7305   0.940   4.023   5.676  0.2677  1.2759  0.0419
   79SLPC   H4X 7306   0.955   4.117   5.620 -1.4432 -0.3380 -3.4403
   79SLPC   H4Y 7307   0.832   4.008   5.696  0.1790  0.6475 -0.8237
   79SLPC   C35 7308   0.989   3.912   5.588 -0.3222  0.3099  0.1283
   79SLPC   H5X 7309   0.918   3.894   5.505  0.0541  0.8558 -0.3212
   79SLPC   H5Y 7310   1.011   3.821   5.648  0.6506  1.0054  0.8640
   79SLPC   C36 7311   1.126   3.948   5.514  0.6670  0.5862  0.1158
   79SLPC   H6X 7312   1.190   3.857   5.502  0.3778  0.4421 -0.3426
   79SLPC   H6Y 7313   1.184   4.026   5.568  1.5053  0.4503 -0.5690
   79SLPC   C37 7314   1.095   4.004   5.377 -0.2631 -0.1916 -0.1997
   79SLPC   H7X 7315   1.045   4.103   5.386  0.3754  0.3458 -2.0238
   79SLPC   H7Y 7316   1.033   3.930   5.322 -1.8433  0.4945  0.5908
   79SLPC   C38 7317   1.223   4.021   5.295  0.1975 -0.3874  0.3839
   79SLPC   H8X 7318   1.272   3.921   5.297 -2.1798 -1.5899  1.4462
   79SLPC   H8Y 7319   1.293   4.101   5.329  0.6113 -0.8250  0.5734
   79SLPC   C39 7320   1.197   4.061   5.151 -0.0108 -0.3331  0.5362
   79SLPC   H9X 7321   1.144   4.158   5.161  0.8598  0.1665  0.4501
   79SLPC   H9Y 7322   1.131   3.986   5.103  0.6960 -1.1378  0.7846
   79SLPC  C310 7323   1.323   4.088   5.060  0.0512  0.1431  0.2783
   79SLPC  H10X 7324   1.381   3.993   5.051 -1.8778 -1.1804  1.1970
   79SLPC  H10Y 7325   1.378   4.161   5.123  1.3790 -0.8282  0.3048
   79SLPC  C311 7326   1.298   4.140   4.920 -0.5385 -0.2025  0.1983
   79SLPC  H11X 7327   1.379   4.193   4.867 -0.5713  0.5742  0.9096
   79SLPC  H11Y 7328   1.221   4.220   4.928 -0.5724 -0.1899 -0.2237
   79SLPC  C312 7329   1.241   4.038   4.823 -0.0383 -0.9847 -0.3990
   79SLPC  H12X 7330   1.174   3.974   4.885 -0.8371 -0.8462 -1.0980
   79SLPC  H12Y 7331   1.321   3.972   4.784  3.4345  3.5888 -1.9697
   79SLPC  C313 7332   1.161   4.112   4.714 -0.9386  0.3599  0.0803
   79SLPC  H13X 7333   1.220   4.176   4.645  0.4056 -0.5393  0.3612
   79SLPC  H13Y 7334   1.089   4.179   4.765  0.2655  0.4998  1.6475
   79SLPC  C314 7335   1.064   4.030   4.633 -0.8022 -0.0286 -0.0155
   79SLPC  H14X 7336   1.034   4.083   4.540 -0.9204 -1.5066 -0.8501
   79SLPC  H14Y 7337   0.978   4.003   4.698 -0.8776 -2.1007 -0.9007
   79SLPC  C315 7338   1.128   3.895   4.587  0.6445 -0.2413 -0.2344
   79SLPC  H15X 7339   1.145   3.823   4.669 -2.2671 -1.9028 -0.9337
   79SLPC  H15Y 7340   1.226   3.916   4.539 -0.4349  2.1990 -1.5396
   79SLPC  C316 7341   1.037   3.830   4.481  0.5052 -0.1052 -0.4029
   79SLPC  H16X 7342   1.101   3.759   4.423  0.1663 -1.3635  0.7089
   79SLPC  H16Y 7343   1.011   3.909   4.408  1.5923 -0.2084 -0.9352
   79SLPC  C317 7344   0.904   3.774   4.541 -0.3049 -0.4987 -0.2529
   79SLPC  H17X 7345   0.841   3.726   4.463  1.3503 -0.4764 -1.6557
   79SLPC  H17Y 7346   0.856   3.859   4.594 -0.4900 -2.1285  2.4333
   79SLPC  C318 7347   0.945   3.668   4.644 -0.1006 -0.1088  0.5607
   79SLPC  H18X 7348   0.990   3.576   4.599  0.0914  0.8827 -1.3896
   79SLPC  H18Y 7349   0.859   3.632   4.705 -0.8155 -1.9151 -1.3672
   79SLPC  H18Z 7350   1.012   3.711   4.721  0.5611  1.2431 -0.7357
   80SLPC     N 7351   5.937   6.047   6.943  0.0451 -0.1086 -0.3174
   80SLPC   C13 7352   6.086   6.021   6.928  0.1764 -0.6395 -0.2980
   80SLPC  H13A 7353   6.108   5.920   6.899  2.5168 -0.7133  1.4608
   80SLPC  H13B 7354   6.114   6.091   6.851 -0.0232 -0.6925 -0.4199
   80SLPC  H13C 7355   6.136   6.031   7.023 -0.6613  0.0552  0.0802
   80SLPC   C14 7356   5.920   6.160   7.039 -1.2357  0.3544  0.5866
   80SLPC  H14A 7357   5.946   6.259   7.004  0.5853  0.2721  1.5872
   80SLPC  H14B 7358   5.820   6.173   7.077 -1.4522  0.4339 -0.0011
   80SLPC  H14C 7359   5.986   6.139   7.122  0.0979  0.7112 -0.3337
   80SLPC   C15 7360   5.886   5.928   7.009 -0.1475  0.1450  0.8481
   80SLPC  H15A 7361   5.942   5.895   7.095  0.0175 -3.4821 -0.4790
   80SLPC  H15B 7362   5.781   5.946   7.027 -0.2876  2.2674 -1.5767
   80SLPC  H15C 7363   5.888   5.839   6.948 -4.2158  0.1474  0.4533
   80SLPC   C12 7364   5.863   6.068   6.817  0.1120 -0.8421  0.7649
   80SLPC  H12A 7365   5.874   5.984   6.750 -0.7335 -0.0698 -0.3651
   80SLPC  H12B 7366   5.907   6.155   6.773 -0.2051 -1.2696 -0.4237
   80SLPC   C11 7367   5.708   6.080   6.834  0.2715  0.2530  0.4275
   80SLPC  H11A 7368   5.673   6.134   6.743  1.0386  0.4556  0.2478
   80SLPC  H11B 7369   5.673   6.131   6.927 -0.3205 -0.3644  0.5540
   80SLPC     P 7370   5.647   5.863   6.698 -0.1605  0.0784  0.6059
   80SLPC   O13 7371   5.775   5.872   6.619  0.5138 -0.0780  0.1739
   80SLPC   O14 7372   5.600   5.734   6.741 -0.6643  0.3856  0.6351
   80SLPC   O12 7373   5.637   5.950   6.829 -0.7190 -0.2178 -0.2821
   80SLPC   O11 7374   5.530   5.915   6.602  0.3178 -0.8091  0.2751
   80SLPC    C1 7375   5.448   5.838   6.517 -0.0605  0.3439  0.6249
   80SLPC    HA 7376   5.398   5.758   6.576  1.6539 -1.8735 -0.7341
   80SLPC    HB 7377   5.374   5.904   6.467  2.2441  1.4420 -1.5728
   80SLPC    C2 7378   5.530   5.755   6.412  0.3058 -0.2284  0.4338
   80SLPC    HS 7379   5.596   5.694   6.476  0.4153  0.6755  1.2046
   80SLPC   O21 7380   5.591   5.851   6.321 -0.4541 -0.3924 -0.2065
   80SLPC   C21 7381   5.706   5.816   6.274  0.3234  0.1434 -1.0249
   80SLPC   O22 7382   5.773   5.720   6.307  0.1684  0.1215 -0.1425
   80SLPC   C22 7383   5.743   5.914   6.161 -0.1668  0.7216  0.0410
   80SLPC   H2R 7384   5.783   6.008   6.204  0.2600  0.3636  0.4425
   80SLPC   H2S 7385   5.826   5.872   6.099 -0.5599  1.5666 -1.0995
   80SLPC    C3 7386   5.446   5.654   6.321  0.2846  0.4794  0.3242
   80SLPC    HX 7387   5.409   5.576   6.391  0.0339 -0.3141 -0.6759
   80SLPC    HY 7388   5.514   5.620   6.240 -0.2715  0.3049 -0.0687
   80SLPC   O31 7389   5.335   5.722   6.263 -0.3479 -0.4827  0.8742
   80SLPC   C31 7390   5.320   5.736   6.129  1.2638  0.5308 -0.3231
   80SLPC   O32 7391   5.393   5.688   6.045  0.2496  0.0523 -0.7297
   80SLPC   C32 7392   5.197   5.829   6.110  0.2646  0.1058  0.1856
   80SLPC   H2X 7393   5.184   5.894   6.199  0.3019 -0.0583  0.3113
   80SLPC   H2Y 7394   5.115   5.756   6.094 -1.9447  2.2090  1.2899
   80SLPC   C23 7395   5.623   5.942   6.070  0.9509 -0.1981  0.7121
   80SLPC   H3R 7396   5.535   5.974   6.131  0.1955 -0.6831 -0.1036
   80SLPC   H3S 7397   5.589   5.853   6.014  3.5525 -1.0861  0.4319
   80SLPC   C24 7398   5.657   6.041   5.949 -0.3333  0.0882 -0.2981
   80SLPC   H4R 7399   5.753   6.014   5.900 -0.2741  1.7011 -1.1316
   80SLPC   H4S 7400   5.656   6.148   5.981 -0.6062 -0.1614  0.5530
   80SLPC   C25 7401   5.547   6.049   5.840 -0.3426 -0.2566  0.2179
   80SLPC   H5R 7402   5.460   6.096   5.892 -0.1579 -0.8939  1.1216
   80SLPC   H5S 7403   5.511   5.946   5.823  0.8411 -0.4928 -1.0578
   80SLPC   C26 7404   5.599   6.120   5.715 -0.4371 -0.4580 -0.0754
   80SLPC   H6R 7405   5.504   6.141   5.661 -0.1333  0.0579 -0.4092
   80SLPC   H6S 7406   5.670   6.056   5.660  0.3018  0.2477  0.0391
   80SLPC   C27 7407   5.657   6.260   5.744 -0.7204  1.0305  0.4307
   80SLPC   H7R 7408   5.740   6.252   5.817 -2.4575 -0.8207  2.3025
   80SLPC   H7S 7409   5.573   6.301   5.804 -2.2929  0.1564 -1.0913
   80SLPC   C28 7410   5.700   6.348   5.622  0.6913  1.1401 -0.3494
   80SLPC   H8R 7411   5.701   6.448   5.670  0.2025  0.5692  0.8947
   80SLPC   H8S 7412   5.618   6.330   5.549 -0.9979  1.7841  1.3180
   80SLPC   C29 7413   5.831   6.309   5.556  0.1107  0.5223  0.4904
   80SLPC   H9R 7414   5.917   6.293   5.622  1.5925 -0.2272 -1.5123
   80SLPC  C210 7415   5.846   6.270   5.425  0.0148 -0.1662 -0.1535
   80SLPC  H10R 7416   5.940   6.221   5.394 -1.0550 -2.0196 -0.5969
   80SLPC  C211 7417   5.747   6.265   5.309  0.1981  0.1862 -0.2768
   80SLPC  H11R 7418   5.648   6.240   5.353  0.5764 -1.6760 -0.3893
   80SLPC  H11S 7419   5.760   6.174   5.247 -1.7629 -1.5537  1.7135
   80SLPC  C212 7420   5.741   6.402   5.235 -0.1063 -0.2419  0.3661
   80SLPC  H12R 7421   5.682   6.483   5.282 -1.1080 -0.2887 -0.7551
   80SLPC  C213 7422   5.810   6.434   5.117 -0.7395 -0.0242 -0.1024
   80SLPC  H13R 7423   5.806   6.533   5.070  1.9460  0.7038  1.0272
   80SLPC  C214 7424   5.889   6.319   5.056 -0.4192  0.8814 -0.2488
   80SLPC  H14R 7425   5.943   6.248   5.123  3.2582  1.2419 -2.5250
   80SLPC  H14S 7426   5.971   6.363   4.995  0.5022 -1.9042 -1.1456
   80SLPC  C215 7427   5.804   6.240   4.949  0.2454  0.1288  0.3038
   80SLPC  H15R 7428   5.765   6.309   4.871 -0.5417  0.0923  0.6622
   80SLPC  H15S 7429   5.719   6.203   5.011 -1.0805  3.0506  0.3967
   80SLPC  C216 7430   5.879   6.132   4.878 -0.4625  0.6304  0.8779
   80SLPC  H16R 7431   5.961   6.084   4.936 -0.6652  1.0371  1.5270
   80SLPC  H16S 7432   5.937   6.186   4.800  0.0710 -1.1052  0.0449
   80SLPC  C217 7433   5.796   6.036   4.800  0.0351  0.0387 -0.2768
   80SLPC  H17R 7434   5.709   6.078   4.745 -0.4668  1.0572  1.2389
   80SLPC  H17S 7435   5.749   5.960   4.867  1.1785 -0.2214  0.2489
   80SLPC  C218 7436   5.883   5.971   4.691  0.1089  0.4764  0.2030
   80SLPC  H18R 7437   5.960   5.912   4.745 -0.0314 -1.7534 -1.8949
   80SLPC  H18S 7438   5.934   6.042   4.623 -2.0060  1.3638 -0.5524
   80SLPC  H18T 7439   5.820   5.899   4.635  0.4986 -0.8305  1.3826
   80SLPC   C33 7440   5.204   5.920   5.984 -0.8766  0.3501  0.2502
   80SLPC   H3X 7441   5.232   5.861   5.894  0.7638  1.1594  0.2107
   80SLPC   H3Y 7442   5.282   5.997   5.999  0.3960 -0.3354 -2.3151
   80SLPC   C34 7443   5.074   5.989   5.958  0.3436 -0.5236  0.0835
   80SLPC   H4X 7444   5.060   6.080   6.020  1.1872 -0.9492  0.9277
   80SLPC   H4Y 7445   4.996   5.922   5.998 -1.3058  1.0224 -0.4068
   80SLPC   C35 7446   5.055   6.033   5.811 -0.2821  0.5945  0.2271
   80SLPC   H5X 7447   4.949   6.065   5.801  0.3970  2.7840 -0.6012
   80SLPC   H5Y 7448   5.055   5.943   5.746 -1.6321  0.8430 -0.1519
   80SLPC   C36 7449   5.164   6.120   5.760 -0.2112 -0.1661  0.2518
   80SLPC   H6X 7450   5.254   6.061   5.732  2.1330  2.4164  1.8090
   80SLPC   H6Y 7451   5.197   6.181   5.847  0.3107  1.6349 -1.1594
   80SLPC   C37 7452   5.115   6.192   5.640 -1.1204  0.8267 -0.4632
   80SLPC   H7X 7453   5.029   6.259   5.664 -1.6558 -0.4162  1.3477
   80SLPC   H7Y 7454   5.077   6.114   5.571  0.3786 -1.3259  1.0142
   80SLPC   C38 7455   5.236   6.261   5.579  0.4764 -0.0667 -0.2792
   80SLPC   H8X 7456   5.319   6.191   5.554  0.5929  0.1697 -0.5484
   80SLPC   H8Y 7457   5.287   6.325   5.655 -0.2214  0.4742 -0.2590
   80SLPC   C39 7458   5.195   6.334   5.454  0.9427 -0.1040  0.0000
   80SLPC   H9X 7459   5.281   6.404   5.442  0.4443  0.5472  0.1350
   80SLPC   H9Y 7460   5.102   6.396   5.456  1.3511  0.5355 -0.3746
   80SLPC  C310 7461   5.202   6.253   5.326 -1.2692  0.6895 -0.4647
   80SLPC  H10X 7462   5.155   6.152   5.332 -1.1997  0.5287 -2.0650
   80SLPC  H10Y 7463   5.306   6.260   5.289 -1.1536  0.4270 -0.1931
   80SLPC  C311 7464   5.124   6.319   5.210  0.1877 -0.5612  0.5588
   80SLPC  H11X 7465   5.162   6.423   5.200  1.7272 -0.9887  1.6122
   80SLPC  H11Y 7466   5.023   6.320   5.256 -1.3308 -0.4164 -2.5261
   80SLPC  C312 7467   5.120   6.239   5.085 -0.2086 -0.4073  0.2171
   80SLPC  H12X 7468   5.072   6.143   5.113 -1.1791  0.5476  1.9639
   80SLPC  H12Y 7469   5.225   6.211   5.058 -1.1628 -2.7020 -1.4466
   80SLPC  C313 7470   5.045   6.309   4.972  0.2076  0.2234 -0.2539
   80SLPC  H13X 7471   5.111   6.391   4.937  1.2412 -0.8023 -0.7541
   80SLPC  H13Y 7472   4.956   6.358   5.017 -0.0567  0.4286 -0.9873
   80SLPC  C314 7473   5.000   6.208   4.868  0.1685 -0.3541 -0.1047
   80SLPC  H14X 7474   4.924   6.137   4.909 -0.3777 -0.1231 -0.7115
   80SLPC  H14Y 7475   5.095   6.153   4.847  1.2488  2.0662 -1.9919
   80SLPC  C315 7476   4.935   6.271   4.748  0.0081 -1.0811  0.9631
   80SLPC  H15X 7477   5.006   6.349   4.715 -3.8452  1.5078 -2.1599
   80SLPC  H15Y 7478   4.851   6.333   4.786  1.9696  2.2998  0.1958
   80SLPC  C316 7479   4.895   6.171   4.641  0.6419  0.4458 -0.1886
   80SLPC  H16X 7480   4.816   6.101   4.674  0.8531  0.9245  1.4402
   80SLPC  H16Y 7481   4.985   6.106   4.631  0.1349 -0.0027 -2.1963
   80SLPC  C317 7482   4.875   6.245   4.504  0.1021 -0.3605  0.2226
   80SLPC  H17X 7483   4.948   6.328   4.499  2.3144 -2.1015  1.3258
   80SLPC  H17Y 7484   4.771   6.283   4.512  0.4600  0.8102 -0.5204
   80SLPC  C318 7485   4.904   6.155   4.382  1.4997 -0.1647  0.0275
   80SLPC  H18X 7486   4.912   6.209   4.285 -1.6131  0.5020  0.0361
   80SLPC  H18Y 7487   4.824   6.079   4.370  1.5491 -0.1339 -0.5269
   80SLPC  H18Z 7488   5.001   6.104   4.401  1.6155 -0.3578 -1.0527
   81SLPC     N 7489   1.659   3.672   2.022  0.2371  0.0170 -0.4249
   81SLPC   C13 7490   1.784   3.618   1.963 -0.1714  0.4808  0.3558
   81SLPC  H13A 7491   1.843   3.559   2.031  3.1027  0.0037 -2.5816
   81SLPC  H13B 7492   1.758   3.554   1.880  0.5910  2.1830 -1.3019
   81SLPC  H13C 7493   1.853   3.694   1.927  3.1985 -2.2463  0.6012
   81SLPC   C14 7494   1.597   3.779   1.941  0.6453  0.2824  0.1133
   81SLPC  H14A 7495   1.663   3.864   1.933  0.6675  0.2384 -0.1876
   81SLPC  H14B 7496   1.599   3.737   1.841  4.0748  0.1210  0.1082
   81SLPC  H14C 7497   1.502   3.812   1.980 -0.0597  0.6682 -1.7973
   81SLPC   C15 7498   1.696   3.734   2.147  0.4037  0.2755 -0.0390
   81SLPC  H15A 7499   1.722   3.668   2.228 -1.4801  0.1294  0.4794
   81SLPC  H15B 7500   1.782   3.800   2.145  0.0766  0.7169 -2.1214
   81SLPC  H15C 7501   1.613   3.791   2.186  0.4366  1.5574 -1.7373
   81SLPC   C12 7502   1.563   3.566   2.048 -0.4739 -1.0401 -0.9995
   81SLPC  H12A 7503   1.472   3.600   2.096  0.4592  1.0993 -0.6447
   81SLPC  H12B 7504   1.615   3.502   2.118  0.8646 -0.6753 -1.6304
   81SLPC   C11 7505   1.523   3.484   1.926  1.0269  0.1189  0.0983
   81SLPC  H11A 7506   1.501   3.563   1.852  2.7102  0.8256  0.2909
   81SLPC  H11B 7507   1.436   3.423   1.959  0.9711 -1.1370 -2.1565
   81SLPC     P 7508   1.617   3.241   1.873  0.0213 -0.5321  0.1073
   81SLPC   O13 7509   1.481   3.214   1.828 -0.2678  0.3811 -0.2264
   81SLPC   O14 7510   1.731   3.181   1.796 -0.2765  0.3124 -0.0818
   81SLPC   O12 7511   1.632   3.400   1.877 -0.2391 -0.1417 -0.1671
   81SLPC   O11 7512   1.644   3.219   2.025  0.1904  0.3212  0.5101
   81SLPC    C1 7513   1.532   3.174   2.104  0.1923 -0.3510  0.0776
   81SLPC    HA 7514   1.479   3.263   2.144  0.1954 -0.8934  1.3536
   81SLPC    HB 7515   1.452   3.118   2.050 -1.2598  2.5410 -0.9604
   81SLPC    C2 7516   1.579   3.098   2.226 -0.2497 -0.4755  0.4144
   81SLPC    HS 7517   1.492   3.057   2.281  0.4873  0.2323  2.1875
   81SLPC   O21 7518   1.630   3.195   2.316  0.7616  0.3852  0.0554
   81SLPC   C21 7519   1.542   3.259   2.399  0.4757  0.4179  0.2953
   81SLPC   O22 7520   1.423   3.229   2.411 -0.0516  0.0201  0.0645
   81SLPC   C22 7521   1.623   3.364   2.475 -0.6656  0.2591  0.1728
   81SLPC   H2R 7522   1.714   3.308   2.507 -0.9420 -1.5122 -1.9191
   81SLPC   H2S 7523   1.664   3.439   2.403 -1.4456  0.5430  0.0182
   81SLPC    C3 7524   1.680   2.985   2.200 -0.4933 -0.1172  0.2345
   81SLPC    HX 7525   1.742   3.022   2.116 -3.1232 -0.2851 -1.8798
   81SLPC    HY 7526   1.627   2.892   2.172  0.1043 -1.2463  2.5739
   81SLPC   O31 7527   1.771   2.960   2.309  0.1874 -0.1567 -0.2005
   81SLPC   C31 7528   1.712   2.899   2.413 -0.0025 -0.2181  0.2284
   81SLPC   O32 7529   1.612   2.823   2.416 -0.1207 -0.5993  0.5185
   81SLPC   C32 7530   1.798   2.952   2.529 -0.3910  0.0153 -0.3479
   81SLPC   H2X 7531   1.809   3.062   2.519  1.0537 -0.0506  0.3559
   81SLPC   H2Y 7532   1.898   2.903   2.528 -0.1369  0.1225  3.6911
   81SLPC   C23 7533   1.549   3.433   2.591 -0.5139 -0.1772  0.4310
   81SLPC   H3R 7534   1.492   3.367   2.660  0.2258 -0.0549  1.1818
   81SLPC   H3S 7535   1.484   3.513   2.550 -1.9804 -1.1760  0.7449
   81SLPC   C24 7536   1.645   3.496   2.696  0.4862 -0.4440 -0.0045
   81SLPC   H4R 7537   1.739   3.531   2.650  0.5579 -0.2483  0.2878
   81SLPC   H4S 7538   1.676   3.413   2.762 -0.4610  0.1522  1.2521
   81SLPC   C25 7539   1.584   3.610   2.782 -0.4487 -0.0594 -0.1969
   81SLPC   H5R 7540   1.488   3.648   2.740 -0.0960  1.8403  0.5656
   81SLPC   H5S 7541   1.649   3.700   2.787  0.9890 -1.1183  1.3126
   81SLPC   C26 7542   1.568   3.558   2.931  0.1071 -0.5367 -0.9029
   81SLPC   H6R 7543   1.656   3.491   2.940  0.1176 -0.4001  0.2787
   81SLPC   H6S 7544   1.484   3.487   2.948  0.8496 -0.8307  2.1030
   81SLPC   C27 7545   1.587   3.664   3.041  0.3377 -0.1276 -0.7260
   81SLPC   H7R 7546   1.675   3.731   3.025  0.8702 -0.3349  1.1052
   81SLPC   H7S 7547   1.616   3.609   3.133 -0.4767  0.1014 -0.3256
   81SLPC   C28 7548   1.463   3.755   3.061 -0.4246 -0.0648  0.0892
   81SLPC   H8R 7549   1.372   3.699   3.091 -1.3279  1.4979  0.4119
   81SLPC   H8S 7550   1.446   3.809   2.965  1.7227  0.1883 -0.1985
   81SLPC   C29 7551   1.505   3.872   3.153 -0.4304  0.1111  0.2959
   81SLPC   H9R 7552   1.561   3.959   3.115  0.2717 -0.5789 -0.2969
   81SLPC  C210 7553   1.471   3.880   3.282  0.4671  0.4366 -0.1519
   81SLPC  H10R 7554   1.486   3.975   3.336  2.4697 -0.8288  1.6359
   81SLPC  C211 7555   1.395   3.780   3.366  0.4408 -0.0714 -0.1341
   81SLPC  H11R 7556   1.294   3.763   3.322 -0.2290 -3.1406  2.2291
   81SLPC  H11S 7557   1.385   3.822   3.468  2.3277  1.1927 -0.4196
   81SLPC  C212 7558   1.453   3.646   3.384  0.8456  0.0707 -0.5479
   81SLPC  H12R 7559   1.434   3.574   3.303 -1.7756  1.6963 -1.4953
   81SLPC  C213 7560   1.521   3.603   3.492  0.0535  0.1047  0.2329
   81SLPC  H13R 7561   1.551   3.497   3.488 -1.5891 -0.4347  1.2387
   81SLPC  C214 7562   1.566   3.686   3.611 -0.0394 -0.1921 -0.1099
   81SLPC  H14R 7563   1.573   3.793   3.581  0.0707  0.3742  1.7971
   81SLPC  H14S 7564   1.658   3.655   3.664 -1.6203 -1.7678  1.8867
   81SLPC  C215 7565   1.462   3.694   3.725 -0.7829 -0.7088  0.8144
   81SLPC  H15R 7566   1.370   3.736   3.680 -0.4196 -0.4377  0.3262
   81SLPC  H15S 7567   1.481   3.779   3.794 -2.6302  1.1051 -0.7865
   81SLPC  C216 7568   1.430   3.560   3.783  0.5837  0.1012  0.4671
   81SLPC  H16R 7569   1.527   3.517   3.815  0.2515  0.7370  2.5019
   81SLPC  H16S 7570   1.371   3.500   3.710  0.7692  0.1004  0.3189
   81SLPC  C217 7571   1.347   3.578   3.913 -0.2175  0.0983 -0.4884
   81SLPC  H17R 7572   1.301   3.479   3.934 -0.5066  0.4315  0.5263
   81SLPC  H17S 7573   1.266   3.652   3.896 -0.2433  1.0618  3.0775
   81SLPC  C218 7574   1.425   3.625   4.040  0.2637  0.3961  0.7228
   81SLPC  H18R 7575   1.353   3.629   4.125 -2.1344 -2.5423 -0.9496
   81SLPC  H18S 7576   1.474   3.723   4.021  1.7064 -0.5211 -0.5404
   81SLPC  H18T 7577   1.505   3.553   4.069 -0.9162 -0.7039  1.3655
   81SLPC   C33 7578   1.743   2.917   2.672  0.1439 -0.2226 -0.0233
   81SLPC   H3X 7579   1.737   2.808   2.694  1.7368 -0.1640  0.8889
   81SLPC   H3Y 7580   1.645   2.967   2.682  0.8302  0.7200  2.9752
   81SLPC   C34 7581   1.840   2.977   2.775  0.2677  0.2941 -0.2874
   81SLPC   H4X 7582   1.881   3.075   2.742  0.5077 -0.2195 -1.5428
   81SLPC   H4Y 7583   1.924   2.905   2.775 -1.0472 -1.3452 -2.4646
   81SLPC   C35 7584   1.781   2.985   2.923 -0.1248  0.6445  0.3549
   81SLPC   H5X 7585   1.738   2.890   2.961  2.1732 -1.3127 -1.6407
   81SLPC   H5Y 7586   1.698   3.059   2.919 -2.0769 -1.4200  0.4395
   81SLPC   C36 7587   1.877   3.033   3.024 -0.0833  0.0475  0.3205
   81SLPC   H6X 7588   1.886   3.143   3.012  0.1434  0.2354  1.9907
   81SLPC   H6Y 7589   1.973   2.986   2.992  0.0452 -0.1426  0.9587
   81SLPC   C37 7590   1.848   3.002   3.172 -0.6716  0.2917  0.1126
   81SLPC   H7X 7591   1.935   3.034   3.233 -1.4402  1.7200  0.5134
   81SLPC   H7Y 7592   1.818   2.897   3.194 -1.4873  0.5115  0.0735
   81SLPC   C38 7593   1.725   3.074   3.227  0.7948 -0.9628  0.1512
   81SLPC   H8X 7594   1.632   3.022   3.195 -1.7740  2.2695  1.8228
   81SLPC   H8Y 7595   1.727   3.178   3.188 -1.6982 -0.9588 -0.1390
   81SLPC   C39 7596   1.715   3.066   3.384  0.3850 -0.4187  0.2014
   81SLPC   H9X 7597   1.817   3.099   3.412  0.6786 -1.4425  0.3745
   81SLPC   H9Y 7598   1.695   2.962   3.416 -0.4294 -0.8406 -1.5949
   81SLPC  C310 7599   1.609   3.157   3.447  0.2366 -0.6610 -0.4573
   81SLPC  H10X 7600   1.527   3.160   3.372  0.9314 -0.0579 -1.2269
   81SLPC  H10Y 7601   1.653   3.257   3.468  1.1972 -1.2023  0.1671
   81SLPC  C311 7602   1.560   3.101   3.580  0.3489  0.3461  0.1386
   81SLPC  H11X 7603   1.632   3.047   3.646 -1.9323 -1.6116  1.1969
   81SLPC  H11Y 7604   1.475   3.030   3.569 -0.3486  1.4389 -2.1121
   81SLPC  C312 7605   1.511   3.215   3.667 -0.1234 -0.4925  0.1334
   81SLPC  H12X 7606   1.444   3.279   3.605  0.8163 -0.9585 -1.4394
   81SLPC  H12Y 7607   1.589   3.281   3.709 -1.7135  1.5497  0.0440
   81SLPC  C313 7608   1.436   3.168   3.792  0.1104  0.6691 -0.1709
   81SLPC  H13X 7609   1.374   3.077   3.776 -1.0487  1.2191  0.9427
   81SLPC  H13Y 7610   1.368   3.254   3.807  1.4038  1.6691  0.1365
   81SLPC  C314 7611   1.535   3.155   3.915  0.2840 -0.0248  0.2305
   81SLPC  H14X 7612   1.582   3.255   3.923  0.2893  0.1582 -1.6657
   81SLPC  H14Y 7613   1.619   3.087   3.889  2.1995  2.4761 -0.4997
   81SLPC  C315 7614   1.466   3.114   4.046  0.1946 -0.1895 -0.0926
   81SLPC  H15X 7615   1.411   3.020   4.024 -0.0681 -0.4141  1.4115
   81SLPC  H15Y 7616   1.391   3.194   4.067 -0.8151 -1.3059  0.6882
   81SLPC  C316 7617   1.559   3.086   4.161 -0.1941  0.6902  0.5869
   81SLPC  H16X 7618   1.622   3.172   4.192 -0.1274  1.7604 -2.1944
   81SLPC  H16Y 7619   1.642   3.023   4.123 -0.4847  1.6617 -1.8690
   81SLPC  C317 7620   1.486   3.022   4.286  0.6861  0.7217 -0.4211
   81SLPC  H17X 7621   1.435   2.939   4.233  1.3557 -0.0689  0.1529
   81SLPC  H17Y 7622   1.405   3.081   4.335 -0.6794 -1.6030  0.2559
   81SLPC  C318 7623   1.578   2.956   4.401 -0.4193  0.0382  0.0573
   81SLPC  H18X 7624   1.670   3.016   4.416  1.7566 -2.6295 -1.6343
   81SLPC  H18Y 7625   1.617   2.855   4.377  1.0890  0.7929 -0.7697
   81SLPC  H18Z 7626   1.532   2.942   4.501  2.3537  2.0666  1.7659
   82SLPC     N 7627   5.567   6.143   2.201 -0.5327  0.2327  0.4781
   82SLPC   C13 7628   5.561   6.292   2.230  0.3448 -0.0946  0.3663
   82SLPC  H13A 7629   5.575   6.344   2.136 -0.2533  1.3533  1.0561
   82SLPC  H13B 7630   5.467   6.328   2.270  0.7084  0.0275  1.1080
   82SLPC  H13C 7631   5.646   6.311   2.293 -0.2447  3.7003  0.2369
   82SLPC   C14 7632   5.463   6.105   2.107  0.5942 -0.3849 -0.2076
   82SLPC  H14A 7633   5.365   6.123   2.149  0.8503 -1.5252  0.9507
   82SLPC  H14B 7634   5.481   6.158   2.015  0.7206 -0.9594 -0.5195
   82SLPC  H14C 7635   5.462   5.999   2.087 -0.9366 -0.4745  0.1451
   82SLPC   C15 7636   5.544   6.070   2.324 -0.2583 -0.6712 -0.2554
   82SLPC  H15A 7637   5.572   5.966   2.317 -0.8790 -0.8747  0.1755
   82SLPC  H15B 7638   5.603   6.108   2.406 -0.8894 -1.1954  0.4540
   82SLPC  H15C 7639   5.443   6.067   2.361  0.3647  1.5109  1.8886
   82SLPC   C12 7640   5.708   6.099   2.147 -0.7612 -1.1553  0.3117
   82SLPC  H12A 7641   5.782   6.115   2.225  0.4291  1.8667 -1.2628
   82SLPC  H12B 7642   5.727   6.157   2.058 -0.1723 -0.3643  0.9392
   82SLPC   C11 7643   5.731   5.958   2.103  0.4931 -0.6596 -0.3270
   82SLPC  H11A 7644   5.835   5.952   2.065  1.0990 -1.0485  1.2790
   82SLPC  H11B 7645   5.665   5.919   2.024  0.5756 -2.4686  0.4560
   82SLPC     P 7646   5.624   5.733   2.186 -0.0014  0.0500 -0.1308
   82SLPC   O13 7647   5.483   5.776   2.191 -0.0796  0.0259 -0.3946
   82SLPC   O14 7648   5.681   5.677   2.062 -0.0828  0.4118 -0.2009
   82SLPC   O12 7649   5.719   5.864   2.211  0.0067  0.4614 -0.1386
   82SLPC   O11 7650   5.653   5.633   2.310 -0.5522  0.4469  0.1695
   82SLPC    C1 7651   5.685   5.683   2.441  0.5482  0.0809  0.4701
   82SLPC    HA 7652   5.736   5.594   2.485 -0.7147 -1.9833 -1.9445
   82SLPC    HB 7653   5.744   5.776   2.451  0.1149  0.1337  3.6805
   82SLPC    C2 7654   5.555   5.710   2.533 -0.3563 -0.5324  0.0442
   82SLPC    HS 7655   5.511   5.809   2.507 -0.5141  0.3514  3.2066
   82SLPC   O21 7656   5.595   5.715   2.668  0.3152  0.3174 -0.0950
   82SLPC   C21 7657   5.682   5.810   2.709  0.0466  0.0133 -0.1647
   82SLPC   O22 7658   5.724   5.897   2.640 -0.1100 -0.4411  0.1114
   82SLPC   C22 7659   5.726   5.782   2.853 -1.0038  0.3779  0.4423
   82SLPC   H2R 7660   5.730   5.672   2.863 -2.2127  0.0045 -2.4567
   82SLPC   H2S 7661   5.831   5.816   2.868  0.1462 -2.4764 -0.4718
   82SLPC    C3 7662   5.441   5.607   2.530  0.2637 -0.6797  0.0804
   82SLPC    HX 7663   5.483   5.504   2.535 -0.8207 -1.1002  3.8376
   82SLPC    HY 7664   5.380   5.622   2.438 -2.8054 -1.5615  1.8083
   82SLPC   O31 7665   5.354   5.620   2.646  0.0763  0.0603  0.0775
   82SLPC   C31 7666   5.265   5.716   2.640  0.2046 -0.0670  0.2193
   82SLPC   O32 7667   5.251   5.795   2.543 -0.0026  0.2018 -0.3147
   82SLPC   C32 7668   5.179   5.708   2.765  0.7781 -0.1288 -0.2226
   82SLPC   H2X 7669   5.122   5.612   2.759 -1.1096  0.6896  2.5982
   82SLPC   H2Y 7670   5.098   5.783   2.752  2.6949  2.7468  2.9225
   82SLPC   C23 7671   5.642   5.856   2.968 -0.1276  0.2619  0.1517
   82SLPC   H3R 7672   5.537   5.820   2.962 -0.3128  0.7563  0.3586
   82SLPC   H3S 7673   5.637   5.965   2.949 -1.0676  0.4910  1.5269
   82SLPC   C24 7674   5.692   5.829   3.112 -0.9669  0.1194 -0.3790
   82SLPC   H4R 7675   5.803   5.828   3.116 -0.9940 -0.1923  0.6527
   82SLPC   H4S 7676   5.664   5.725   3.137  0.3318 -0.6254 -1.8150
   82SLPC   C25 7677   5.664   5.941   3.216  0.3145  0.1165  0.3335
   82SLPC   H5R 7678   5.568   5.976   3.173  1.3927  1.9539 -0.7026
   82SLPC   H5S 7679   5.735   6.027   3.220 -0.5557  1.0385 -2.0819
   82SLPC   C26 7680   5.666   5.894   3.360  0.3125 -0.2983  0.2927
   82SLPC   H6R 7681   5.765   5.868   3.403  0.4681  0.3057  0.3092
   82SLPC   H6S 7682   5.604   5.802   3.368 -1.9728  0.7685 -2.7978
   82SLPC   C27 7683   5.607   5.999   3.450 -0.1376 -0.4550  0.7719
   82SLPC   H7R 7684   5.508   6.029   3.412  0.3659  0.1357 -0.0965
   82SLPC   H7S 7685   5.670   6.090   3.460 -1.5172  0.7412 -0.9713
   82SLPC   C28 7686   5.568   5.953   3.596  0.4357  0.2641 -0.1783
   82SLPC   H8R 7687   5.491   5.874   3.584  0.0600  0.2193  1.9785
   82SLPC   H8S 7688   5.503   6.031   3.641 -3.6862 -2.5158 -0.7188
   82SLPC   C29 7689   5.692   5.916   3.678 -0.1672 -0.1431  0.3427
   82SLPC   H9R 7690   5.786   5.908   3.622 -0.9659 -0.7221 -0.9891
   82SLPC  C210 7691   5.704   5.919   3.808 -0.1338 -0.2414  0.0797
   82SLPC  H10R 7692   5.804   5.907   3.853  1.3629  2.3342 -2.1806
   82SLPC  C211 7693   5.596   5.949   3.906 -0.3520 -0.1466 -0.0242
   82SLPC  H11R 7694   5.608   5.880   3.992 -1.5647  0.2305  0.4725
   82SLPC  H11S 7695   5.491   5.935   3.872  0.0904 -0.0282 -1.5143
   82SLPC  C212 7696   5.603   6.094   3.945  0.4195 -0.3807 -0.6273
   82SLPC  H12R 7697   5.562   6.168   3.875  0.1732 -1.1257 -1.2958
   82SLPC  C213 7698   5.667   6.140   4.054  0.0825 -0.2882  0.6607
   82SLPC  H13R 7699   5.654   6.247   4.077  3.2662  0.2621  0.4039
   82SLPC  C214 7700   5.747   6.067   4.148 -0.1968 -0.1071 -0.1400
   82SLPC  H14R 7701   5.848   6.114   4.143  0.5789 -1.0142  3.8579
   82SLPC  H14S 7702   5.760   5.964   4.110  1.0404 -0.0492  0.0984
   82SLPC  C215 7703   5.696   6.053   4.293 -0.8350  0.3761 -0.1060
   82SLPC  H15R 7704   5.746   5.961   4.331 -0.7904 -0.0856 -1.2306
   82SLPC  H15S 7705   5.588   6.030   4.290 -0.4784 -1.3475 -0.7528
   82SLPC  C216 7706   5.712   6.179   4.381  0.5811  0.5191  0.3559
   82SLPC  H16R 7707   5.685   6.152   4.486  0.9557 -0.4263  0.2223
   82SLPC  H16S 7708   5.646   6.264   4.357 -1.5157 -0.7714  1.2704
   82SLPC  C217 7709   5.849   6.232   4.390  0.0364  0.4134 -0.1909
   82SLPC  H17R 7710   5.873   6.274   4.290  0.1859 -4.2556 -2.3666
   82SLPC  H17S 7711   5.927   6.156   4.411  0.8477  0.9606 -1.1354
   82SLPC  C218 7712   5.866   6.332   4.502  0.1705  0.3483  0.3625
   82SLPC  H18R 7713   5.959   6.392   4.493 -0.2791  1.3905  2.1426
   82SLPC  H18S 7714   5.871   6.278   4.599  0.7154 -1.5598 -0.6688
   82SLPC  H18T 7715   5.785   6.409   4.497 -0.6317 -0.5313 -2.5513
   82SLPC   C33 7716   5.254   5.730   2.901 -0.1871  0.1657  0.5004
   82SLPC   H3X 7717   5.303   5.829   2.904  0.2035  0.0230 -0.6057
   82SLPC   H3Y 7718   5.340   5.663   2.925 -0.4290 -0.8724 -1.3367
   82SLPC   C34 7719   5.170   5.717   3.033 -0.0134  0.5040  0.3331
   82SLPC   H4X 7720   5.128   5.615   3.041 -0.9758  0.8510 -0.2165
   82SLPC   H4Y 7721   5.085   5.789   3.027  0.4197  1.1803  1.7727
   82SLPC   C35 7722   5.265   5.748   3.150  0.0684  0.0848 -0.4551
   82SLPC   H5X 7723   5.334   5.835   3.148  0.3748  0.2448  4.2953
   82SLPC   H5Y 7724   5.330   5.658   3.155 -1.6577 -1.1798  0.0611
   82SLPC   C36 7725   5.176   5.744   3.278  0.1034 -0.2913 -0.2807
   82SLPC   H6X 7726   5.117   5.649   3.269  0.3350 -0.4074 -0.5951
   82SLPC   H6Y 7727   5.105   5.830   3.278  1.8622  1.2306  0.8677
   82SLPC   C37 7728   5.275   5.745   3.391  0.4540  0.0163 -0.2666
   82SLPC   H7X 7729   5.292   5.848   3.428 -0.1724 -0.5740  1.8449
   82SLPC   H7Y 7730   5.368   5.691   3.363 -0.0520 -0.3919 -1.1932
   82SLPC   C38 7731   5.219   5.676   3.518 -0.2663  1.1039 -0.3264
   82SLPC   H8X 7732   5.178   5.580   3.480  3.1444 -1.2464  1.3518
   82SLPC   H8Y 7733   5.149   5.738   3.577  0.5033  0.8922  0.8499
   82SLPC   C39 7734   5.330   5.646   3.621  0.1468  0.3047  0.0023
   82SLPC   H9X 7735   5.374   5.742   3.659 -1.9952  1.1546  0.4466
   82SLPC   H9Y 7736   5.412   5.594   3.566  0.6707  0.7150  0.3724
   82SLPC  C310 7737   5.289   5.560   3.747  0.7857 -0.0130  0.1263
   82SLPC  H10X 7738   5.380   5.548   3.808  0.1699  0.0551  1.0804
   82SLPC  H10Y 7739   5.245   5.467   3.704 -1.9087  1.5374 -0.7690
   82SLPC  C311 7740   5.172   5.622   3.826  0.1929  0.3173  0.4059
   82SLPC  H11X 7741   5.075   5.617   3.773 -0.2147  2.3646  0.8871
   82SLPC  H11Y 7742   5.207   5.727   3.824  1.5646 -0.1136  0.7774
   82SLPC  C312 7743   5.154   5.571   3.973  0.2816  0.1332  0.0208
   82SLPC  H12X 7744   5.251   5.558   4.025 -0.1014  0.9717  0.9679
   82SLPC  H12Y 7745   5.108   5.470   3.965  0.0292  0.3823 -3.1828
   82SLPC  C313 7746   5.063   5.662   4.045 -0.2173 -0.5191 -0.0681
   82SLPC  H13X 7747   4.986   5.699   3.974  0.9188  0.3324 -0.8964
   82SLPC  H13Y 7748   5.119   5.757   4.062 -3.3132  1.4538 -0.0594
   82SLPC  C314 7749   5.006   5.622   4.181 -0.2148  0.1925  0.4663
   82SLPC  H14X 7750   5.090   5.607   4.253  0.0799  0.8285  0.2693
   82SLPC  H14Y 7751   4.944   5.531   4.169 -1.0513  0.8583 -0.4482
   82SLPC  C315 7752   4.934   5.727   4.252  0.3416  0.4415 -0.2475
   82SLPC  H15X 7753   4.855   5.769   4.187 -0.9083  1.5712  1.8693
   82SLPC  H15Y 7754   4.985   5.824   4.271  0.4810  0.2172  0.5972
   82SLPC  C316 7755   4.854   5.682   4.379  0.5375  0.5604  0.3373
   82SLPC  H16X 7756   4.929   5.637   4.448  0.0001 -1.3968 -0.2815
   82SLPC  H16Y 7757   4.786   5.600   4.347  1.8467 -0.7731  0.8497
   82SLPC  C317 7758   4.774   5.794   4.450 -0.4614  0.2204 -0.1558
   82SLPC  H17X 7759   4.830   5.890   4.444  1.7161 -0.8484  1.4734
   82SLPC  H17Y 7760   4.759   5.774   4.558 -0.8177  1.2403 -0.0080
   82SLPC  C318 7761   4.634   5.808   4.386 -0.5166  0.4869  0.6652
   82SLPC  H18X 7762   4.573   5.724   4.426  0.6760 -0.2442  1.0235
   82SLPC  H18Y 7763   4.644   5.810   4.276  0.8825  1.0834  0.7840
   82SLPC  H18Z 7764   4.590   5.907   4.413 -2.9074  0.0300 -1.2338
   83SLPC     N 7765   5.005   3.305   1.996 -0.1717  0.1206 -0.5960
   83SLPC   C13 7766   5.055   3.320   1.862 -0.2804 -0.2088  0.2201
   83SLPC  H13A 7767   5.154   3.362   1.857  0.3143 -1.4738  0.9943
   83SLPC  H13B 7768   5.060   3.221   1.820 -2.6742  0.2712 -1.4047
   83SLPC  H13C 7769   4.989   3.379   1.800 -3.0710 -3.1399  0.1159
   83SLPC   C14 7770   5.049   3.164   2.042 -0.1875 -0.8640 -0.8948
   83SLPC  H14A 7771   4.993   3.091   1.986 -0.4200 -2.0933  0.8532
   83SLPC  H14B 7772   5.153   3.148   2.022  0.7107  1.4466  1.3224
   83SLPC  H14C 7773   5.027   3.158   2.148  0.5032  0.9663 -0.6098
   83SLPC   C15 7774   4.856   3.297   1.989  0.1322 -1.0156  0.5978
   83SLPC  H15A 7775   4.829   3.280   2.093  0.3082 -2.2449  0.4569
   83SLPC  H15B 7776   4.823   3.394   1.955  0.8204 -0.8869  0.2884
   83SLPC  H15C 7777   4.816   3.226   1.918 -0.8041  1.4355 -1.4444
   83SLPC   C12 7778   5.056   3.411   2.084 -0.1903 -0.1143  0.5936
   83SLPC  H12A 7779   5.063   3.504   2.029  1.2416 -1.9646 -2.6314
   83SLPC  H12B 7780   5.159   3.393   2.108  0.0031 -0.1076 -0.2162
   83SLPC   C11 7781   4.985   3.413   2.222  0.3375 -0.2790  0.1714
   83SLPC  H11A 7782   4.880   3.451   2.217  0.3279 -0.3812 -0.6342
   83SLPC  H11B 7783   5.040   3.482   2.288  2.5860  0.2738 -2.1119
   83SLPC     P 7784   4.882   3.218   2.375 -0.5105  0.1555 -0.2751
   83SLPC   O13 7785   4.746   3.253   2.328 -0.0692 -0.5783 -0.2483
   83SLPC   O14 7786   4.913   3.075   2.379 -0.2936  0.2923 -0.8567
   83SLPC   O12 7787   4.987   3.284   2.276  0.1126  0.3174 -0.4645
   83SLPC   O11 7788   4.928   3.304   2.502 -0.4719  0.5482  0.0816
   83SLPC    C1 7789   5.037   3.257   2.602  0.1916 -0.3502  0.1528
   83SLPC    HA 7790   5.101   3.177   2.560 -0.0523 -0.5350  0.1304
   83SLPC    HB 7791   5.112   3.339   2.609  0.3938 -0.4205 -0.9230
   83SLPC    C2 7792   4.992   3.202   2.735 -0.0158  0.1719 -0.6156
   83SLPC    HS 7793   5.088   3.168   2.780  0.9674  1.4733 -1.6487
   83SLPC   O21 7794   4.915   3.081   2.714 -0.0343  0.4435 -0.0347
   83SLPC   C21 7795   4.974   2.968   2.682 -0.3497  0.2445 -0.4362
   83SLPC   O22 7796   5.095   2.960   2.662 -0.2000  0.6125 -0.3146
   83SLPC   C22 7797   4.871   2.862   2.677 -0.2040 -0.2808  0.8030
   83SLPC   H2R 7798   4.798   2.879   2.759 -0.5707 -2.2642  0.9290
   83SLPC   H2S 7799   4.817   2.888   2.582  2.8554 -0.7369 -1.1887
   83SLPC    C3 7800   4.916   3.309   2.817 -0.2760 -0.0367  0.3229
   83SLPC    HX 7801   4.844   3.341   2.739 -0.8667 -0.2092  0.7821
   83SLPC    HY 7802   4.988   3.392   2.835 -1.0596  1.0261 -1.2455
   83SLPC   O31 7803   4.854   3.257   2.934 -0.0298  0.1371  0.1121
   83SLPC   C31 7804   4.930   3.195   3.021  0.1765  0.0856 -0.0205
   83SLPC   O32 7805   5.052   3.189   3.020  0.6178  0.2858  0.4683
   83SLPC   C32 7806   4.845   3.114   3.115  0.3425 -0.6954 -0.1257
   83SLPC   H2X 7807   4.851   3.004   3.101 -0.9487 -0.7567 -0.3718
   83SLPC   H2Y 7808   4.738   3.145   3.108  0.6138  0.1787 -0.5426
   83SLPC   C23 7809   4.930   2.723   2.669  0.3192  0.1270 -0.6250
   83SLPC   H3R 7810   5.004   2.716   2.588  0.0781  1.7733 -1.0152
   83SLPC   H3S 7811   4.848   2.650   2.649  0.1793 -0.2822  1.2292
   83SLPC   C24 7812   5.004   2.678   2.802  0.3735 -0.6392  0.6551
   83SLPC   H4R 7813   5.092   2.743   2.822 -1.6458  2.7253 -0.5421
   83SLPC   H4S 7814   5.051   2.580   2.780  1.1586  0.5643 -4.1621
   83SLPC   C25 7815   4.917   2.665   2.922 -0.4016  0.1446 -0.0086
   83SLPC   H5R 7816   4.837   2.594   2.893 -1.6758  1.0713  1.1168
   83SLPC   H5S 7817   4.857   2.755   2.949 -1.0044  0.1544 -1.3321
   83SLPC   C26 7818   5.004   2.630   3.053 -0.1771 -0.7219 -0.0412
   83SLPC   H6R 7819   5.068   2.718   3.076 -1.7816  0.2481  0.9466
   83SLPC   H6S 7820   5.067   2.543   3.028  1.4867  0.1901  0.8201
   83SLPC   C27 7821   4.908   2.585   3.162  1.0602 -0.5851  0.2544
   83SLPC   H7R 7822   4.881   2.479   3.147 -0.2407 -0.0040 -1.8428
   83SLPC   H7S 7823   4.812   2.640   3.160  0.8648 -0.9434 -0.8667
   83SLPC   C28 7824   4.953   2.588   3.310  0.3590 -0.4618 -0.2791
   83SLPC   H8R 7825   4.873   2.532   3.362  1.1381 -1.0533  0.3152
   83SLPC   H8S 7826   4.955   2.695   3.341 -2.8641  0.3279 -2.3398
   83SLPC   C29 7827   5.082   2.522   3.343 -0.1488  0.3786 -0.1562
   83SLPC   H9R 7828   5.151   2.516   3.258  0.3775 -3.3736  0.3842
   83SLPC  C210 7829   5.108   2.442   3.447 -0.6191  0.4934 -0.0635
   83SLPC  H10R 7830   5.194   2.375   3.459 -0.8322  0.4777  1.6173
   83SLPC  C211 7831   5.020   2.426   3.562 -0.2446  0.1063 -0.6565
   83SLPC  H11R 7832   4.972   2.325   3.560  1.9384 -1.0738  1.1401
   83SLPC  H11S 7833   4.935   2.498   3.569 -1.9168 -1.9204  1.6585
   83SLPC  C212 7834   5.104   2.426   3.686  0.0600  0.2692 -0.2151
   83SLPC  H12R 7835   5.210   2.403   3.670 -0.1509  0.6845 -2.5502
   83SLPC  C213 7836   5.063   2.440   3.816  0.2913 -0.3408  0.0784
   83SLPC  H13R 7837   5.136   2.451   3.897  0.2033  0.0389  0.1068
   83SLPC  C214 7838   4.919   2.458   3.858  1.2243  0.1751 -0.1271
   83SLPC  H14R 7839   4.839   2.429   3.787 -0.8491  2.5368  1.0901
   83SLPC  H14S 7840   4.909   2.568   3.864 -0.1904  0.1203 -1.1947
   83SLPC  C215 7841   4.892   2.398   3.995 -0.3972 -0.9400 -0.5322
   83SLPC  H15R 7842   4.790   2.425   4.029  0.1153  1.2580 -0.5823
   83SLPC  H15S 7843   4.966   2.439   4.066 -1.6026 -1.0259  0.8111
   83SLPC  C216 7844   4.905   2.247   3.989  0.2369  0.0476  0.5976
   83SLPC  H16R 7845   5.009   2.215   3.966  0.6209  1.3494  0.4469
   83SLPC  H16S 7846   4.852   2.211   3.898  0.4169 -1.0364  0.8999
   83SLPC  C217 7847   4.851   2.169   4.114 -0.1971  0.5169  0.4673
   83SLPC  H17R 7848   4.744   2.195   4.131  0.3970  2.6866  1.2233
   83SLPC  H17S 7849   4.907   2.223   4.193 -1.6931  0.5125  1.5653
   83SLPC  C218 7850   4.881   2.019   4.119  0.0624  0.0272 -0.1012
   83SLPC  H18R 7851   4.968   2.004   4.053  1.9953  1.0577  2.0771
   83SLPC  H18S 7852   4.798   1.953   4.085  0.1429  1.0505 -2.5013
   83SLPC  H18T 7853   4.906   1.998   4.225 -1.5326 -0.6335  0.1826
   83SLPC   C33 7854   4.887   3.137   3.271  0.5308 -0.3385 -0.3428
   83SLPC   H3X 7855   4.986   3.093   3.294  0.4469  1.0504  3.3453
   83SLPC   H3Y 7856   4.809   3.082   3.329 -0.2720  2.1439  1.0980
   83SLPC   C34 7857   4.877   3.286   3.312 -0.5336 -0.2440 -1.1893
   83SLPC   H4X 7858   4.792   3.329   3.254  0.9298  1.3418 -2.2541
   83SLPC   H4Y 7859   4.975   3.327   3.281  0.4715  0.7627  2.7896
   83SLPC   C35 7860   4.862   3.304   3.461  0.8126 -0.2833 -0.2045
   83SLPC   H5X 7861   4.877   3.412   3.482  2.5122  0.1534 -2.9784
   83SLPC   H5Y 7862   4.939   3.242   3.512  0.9866 -0.4235 -0.6312
   83SLPC   C36 7863   4.731   3.250   3.541 -0.5995 -0.6507 -0.4696
   83SLPC   H6X 7864   4.704   3.155   3.491 -0.5226  0.5509 -2.9423
   83SLPC   H6Y 7865   4.657   3.330   3.516  1.5632  1.3964 -0.6950
   83SLPC   C37 7866   4.750   3.231   3.686 -0.2492  0.1319 -0.4578
   83SLPC   H7X 7867   4.828   3.152   3.685 -0.7700 -0.3958 -1.4528
   83SLPC   H7Y 7868   4.656   3.181   3.720  1.0456 -2.8486 -0.9046
   83SLPC   C38 7869   4.782   3.360   3.757 -0.7021 -0.7124  0.4909
   83SLPC   H8X 7870   4.692   3.423   3.737 -0.8198 -0.8798  0.4919
   83SLPC   H8Y 7871   4.876   3.409   3.726 -0.5439  0.0160  2.0345
   83SLPC   C39 7872   4.799   3.337   3.911  0.0599  0.6263  0.3189
   83SLPC   H9X 7873   4.704   3.293   3.947  0.6844 -1.0687 -0.0282
   83SLPC   H9Y 7874   4.815   3.432   3.966  1.9444 -1.3143  3.4213
   83SLPC  C310 7875   4.911   3.245   3.955 -0.0922  0.8233 -0.2641
   83SLPC  H10X 7876   5.010   3.291   3.941 -0.4038  2.5657  2.5211
   83SLPC  H10Y 7877   4.919   3.145   3.906 -0.3780  0.4679  0.3927
   83SLPC  C311 7878   4.900   3.227   4.107 -0.0082 -0.2039 -0.0860
   83SLPC  H11X 7879   4.853   3.320   4.144  2.3215  0.6654  0.9060
   83SLPC  H11Y 7880   5.001   3.230   4.154 -0.1282 -2.0657  0.3918
   83SLPC  C312 7881   4.840   3.096   4.149  0.5746 -0.4801 -0.3752
   83SLPC  H12X 7882   4.883   3.062   4.245 -2.6188  0.2807  1.4848
   83SLPC  H12Y 7883   4.858   3.024   4.066  0.2304 -0.1412 -0.7480
   83SLPC  C313 7884   4.686   3.102   4.176 -0.2863  0.0454  0.5768
   83SLPC  H13X 7885   4.626   3.084   4.084  0.7790  0.2098 -0.1820
   83SLPC  H13Y 7886   4.665   3.201   4.222  0.6139  1.2900 -1.4988
   83SLPC  C314 7887   4.641   2.985   4.273  1.0031 -0.4282  0.1509
   83SLPC  H14X 7888   4.692   2.993   4.372  1.5031  1.6449 -0.2169
   83SLPC  H14Y 7889   4.668   2.892   4.220 -0.6003  1.5779 -4.7100
   83SLPC  C315 7890   4.487   2.980   4.319 -0.4961 -0.1257 -0.1240
   83SLPC  H15X 7891   4.431   2.970   4.224  0.2108  0.5122 -0.6231
   83SLPC  H15Y 7892   4.470   3.083   4.357 -1.6651  0.1754 -1.3905
   83SLPC  C316 7893   4.452   2.878   4.420 -0.2539  0.2080  0.8908
   83SLPC  H16X 7894   4.506   2.887   4.517  1.5188 -0.0064 -0.0384
   83SLPC  H16Y 7895   4.459   2.774   4.382 -2.6206  0.2279  0.2635
   83SLPC  C317 7896   4.304   2.890   4.469  0.5028 -0.9744 -0.1093
   83SLPC  H17X 7897   4.302   2.995   4.508 -1.0058 -1.7235  2.0363
   83SLPC  H17Y 7898   4.302   2.829   4.562  0.1329 -0.2720  0.3603
   83SLPC  C318 7899   4.197   2.847   4.373 -0.8885  0.7199 -0.2250
   83SLPC  H18X 7900   4.099   2.816   4.417 -0.9549 -0.4721 -1.1432
   83SLPC  H18Y 7901   4.247   2.766   4.315 -1.1480 -0.0393  0.5856
   83SLPC  H18Z 7902   4.177   2.926   4.297  2.0899  0.4600 -1.4059
   84SLPC     N 7903   0.206   2.860   1.822  0.0032  0.4113  0.1110
   84SLPC   C13 7904   0.340   2.921   1.849 -0.1919  0.6480 -0.4780
   84SLPC  H13A 7905   0.421   2.850   1.857 -0.7857  0.1287  2.2565
   84SLPC  H13B 7906   0.370   3.001   1.783  0.5139 -0.0701 -1.0570
   84SLPC  H13C 7907   0.332   2.968   1.946 -2.6287  1.1321 -0.8439
   84SLPC   C14 7908   0.182   2.747   1.924  0.0258  0.3912 -0.6206
   84SLPC  H14A 7909   0.256   2.668   1.927 -1.1754 -0.8220  3.0296
   84SLPC  H14B 7910   0.180   2.783   2.026 -1.0432 -1.7993  0.2186
   84SLPC  H14C 7911   0.086   2.702   1.901 -0.8573  1.5247  0.7016
   84SLPC   C15 7912   0.209   2.807   1.679 -0.2417  0.0982  0.0920
   84SLPC  H15A 7913   0.129   2.736   1.665 -0.1376 -0.0446  0.2247
   84SLPC  H15B 7914   0.192   2.879   1.600 -1.6537 -0.4460 -0.1148
   84SLPC  H15C 7915   0.305   2.758   1.665 -0.3466 -0.1866  0.3732
   84SLPC   C12 7916   0.098   2.965   1.826 -0.2183  0.3684 -0.4400
   84SLPC  H12A 7917   0.009   2.927   1.778 -0.2259  0.4179 -0.4660
   84SLPC  H12B 7918   0.128   3.043   1.758 -0.4615 -1.1459 -2.3767
   84SLPC   C11 7919   0.060   3.039   1.950 -0.3114 -0.3747 -0.1411
   84SLPC  H11A 7920  -0.012   3.123   1.938  1.9726  2.1786  2.7169
   84SLPC  H11B 7921   0.159   3.076   1.982  1.3167 -3.6320 -1.0284
   84SLPC     P 7922  -0.115   2.885   2.068 -0.0803  0.2515  0.0697
   84SLPC   O13 7923  -0.150   2.841   1.929 -0.0598 -0.6539  0.3938
   84SLPC   O14 7924  -0.098   2.773   2.162 -0.1059 -0.4465 -0.3435
   84SLPC   O12 7925   0.025   2.955   2.062 -0.1459  0.2384  0.2566
   84SLPC   O11 7926  -0.215   2.992   2.123 -0.2312 -0.6521  0.0717
   84SLPC    C1 7927  -0.162   3.081   2.230  0.4978 -0.0963 -0.2657
   84SLPC    HA 7928  -0.052   3.076   2.243  0.5080  1.9013  0.8544
   84SLPC    HB 7929  -0.193   3.184   2.202  1.0937  0.2922  0.4767
   84SLPC    C2 7930  -0.224   3.053   2.371  0.8662 -0.3799 -0.1385
   84SLPC    HS 7931  -0.226   3.138   2.443 -0.9559 -0.1697 -0.3746
   84SLPC   O21 7932  -0.184   2.933   2.439  0.1616 -0.5479 -0.3692
   84SLPC   C21 7933  -0.062   2.946   2.485  0.4008  0.7368 -0.1688
   84SLPC   O22 7934   0.012   3.046   2.472  0.6430 -1.1772 -0.7969
   84SLPC   C22 7935  -0.020   2.831   2.580  0.3127 -0.5114  0.2037
   84SLPC   H2R 7936  -0.099   2.754   2.569  0.8476 -0.8923 -1.1712
   84SLPC   H2S 7937   0.073   2.793   2.533  0.6227  1.6227 -1.0041
   84SLPC    C3 7938  -0.383   3.044   2.350 -0.4729 -0.4144  0.1764
   84SLPC    HX 7939  -0.397   2.944   2.305  3.0188 -1.1878  0.4897
   84SLPC    HY 7940  -0.423   3.120   2.280 -0.1016  0.5233  0.9676
   84SLPC   O31 7941  -0.451   3.053   2.476 -0.2135 -0.1345 -0.1705
   84SLPC   C31 7942  -0.501   3.164   2.525  0.0743  0.9587 -0.3369
   84SLPC   O32 7943  -0.487   3.276   2.478  0.0368  0.0684 -0.2478
   84SLPC   C32 7944  -0.579   3.132   2.651 -0.0175  0.4889  0.1230
   84SLPC   H2X 7945  -0.512   3.061   2.703 -1.7937 -1.1245  0.3075
   84SLPC   H2Y 7946  -0.676   3.088   2.621  0.7431 -2.6875  1.9235
   84SLPC   C23 7947  -0.009   2.874   2.730  0.4169 -0.0870  0.6221
   84SLPC   H3R 7948   0.084   2.933   2.745 -0.3175  1.7039 -1.2995
   84SLPC   H3S 7949   0.010   2.784   2.791 -1.3864  0.3508  1.9009
   84SLPC   C24 7950  -0.126   2.953   2.791  0.0576  0.2776 -0.0742
   84SLPC   H4R 7951  -0.223   2.909   2.759  0.5178  0.1382 -1.3542
   84SLPC   H4S 7952  -0.127   3.058   2.755 -1.9738  0.8399  1.4686
   84SLPC   C25 7953  -0.137   2.961   2.945 -0.0600  0.2737  0.7987
   84SLPC   H5R 7954  -0.143   2.857   2.984 -2.4898 -0.8135 -2.0635
   84SLPC   H5S 7955  -0.233   3.014   2.964 -0.3940 -0.3415  0.8455
   84SLPC   C26 7956  -0.016   3.043   3.005 -0.1240  0.0577 -0.3330
   84SLPC   H6R 7957  -0.016   3.136   2.944 -2.3639 -0.1052 -0.6603
   84SLPC   H6S 7958   0.079   2.986   2.996 -1.8257 -3.3201  1.1233
   84SLPC   C27 7959  -0.042   3.088   3.144  0.3241  0.7425  0.4748
   84SLPC   H7R 7960  -0.077   3.004   3.207 -0.4139  0.0023 -0.8826
   84SLPC   H7S 7961  -0.133   3.151   3.148 -1.4731 -1.5202 -1.6479
   84SLPC   C28 7962   0.073   3.158   3.224  0.1990  0.3885  0.5321
   84SLPC   H8R 7963   0.020   3.218   3.301  0.1225  0.8289  0.1435
   84SLPC   H8S 7964   0.117   3.233   3.154 -1.4164 -0.7520 -1.8389
   84SLPC   C29 7965   0.182   3.070   3.287 -0.1370  0.3020  0.2646
   84SLPC   H9R 7966   0.243   3.005   3.223  3.2925  2.1373  1.4327
   84SLPC  C210 7967   0.228   3.084   3.413 -0.0395  0.3737  0.3300
   84SLPC  H10R 7968   0.311   3.021   3.450 -0.2855 -0.1452  0.0099
   84SLPC  C211 7969   0.175   3.183   3.512  0.0193  0.0307 -0.0262
   84SLPC  H11R 7970   0.161   3.284   3.468  3.0594  1.4097  1.8506
   84SLPC  H11S 7971   0.252   3.199   3.590 -0.9617 -2.6216  1.6539
   84SLPC  C212 7972   0.045   3.124   3.570 -0.6856 -0.1521 -0.0686
   84SLPC  H12R 7973  -0.044   3.155   3.514 -0.3584 -1.7936 -1.6054
   84SLPC  C213 7974   0.033   3.037   3.668 -0.4992 -0.2044  0.7967
   84SLPC  H13R 7975  -0.069   3.008   3.698 -2.5538  3.1154 -2.0351
   84SLPC  C214 7976   0.145   2.981   3.744 -0.4091 -0.0533 -0.0349
   84SLPC  H14R 7977   0.243   3.030   3.725 -1.0960  1.8138  1.0535
   84SLPC  H14S 7978   0.154   2.874   3.715 -2.5538  0.1068 -1.5995
   84SLPC  C215 7979   0.113   2.984   3.894 -0.0293 -0.1587 -0.5998
   84SLPC  H15R 7980   0.010   2.947   3.916 -0.5651  0.0213 -2.5847
   84SLPC  H15S 7981   0.120   3.088   3.932 -0.2051 -0.2644 -0.2712
   84SLPC  C216 7982   0.220   2.917   3.976  0.4679  0.3664 -0.1850
   84SLPC  H16R 7983   0.315   2.958   3.936  0.2969 -0.0065 -0.9817
   84SLPC  H16S 7984   0.220   2.806   3.975 -0.4439  0.3595  0.0235
   84SLPC  C217 7985   0.189   2.950   4.123 -0.2291  0.8421 -0.2689
   84SLPC  H17R 7986   0.084   2.930   4.155 -0.1954  2.6718  1.1598
   84SLPC  H17S 7987   0.202   3.058   4.145 -2.2051  1.2276 -0.8118
   84SLPC  C218 7988   0.288   2.878   4.210 -0.3990  0.0425  0.2480
   84SLPC  H18R 7989   0.393   2.913   4.194 -0.1056 -0.9120 -0.0373
   84SLPC  H18S 7990   0.288   2.772   4.176  1.4750  0.7541 -2.3250
   84SLPC  H18T 7991   0.254   2.896   4.314  1.3428 -1.0109  1.0636
   84SLPC   C33 7992  -0.595   3.257   2.744  0.3789  0.8820 -0.3725
   84SLPC   H3X 7993  -0.633   3.344   2.686  0.2511  1.7652  0.9850
   84SLPC   H3Y 7994  -0.492   3.284   2.777  1.4521 -0.9068 -2.0318
   84SLPC   C34 7995  -0.692   3.250   2.864 -0.0585 -0.4972  0.8106
   84SLPC   H4X 7996  -0.727   3.145   2.880 -1.5224  0.1022  1.6710
   84SLPC   H4Y 7997  -0.776   3.322   2.856  0.8387  0.6541  1.4978
   84SLPC   C35 7998  -0.621   3.284   2.990  0.4410  0.6726  0.1604
   84SLPC   H5X 7999  -0.603   3.394   2.990  1.2879  0.5439  0.3777
   84SLPC   H5Y 8000  -0.528   3.223   2.996 -0.5757 -1.0243 -0.4701
   84SLPC   C36 8001  -0.712   3.255   3.114 -0.1065 -0.4177 -0.3540
   84SLPC   H6X 8002  -0.743   3.149   3.100  2.0213 -1.2797  0.9484
   84SLPC   H6Y 8003  -0.798   3.325   3.103 -0.5517 -0.9774 -0.4988
   84SLPC   C37 8004  -0.650   3.261   3.250 -0.1563 -0.0150 -0.7605
   84SLPC   H7X 8005  -0.724   3.235   3.329  0.1216 -2.2424 -1.1707
   84SLPC   H7Y 8006  -0.619   3.366   3.269 -1.1122  0.3573 -1.1590
   84SLPC   C38 8007  -0.522   3.171   3.278  0.4181  0.4379 -0.2658
   84SLPC   H8X 8008  -0.436   3.230   3.239  0.3495 -0.6699 -2.2061
   84SLPC   H8Y 8009  -0.526   3.074   3.225 -0.4596 -0.5457  1.5523
   84SLPC   C39 8010  -0.510   3.138   3.430 -0.7263  0.3646  0.0712
   84SLPC   H9X 8011  -0.574   3.048   3.439  0.0442 -0.1292  0.7653
   84SLPC   H9Y 8012  -0.557   3.218   3.492 -1.0145  0.0307  0.2819
   84SLPC  C310 8013  -0.371   3.091   3.488  0.4104 -0.3860 -0.1491
   84SLPC  H10X 8014  -0.307   3.179   3.511  1.3305 -0.6950 -1.4220
   84SLPC  H10Y 8015  -0.319   3.032   3.410  1.3132 -0.7726  0.7156
   84SLPC  C311 8016  -0.377   3.009   3.618  0.7418 -0.6627 -0.1203
   84SLPC  H11X 8017  -0.273   2.974   3.633  0.9375  0.1125  0.3618
   84SLPC  H11Y 8018  -0.458   2.933   3.616  0.0845  0.0396 -0.5319
   84SLPC  C312 8019  -0.404   3.088   3.745  0.3867 -0.3356 -0.0389
   84SLPC  H12X 8020  -0.499   3.145   3.736  1.2523  0.8400 -2.6153
   84SLPC  H12Y 8021  -0.328   3.168   3.737 -3.3185  3.4301 -1.7506
   84SLPC  C313 8022  -0.387   2.994   3.861 -0.0362  0.0909 -0.0613
   84SLPC  H13X 8023  -0.280   2.963   3.856  0.1018  0.7547 -2.6371
   84SLPC  H13Y 8024  -0.457   2.910   3.845 -1.3883  0.8587  1.5228
   84SLPC  C314 8025  -0.419   3.063   3.999 -0.8094  0.0668  0.6239
   84SLPC  H14X 8026  -0.527   3.092   4.000 -0.5580  1.2411 -1.2404
   84SLPC  H14Y 8027  -0.353   3.152   4.001  1.5141 -1.5575 -0.3424
   84SLPC  C315 8028  -0.394   2.974   4.122 -0.0881 -0.3019  0.3191
   84SLPC  H15X 8029  -0.297   2.923   4.112 -0.8649 -1.8946  0.6092
   84SLPC  H15Y 8030  -0.467   2.890   4.122 -0.5498 -0.0118 -2.4816
   84SLPC  C316 8031  -0.388   3.061   4.253  0.3057 -0.4532  0.4120
   84SLPC  H16X 8032  -0.475   3.130   4.257 -0.3181 -1.2702  3.2694
   84SLPC  H16Y 8033  -0.304   3.134   4.247 -1.1440  1.6371  3.1585
   84SLPC  C317 8034  -0.374   2.978   4.382 -0.5962  0.1198  0.6678
   84SLPC  H17X 8035  -0.281   2.918   4.382 -0.6264  0.0296 -0.9794
   84SLPC  H17Y 8036  -0.460   2.910   4.399 -0.4186 -0.2000  0.3106
   84SLPC  C318 8037  -0.364   3.066   4.504  0.1982  0.0092  0.0045
   84SLPC  H18X 8038  -0.427   3.158   4.499  0.4272  0.4187  2.8498
   84SLPC  H18Y 8039  -0.265   3.116   4.504 -0.4918  1.4941 -1.6956
   84SLPC  H18Z 8040  -0.368   3.019   4.604 -0.5314  0.0849  0.0148
   85SLPC     N 8041   5.317   0.973   1.923 -0.6378  0.0483 -0.1737
   85SLPC   C13 8042   5.372   1.080   2.013  0.2205 -0.5790 -0.1053
   85SLPC  H13A 8043   5.429   1.035   2.093 -1.4797  0.4434  1.7645
   85SLPC  H13B 8044   5.433   1.155   1.965 -3.1405  0.9113 -2.3989
   85SLPC  H13C 8045   5.290   1.132   2.059  0.7553 -0.2861  0.5353
   85SLPC   C14 8046   5.446   0.918   1.862 -0.2467 -0.6815 -0.4603
   85SLPC  H14A 8047   5.499   1.000   1.814  0.3493 -1.0548 -0.4400
   85SLPC  H14B 8048   5.514   0.884   1.938 -0.7094 -3.6193 -1.2389
   85SLPC  H14C 8049   5.431   0.836   1.794  1.9442  0.2338 -2.1754
   85SLPC   C15 8050   5.240   1.023   1.809  0.1588 -0.7516  0.2720
   85SLPC  H15A 8051   5.224   0.942   1.740  0.5365  1.3330 -2.4504
   85SLPC  H15B 8052   5.148   1.069   1.842  0.3780 -0.7874  0.9364
   85SLPC  H15C 8053   5.295   1.096   1.751  1.3079 -1.4859  0.4234
   85SLPC   C12 8054   5.242   0.866   1.993 -0.5535  0.3669  0.1548
   85SLPC  H12A 8055   5.289   0.831   2.084 -1.0236 -1.2747 -0.1985
   85SLPC  H12B 8056   5.246   0.781   1.928  0.0936  0.2337  0.3633
   85SLPC   C11 8057   5.097   0.893   2.029  0.6378  0.0664  0.6473
   85SLPC  H11A 8058   5.051   0.807   2.083  0.1185  0.3800  0.7178
   85SLPC  H11B 8059   5.035   0.900   1.937 -0.4183  1.6790  1.4332
   85SLPC     P 8060   4.975   1.116   2.087 -0.0740  0.0448  0.0462
   85SLPC   O13 8061   5.038   1.238   2.020  0.7454 -0.0321 -0.0479
   85SLPC   O14 8062   4.870   1.047   2.015  1.0743  0.4274  0.1226
   85SLPC   O12 8063   5.095   1.015   2.113  0.6804 -0.2369  0.1931
   85SLPC   O11 8064   4.922   1.162   2.228  0.1129 -0.4018 -0.0464
   85SLPC    C1 8065   4.892   1.064   2.319  0.6636  0.5459 -0.4056
   85SLPC    HA 8066   4.920   0.959   2.296 -2.3653 -0.4374 -0.0186
   85SLPC    HB 8067   4.952   1.083   2.411  1.4785 -1.4455 -0.4769
   85SLPC    C2 8068   4.738   1.061   2.346 -0.2060 -0.7997  0.1282
   85SLPC    HS 8069   4.703   1.066   2.241 -2.4686  2.5145  0.8999
   85SLPC   O21 8070   4.703   1.179   2.423  0.2697 -0.0433 -0.0274
   85SLPC   C21 8071   4.572   1.208   2.422 -0.6174  0.8125  0.2662
   85SLPC   O22 8072   4.495   1.172   2.338 -0.1806 -0.5156 -0.0256
   85SLPC   C22 8073   4.533   1.303   2.535  0.2739  0.0711 -0.4797
   85SLPC   H2R 8074   4.610   1.295   2.614  0.8842 -2.5901 -1.2262
   85SLPC   H2S 8075   4.527   1.408   2.500 -4.2579 -0.4571 -1.9327
   85SLPC    C3 8076   4.688   0.933   2.410  0.0697 -0.3891 -0.3520
   85SLPC    HX 8077   4.748   0.849   2.368  1.0277  0.4508 -0.6993
   85SLPC    HY 8078   4.583   0.912   2.381 -0.0768 -0.1468 -0.0052
   85SLPC   O31 8079   4.699   0.952   2.554 -0.0183  0.3284  0.1108
   85SLPC   C31 8080   4.639   0.857   2.630  0.6178 -0.0481  0.4801
   85SLPC   O32 8081   4.564   0.775   2.576 -1.1153 -0.1084 -0.4757
   85SLPC   C32 8082   4.681   0.864   2.779 -0.1128  0.0326  0.1646
   85SLPC   H2X 8083   4.728   0.962   2.800 -1.0464  0.6953 -0.7254
   85SLPC   H2Y 8084   4.758   0.785   2.793 -0.8335 -0.3363  2.4319
   85SLPC   C23 8085   4.401   1.270   2.606 -0.5300  0.3742 -0.1976
   85SLPC   H3R 8086   4.377   1.162   2.609 -1.4381  0.3324 -3.7019
   85SLPC   H3S 8087   4.321   1.307   2.537  0.9568 -0.9595 -2.7916
   85SLPC   C24 8088   4.389   1.326   2.747  0.0057  0.6702 -0.4776
   85SLPC   H4R 8089   4.286   1.321   2.788  0.7232  0.8209  1.4450
   85SLPC   H4S 8090   4.417   1.433   2.762  0.0985  0.5627  0.1359
   85SLPC   C25 8091   4.494   1.262   2.844  0.2892 -0.0146  0.7377
   85SLPC   H5R 8092   4.529   1.157   2.830  1.7679  0.0384  3.3595
   85SLPC   H5S 8093   4.582   1.329   2.835  1.5413 -1.7538 -0.7830
   85SLPC   C26 8094   4.446   1.282   2.988 -0.3448  0.3637 -0.9349
   85SLPC   H6R 8095   4.362   1.217   3.020 -1.0154  0.9473 -1.4880
   85SLPC   H6S 8096   4.413   1.386   3.008  1.0044  0.2662  2.6427
   85SLPC   C27 8097   4.549   1.253   3.100  0.0486 -1.0773 -0.3181
   85SLPC   H7R 8098   4.617   1.340   3.090 -1.7262  0.3442 -0.5320
   85SLPC   H7S 8099   4.598   1.156   3.075  0.5713 -0.7699 -0.4927
   85SLPC   C28 8100   4.508   1.277   3.244 -0.0683 -0.1159  0.4797
   85SLPC   H8R 8101   4.438   1.363   3.249  1.2188  1.0181 -0.3854
   85SLPC   H8S 8102   4.596   1.311   3.303 -0.3338  0.3983  0.5900
   85SLPC   C29 8103   4.452   1.154   3.311  0.3425 -0.0119 -0.1298
   85SLPC   H9R 8104   4.349   1.130   3.281  0.9756 -0.6128 -2.0407
   85SLPC  C210 8105   4.513   1.082   3.410  0.6519 -0.4362  1.1164
   85SLPC  H10R 8106   4.446   1.005   3.451 -1.2445 -0.0904 -1.0930
   85SLPC  C211 8107   4.644   1.114   3.477 -0.5767  0.0545  0.1277
   85SLPC  H11R 8108   4.720   1.147   3.404 -1.6224  3.3953  0.3751
   85SLPC  H11S 8109   4.678   1.018   3.522  0.5086  0.9249  1.2558
   85SLPC  C212 8110   4.635   1.230   3.575 -0.5911 -0.3749  0.1646
   85SLPC  H12R 8111   4.626   1.329   3.526  0.5147 -0.0930  0.4964
   85SLPC  C213 8112   4.655   1.227   3.707 -0.6050 -0.3370  0.2094
   85SLPC  H13R 8113   4.646   1.322   3.762 -1.6174  0.4854 -1.2867
   85SLPC  C214 8114   4.685   1.112   3.803  0.4559  0.1562  0.0116
   85SLPC  H14R 8115   4.726   1.028   3.742  3.1281  0.0052  1.8631
   85SLPC  H14S 8116   4.588   1.075   3.842  0.1776 -2.0608 -2.4888
   85SLPC  C215 8117   4.798   1.125   3.903  0.5735 -0.7527 -0.6007
   85SLPC  H15R 8118   4.882   1.180   3.857  0.6519 -0.3727 -0.0040
   85SLPC  H15S 8119   4.841   1.029   3.938  0.8429 -0.8269 -1.1189
   85SLPC  C216 8120   4.749   1.210   4.018 -0.1526  0.0060  0.0235
   85SLPC  H16R 8121   4.668   1.151   4.067 -0.7613  0.1483 -0.7870
   85SLPC  H16S 8122   4.702   1.302   3.976 -1.9659 -0.4515  0.9366
   85SLPC  C217 8123   4.858   1.248   4.128  0.4317 -0.2595  0.5403
   85SLPC  H17R 8124   4.800   1.304   4.204  1.2861  0.2871  0.8016
   85SLPC  H17S 8125   4.942   1.305   4.084  0.3544 -0.6204 -0.0912
   85SLPC  C218 8126   4.924   1.126   4.186 -0.6625  0.2112  0.6338
   85SLPC  H18R 8127   4.982   1.064   4.114 -2.6092 -0.3440 -0.5430
   85SLPC  H18S 8128   4.856   1.056   4.240 -1.4383 -1.1528 -1.8954
   85SLPC  H18T 8129   4.988   1.159   4.270 -0.9045 -0.2071  0.9827
   85SLPC   C33 8130   4.562   0.834   2.871  0.2407 -0.1878 -0.0482
   85SLPC   H3X 8131   4.508   0.742   2.840  0.8066 -0.6377  0.2581
   85SLPC   H3Y 8132   4.488   0.916   2.871 -0.0074 -0.3766  1.6065
   85SLPC   C34 8133   4.608   0.818   3.011  0.7810 -0.4196 -0.0111
   85SLPC   H4X 8134   4.671   0.907   3.032  0.3034  0.9885 -3.7881
   85SLPC   H4Y 8135   4.680   0.734   3.025 -0.1731 -1.3590 -0.5716
   85SLPC   C35 8136   4.486   0.804   3.108  0.1793  0.8880  0.2079
   85SLPC   H5X 8137   4.416   0.731   3.062  1.2592 -0.5730  0.8495
   85SLPC   H5Y 8138   4.416   0.891   3.108 -0.8241  0.1215 -0.6181
   85SLPC   C36 8139   4.531   0.763   3.244  0.4566 -0.2493 -0.4641
   85SLPC   H6X 8140   4.584   0.851   3.286  0.0066 -0.5490  0.7911
   85SLPC   H6Y 8141   4.602   0.678   3.246  2.6767  1.5226  1.6026
   85SLPC   C37 8142   4.414   0.725   3.336 -0.0656  0.2809 -0.6826
   85SLPC   H7X 8143   4.371   0.624   3.325  1.6345 -0.5977  0.2658
   85SLPC   H7Y 8144   4.336   0.803   3.322  0.0142  0.4391 -0.2616
   85SLPC   C38 8145   4.456   0.724   3.486  0.4171 -0.2202  0.0956
   85SLPC   H8X 8146   4.358   0.719   3.538  1.1173  0.3173  1.5174
   85SLPC   H8Y 8147   4.504   0.816   3.525  2.1962 -0.7970 -0.6632
   85SLPC   C39 8148   4.536   0.601   3.534 -0.2934  0.7519 -0.2856
   85SLPC   H9X 8149   4.617   0.585   3.459 -2.0747 -1.9779 -1.7968
   85SLPC   H9Y 8150   4.476   0.508   3.529  0.2673  0.4363 -1.8678
   85SLPC  C310 8151   4.594   0.629   3.680 -0.8775  0.1341  0.3903
   85SLPC  H10X 8152   4.626   0.734   3.692 -0.5637  0.2297 -1.1522
   85SLPC  H10Y 8153   4.682   0.564   3.702  0.1765  1.2585 -0.4059
   85SLPC  C311 8154   4.494   0.591   3.785 -0.1989  0.2934 -0.0316
   85SLPC  H11X 8155   4.466   0.486   3.762 -1.0427  0.8676 -1.9101
   85SLPC  H11Y 8156   4.402   0.652   3.770 -1.2103 -1.0238  0.6836
   85SLPC  C312 8157   4.550   0.591   3.925 -0.5762  0.0545  0.3944
   85SLPC  H12X 8158   4.619   0.678   3.933 -0.1896 -0.2089 -0.0073
   85SLPC  H12Y 8159   4.609   0.500   3.947  0.7417  1.2057  1.8902
   85SLPC  C313 8160   4.443   0.592   4.040  0.9383  0.5287  0.4361
   85SLPC  H13X 8161   4.387   0.497   4.050 -0.1996  1.2958  1.8786
   85SLPC  H13Y 8162   4.368   0.671   4.017  1.4347  1.3772  1.6114
   85SLPC  C314 8163   4.508   0.610   4.181  0.5036  0.1788  0.3100
   85SLPC  H14X 8164   4.430   0.598   4.259 -0.5678 -1.1214 -0.8959
   85SLPC  H14Y 8165   4.552   0.710   4.166  1.1659 -0.3326 -1.5544
   85SLPC  C315 8166   4.619   0.508   4.214  0.1206 -0.7272  0.1138
   85SLPC  H15X 8167   4.695   0.508   4.133 -0.0454 -0.4303 -0.0447
   85SLPC  H15Y 8168   4.575   0.407   4.225 -1.3683  0.0116  1.3396
   85SLPC  C316 8169   4.678   0.544   4.345 -1.3295  0.8093 -0.9636
   85SLPC  H16X 8170   4.601   0.539   4.425  1.0857  0.4321  1.5245
   85SLPC  H16Y 8171   4.725   0.644   4.334  1.6427 -0.6263 -2.5607
   85SLPC  C317 8172   4.802   0.455   4.390  0.9474 -0.1896  0.0238
   85SLPC  H17X 8173   4.881   0.456   4.312 -1.1484 -2.2966 -2.2696
   85SLPC  H17Y 8174   4.769   0.351   4.406  0.5654 -0.0978 -0.1635
   85SLPC  C318 8175   4.851   0.498   4.531 -0.6778 -0.3493  0.6200
   85SLPC  H18X 8176   4.939   0.439   4.563  0.3752 -0.4661 -2.1984
   85SLPC  H18Y 8177   4.772   0.480   4.607 -0.3842 -2.5269  0.4652
   85SLPC  H18Z 8178   4.883   0.605   4.527 -0.8963 -0.2413  1.5934
   86SLPC     N 8179   4.441   5.558   2.318 -0.0151 -0.8738  0.2847
   86SLPC   C13 8180   4.326   5.519   2.411  0.7921  0.0986 -0.5133
   86SLPC  H13A 8181   4.246   5.469   2.359  0.8865  0.3470 -0.9067
   86SLPC  H13B 8182   4.350   5.447   2.487 -3.8618 -0.3473  0.8570
   86SLPC  H13C 8183   4.277   5.602   2.459  0.6441 -0.4636  0.3150
   86SLPC   C14 8184   4.386   5.635   2.201 -0.8686 -0.1379  0.0590
   86SLPC  H14A 8185   4.465   5.642   2.128 -0.4460  2.8871  0.6829
   86SLPC  H14B 8186   4.301   5.575   2.170 -1.5435  0.2203  1.1575
   86SLPC  H14C 8187   4.348   5.735   2.217  1.3989  0.5849  1.2869
   86SLPC   C15 8188   4.497   5.432   2.266 -0.1782  0.1883  0.4284
   86SLPC  H15A 8189   4.419   5.370   2.223  0.7844 -2.0860  1.7490
   86SLPC  H15B 8190   4.575   5.451   2.194 -0.6969 -2.2112 -0.8944
   86SLPC  H15C 8191   4.536   5.373   2.348  4.0008  2.4339  0.3121
   86SLPC   C12 8192   4.553   5.631   2.395  0.2588  0.1163 -0.1163
   86SLPC  H12A 8193   4.596   5.557   2.461  0.9510  0.1430 -0.5291
   86SLPC  H12B 8194   4.509   5.715   2.446  0.5543 -0.1071  0.5280
   86SLPC   C11 8195   4.678   5.682   2.317 -0.7444 -0.6497 -0.6764
   86SLPC  H11A 8196   4.750   5.703   2.399 -0.2644  2.3952 -1.7336
   86SLPC  H11B 8197   4.654   5.775   2.261  3.5306  1.2627  0.3133
   86SLPC     P 8198   4.869   5.528   2.251 -0.0898 -0.1964 -0.0157
   86SLPC   O13 8199   4.887   5.414   2.160  0.9220  0.6598 -0.4547
   86SLPC   O14 8200   4.980   5.620   2.235 -0.0628  0.4957  0.0949
   86SLPC   O12 8201   4.735   5.598   2.219  0.6448 -0.1938 -0.2403
   86SLPC   O11 8202   4.860   5.486   2.401 -0.0058  0.3755  0.2049
   86SLPC    C1 8203   4.972   5.451   2.478 -0.5831 -0.1621 -0.0061
   86SLPC    HA 8204   5.024   5.365   2.430 -0.5218 -0.3886  0.4601
   86SLPC    HB 8205   5.047   5.530   2.495  2.8375 -3.1165 -0.2493
   86SLPC    C2 8206   4.922   5.390   2.614 -0.8129 -0.5129  0.1153
   86SLPC    HS 8207   4.873   5.475   2.666 -0.4075  0.6510 -1.3143
   86SLPC   O21 8208   5.039   5.327   2.672  0.2524 -0.2199 -0.2836
   86SLPC   C21 8209   5.062   5.340   2.804 -0.0816 -0.0605 -0.7140
   86SLPC   O22 8210   5.013   5.424   2.877 -0.4974 -0.1834 -0.2288
   86SLPC   C22 8211   5.172   5.252   2.844 -0.4587  0.9257  0.6155
   86SLPC   H2R 8212   5.143   5.146   2.827  2.7626  0.2030 -1.2966
   86SLPC   H2S 8213   5.252   5.273   2.770 -0.3404 -0.6425  0.2556
   86SLPC    C3 8214   4.815   5.282   2.604  0.0785  0.0924 -0.7465
   86SLPC    HX 8215   4.855   5.189   2.557 -1.6759 -1.5165  0.7674
   86SLPC    HY 8216   4.736   5.324   2.537  1.5747  0.1807 -2.5493
   86SLPC   O31 8217   4.769   5.239   2.737  0.4835 -0.1321  0.6197
   86SLPC   C31 8218   4.676   5.315   2.806  0.1902  0.6257 -0.2938
   86SLPC   O32 8219   4.599   5.391   2.747  0.3915 -0.4263  0.0890
   86SLPC   C32 8220   4.681   5.298   2.954  0.3018 -0.1553 -0.3116
   86SLPC   H2X 8221   4.788   5.283   2.981 -0.0746  1.0509  2.1564
   86SLPC   H2Y 8222   4.623   5.207   2.980  1.9740 -1.6022 -1.4232
   86SLPC   C23 8223   5.223   5.273   2.989 -0.5209 -0.4317  0.0037
   86SLPC   H3R 8224   5.232   5.384   2.998 -2.1747 -0.2191 -0.6525
   86SLPC   H3S 8225   5.328   5.237   3.001 -0.6957 -0.6980  0.7737
   86SLPC   C24 8226   5.129   5.216   3.092  0.6251  0.4167 -0.2893
   86SLPC   H4R 8227   5.132   5.105   3.083 -2.9917  0.1168  0.5042
   86SLPC   H4S 8228   5.023   5.243   3.071 -0.2756 -2.8253 -0.4845
   86SLPC   C25 8229   5.173   5.269   3.234 -0.2506  0.9672  0.4066
   86SLPC   H5R 8230   5.166   5.379   3.226  0.0274  0.8730 -2.0598
   86SLPC   H5S 8231   5.278   5.233   3.243 -0.6524  0.0436  1.7562
   86SLPC   C26 8232   5.087   5.207   3.347 -0.3843 -0.3710  0.6580
   86SLPC   H6R 8233   5.086   5.099   3.321  1.0353 -0.0324 -0.9629
   86SLPC   H6S 8234   4.983   5.245   3.340  0.2406  1.6687  1.6127
   86SLPC   C27 8235   5.154   5.231   3.484 -0.1786 -1.0490  0.3183
   86SLPC   H7R 8236   5.149   5.341   3.502  0.6740 -1.1852  1.4862
   86SLPC   H7S 8237   5.258   5.191   3.482  0.8616  1.4742 -0.9743
   86SLPC   C28 8238   5.082   5.170   3.602  0.3973  0.3763  0.0114
   86SLPC   H8R 8239   4.978   5.209   3.599 -0.3166 -1.2204  1.9262
   86SLPC   H8S 8240   5.127   5.215   3.693  1.1452 -2.2332  0.9909
   86SLPC   C29 8241   5.071   5.021   3.610  0.4578  0.5697 -0.3092
   86SLPC   H9R 8242   5.036   4.972   3.517  0.1913 -0.8964  0.5273
   86SLPC  C210 8243   5.098   4.937   3.713 -0.1632 -0.0632  0.1179
   86SLPC  H10R 8244   5.078   4.833   3.682  0.4751  0.7739 -3.5877
   86SLPC  C211 8245   5.122   4.977   3.854  0.8953 -0.5217 -0.2332
   86SLPC  H11R 8246   5.029   4.976   3.914  1.5454 -1.8603  0.8120
   86SLPC  H11S 8247   5.148   5.086   3.860  2.4259 -0.8905  0.7188
   86SLPC  C212 8248   5.227   4.896   3.920 -0.3987 -0.1142 -0.0150
   86SLPC  H12R 8249   5.313   4.879   3.854 -0.9098  1.3464 -1.1151
   86SLPC  C213 8250   5.218   4.844   4.045 -0.3904 -0.7462  0.0411
   86SLPC  H13R 8251   5.295   4.779   4.089 -0.0233 -0.3134  0.0425
   86SLPC  C214 8252   5.093   4.848   4.132 -0.0619  0.1922 -0.6090
   86SLPC  H14R 8253   5.041   4.943   4.105  1.8404  0.1844 -5.1337
   86SLPC  H14S 8254   5.129   4.853   4.238 -0.4894  1.6029 -0.4963
   86SLPC  C215 8255   5.011   4.716   4.124  0.2292  0.6840  0.7855
   86SLPC  H15R 8256   5.079   4.641   4.168  1.3044  0.9830 -0.3277
   86SLPC  H15S 8257   4.994   4.707   4.014  1.9458  3.0150  0.2592
   86SLPC  C216 8258   4.879   4.724   4.199  0.3151  0.0201 -0.0557
   86SLPC  H16R 8259   4.819   4.634   4.172  1.5535 -0.0943 -2.7861
   86SLPC  H16S 8260   4.823   4.812   4.161  2.5431  1.8075  0.5901
   86SLPC  C217 8261   4.899   4.743   4.352  0.0839 -0.5258 -0.0772
   86SLPC  H17R 8262   4.939   4.844   4.377 -0.8772 -0.2106  0.2294
   86SLPC  H17S 8263   4.976   4.668   4.380  0.4124 -0.0628  0.2744
   86SLPC  C218 8264   4.761   4.720   4.423  0.3628 -0.3111  0.1164
   86SLPC  H18R 8265   4.761   4.713   4.533 -1.5240  2.0137  0.3423
   86SLPC  H18S 8266   4.734   4.618   4.387 -0.8344 -0.1707  0.5867
   86SLPC  H18T 8267   4.683   4.786   4.380  0.8633  1.8840  2.4002
   86SLPC   C33 8268   4.624   5.415   3.045  0.0634 -0.5544 -0.2612
   86SLPC   H3X 8269   4.518   5.443   3.031  0.3019 -0.7490 -2.9746
   86SLPC   H3Y 8270   4.679   5.507   3.017 -1.9859  1.3902  1.7364
   86SLPC   C34 8271   4.643   5.382   3.194 -0.7955  0.5668  0.3901
   86SLPC   H4X 8272   4.745   5.344   3.216 -1.3454 -1.7754 -0.7924
   86SLPC   H4Y 8273   4.564   5.309   3.225 -0.4226  0.1016  0.2520
   86SLPC   C35 8274   4.603   5.508   3.279 -0.5321 -0.2312  0.9406
   86SLPC   H5X 8275   4.503   5.538   3.241 -1.2278 -1.0412  2.0924
   86SLPC   H5Y 8276   4.676   5.586   3.248 -1.3951 -0.4948 -2.0304
   86SLPC   C36 8277   4.607   5.479   3.426  0.0427 -0.0562  0.1126
   86SLPC   H6X 8278   4.552   5.385   3.449 -3.2889  1.8136  0.3538
   86SLPC   H6Y 8279   4.562   5.555   3.493  1.3666 -1.3174  2.6056
   86SLPC   C37 8280   4.745   5.450   3.481 -0.7335  0.3358  1.1744
   86SLPC   H7X 8281   4.796   5.546   3.456  1.0102 -1.1433 -1.4735
   86SLPC   H7Y 8282   4.801   5.375   3.421 -1.5312  1.2193 -0.7593
   86SLPC   C38 8283   4.755   5.418   3.628  1.0790  0.1561  0.5856
   86SLPC   H8X 8284   4.698   5.495   3.683 -1.5421 -0.9870 -0.3816
   86SLPC   H8Y 8285   4.862   5.420   3.659  1.0081 -2.1106  1.1454
   86SLPC   C39 8286   4.704   5.284   3.681 -0.4924 -0.3693 -0.0951
   86SLPC   H9X 8287   4.748   5.201   3.621 -0.8456  0.3714 -1.4079
   86SLPC   H9Y 8288   4.594   5.273   3.670 -0.7444 -0.0613  1.7775
   86SLPC  C310 8289   4.753   5.258   3.819 -0.4261 -0.5511 -0.1658
   86SLPC  H10X 8290   4.743   5.348   3.883 -0.6021 -0.7160  0.0427
   86SLPC  H10Y 8291   4.859   5.223   3.815 -0.2967 -0.0470 -1.5619
   86SLPC  C311 8292   4.689   5.141   3.899  0.3757 -0.1916  0.1803
   86SLPC  H11X 8293   4.688   5.045   3.843 -0.6910 -0.6806  0.9782
   86SLPC  H11Y 8294   4.590   5.185   3.924  2.0898  3.0547  1.9279
   86SLPC  C312 8295   4.767   5.126   4.029  0.0951  0.7273  0.0305
   86SLPC  H12X 8296   4.814   5.221   4.061 -3.3150  2.4457  0.4120
   86SLPC  H12Y 8297   4.848   5.058   3.997 -0.6704  0.7415 -2.1178
   86SLPC  C313 8298   4.679   5.082   4.141  0.2458  0.7450 -0.1157
   86SLPC  H13X 8299   4.742   5.053   4.227  0.6525  0.7923 -0.3978
   86SLPC  H13Y 8300   4.613   5.001   4.104  2.5323 -0.8454 -0.8823
   86SLPC  C314 8301   4.581   5.188   4.203  0.4298 -1.2779 -0.4725
   86SLPC  H14X 8302   4.484   5.189   4.150  0.8594  0.2896 -1.3280
   86SLPC  H14Y 8303   4.630   5.288   4.198 -1.3680 -0.3046  0.4633
   86SLPC  C315 8304   4.549   5.163   4.351  0.3880 -0.1186 -0.6083
   86SLPC  H15X 8305   4.475   5.238   4.387  0.2052 -1.0939  1.2036
   86SLPC  H15Y 8306   4.646   5.170   4.405  0.8524 -0.0709 -1.4397
   86SLPC  C316 8307   4.491   5.025   4.391 -0.1996 -0.2410  0.1862
   86SLPC  H16X 8308   4.559   4.950   4.344 -0.9044  0.2250 -1.6744
   86SLPC  H16Y 8309   4.388   5.013   4.349  0.7145  0.3477 -2.3808
   86SLPC  C317 8310   4.492   5.000   4.541  0.4662 -0.2465  0.2956
   86SLPC  H17X 8311   4.582   5.041   4.592 -0.9600  0.7317  2.1468
   86SLPC  H17Y 8312   4.493   4.890   4.558  0.3422 -0.4790 -1.1000
   86SLPC  C318 8313   4.369   5.062   4.611  0.3273 -0.3836  0.5757
   86SLPC  H18X 8314   4.382   5.049   4.721  0.0558 -0.6757  0.5756
   86SLPC  H18Y 8315   4.274   5.013   4.579 -0.8475  1.8864  0.3917
   86SLPC  H18Z 8316   4.370   5.170   4.585  0.4252 -0.4931  0.1284
   87SLPC     N 8317   4.457   4.523   2.011 -0.2653 -0.2979 -0.1321
   87SLPC   C13 8318   4.414   4.617   1.902 -0.0106 -0.9514  0.0247
   87SLPC  H13A 8319   4.337   4.569   1.843 -1.9813 -1.4560  2.7906
   87SLPC  H13B 8320   4.352   4.690   1.953  0.2619 -1.1838  0.7050
   87SLPC  H13C 8321   4.491   4.674   1.852  0.0737 -0.5716  0.5756
   87SLPC   C14 8322   4.569   4.432   1.970 -0.6040  0.1634  0.4991
   87SLPC  H14A 8323   4.592   4.368   2.054  1.9862  1.2745  0.7225
   87SLPC  H14B 8324   4.531   4.370   1.891  1.2621 -0.8523  0.3325
   87SLPC  H14C 8325   4.655   4.491   1.939 -2.9967  2.4177 -2.4637
   87SLPC   C15 8326   4.344   4.428   2.037  0.0023  0.2005 -0.4025
   87SLPC  H15A 8327   4.257   4.484   2.068 -1.2171 -1.1998 -1.1965
   87SLPC  H15B 8328   4.312   4.368   1.953  3.0709 -1.2114 -0.7037
   87SLPC  H15C 8329   4.376   4.363   2.118 -0.4272 -0.9584 -1.1440
   87SLPC   C12 8330   4.507   4.597   2.137  0.2541 -0.3595 -0.1344
   87SLPC  H12A 8331   4.458   4.692   2.148  0.9004 -0.1938  1.7805
   87SLPC  H12B 8332   4.610   4.625   2.120  0.2491  1.4442  2.3073
   87SLPC   C11 8333   4.496   4.512   2.265  0.9721  0.0995  0.5119
   87SLPC  H11A 8334   4.396   4.476   2.296  0.2343  2.3900  0.9460
   87SLPC  H11B 8335   4.522   4.583   2.347 -1.3852 -0.8988  2.2454
   87SLPC     P 8336   4.565   4.263   2.315 -0.1905 -0.1982  0.0157
   87SLPC   O13 8337   4.474   4.190   2.220  0.2611  0.2883 -0.8987
   87SLPC   O14 8338   4.700   4.203   2.336 -0.2807 -0.2562  0.1151
   87SLPC   O12 8339   4.594   4.403   2.254  0.5934 -0.6616 -0.1897
   87SLPC   O11 8340   4.495   4.299   2.453 -0.0871  0.0160 -0.2371
   87SLPC    C1 8341   4.570   4.373   2.555  0.3300  0.1926  0.2857
   87SLPC    HA 8342   4.639   4.452   2.518 -0.9232  0.9324 -0.5448
   87SLPC    HB 8343   4.502   4.444   2.607  2.2754  2.2144  0.1747
   87SLPC    C2 8344   4.652   4.283   2.648 -0.9471  0.0958 -0.2169
   87SLPC    HS 8345   4.725   4.224   2.588 -1.2255 -2.2887  1.6371
   87SLPC   O21 8346   4.561   4.204   2.732  0.1984  0.1190  0.3827
   87SLPC   C21 8347   4.512   4.095   2.681  0.3486 -0.6468 -0.4947
   87SLPC   O22 8348   4.559   4.044   2.578  0.0378 -0.1793 -0.1733
   87SLPC   C22 8349   4.398   4.043   2.760  0.6824  0.1912 -0.3210
   87SLPC   H2R 8350   4.302   4.051   2.704  0.7388  2.0701 -0.2169
   87SLPC   H2S 8351   4.414   3.935   2.780 -0.4111 -0.1700 -1.2928
   87SLPC    C3 8352   4.750   4.377   2.735  0.2844 -0.0087  0.5633
   87SLPC    HX 8353   4.691   4.455   2.789  1.6139  1.3988  0.0471
   87SLPC    HY 8354   4.830   4.423   2.673  0.3318 -2.7683 -1.5714
   87SLPC   O31 8355   4.816   4.292   2.828  0.0112 -0.0853 -0.2362
   87SLPC   C31 8356   4.906   4.213   2.790 -0.4841  0.5668  0.3085
   87SLPC   O32 8357   4.958   4.222   2.676 -0.1124  0.2598  0.3647
   87SLPC   C32 8358   4.937   4.104   2.892 -0.3642 -0.4064  0.6815
   87SLPC   H2X 8359   4.935   4.158   2.989 -1.7643 -1.4576  1.2617
   87SLPC   H2Y 8360   5.042   4.074   2.873 -0.9349 -2.3237  0.3435
   87SLPC   C23 8361   4.387   4.125   2.890  0.3068 -0.2816 -0.4842
   87SLPC   H3R 8362   4.363   4.233   2.879  0.3905 -0.2841 -0.6891
   87SLPC   H3S 8363   4.482   4.123   2.948 -0.0084  0.6264  0.0731
   87SLPC   C24 8364   4.279   4.077   2.989  0.4488 -0.1183 -1.0427
   87SLPC   H4R 8365   4.307   4.127   3.084  3.3731 -1.2631 -1.1880
   87SLPC   H4S 8366   4.292   3.967   2.999  0.0008 -0.2419 -1.7764
   87SLPC   C25 8367   4.146   4.139   2.950  0.2433 -0.5615 -0.3431
   87SLPC   H5R 8368   4.126   4.113   2.843  0.9935  1.2522 -0.9687
   87SLPC   H5S 8369   4.147   4.250   2.944 -2.0473 -0.3171  1.9202
   87SLPC   C26 8370   4.015   4.096   3.022 -0.6531 -0.4067 -0.3955
   87SLPC   H6R 8371   3.997   3.988   3.003 -0.1588 -0.2069 -2.0819
   87SLPC   H6S 8372   3.944   4.162   2.968  0.4872  0.8169 -0.4247
   87SLPC   C27 8373   4.020   4.133   3.173 -0.2832  0.4191  0.0730
   87SLPC   H7R 8374   4.028   4.243   3.185 -3.1274  0.6270  0.8051
   87SLPC   H7S 8375   4.107   4.079   3.215 -0.8367 -0.5709 -0.0279
   87SLPC   C28 8376   3.897   4.084   3.254  0.9756 -0.3617  0.1030
   87SLPC   H8R 8377   3.888   3.973   3.253 -2.5974 -0.2027  0.2604
   87SLPC   H8S 8378   3.803   4.121   3.207  1.8569 -1.0483 -2.3174
   87SLPC   C29 8379   3.880   4.140   3.388 -0.7762 -0.6102  0.3654
   87SLPC   H9R 8380   3.793   4.207   3.378 -0.7294 -0.8948 -3.1841
   87SLPC  C210 8381   3.948   4.132   3.506  0.5351  0.5470  0.1872
   87SLPC  H10R 8382   3.900   4.192   3.585  0.1641  1.8665 -0.9887
   87SLPC  C211 8383   4.074   4.054   3.537 -0.5697  0.3497 -0.0783
   87SLPC  H11R 8384   4.103   3.973   3.466  3.7546  1.6161 -0.0397
   87SLPC  H11S 8385   4.079   4.005   3.637  1.9361  1.7727  0.5910
   87SLPC  C212 8386   4.181   4.159   3.531 -0.6553 -0.0963 -0.0627
   87SLPC  H12R 8387   4.148   4.256   3.494  2.1338  0.8629 -0.2435
   87SLPC  C213 8388   4.306   4.140   3.583  0.7890  0.4996  1.1381
   87SLPC  H13R 8389   4.375   4.226   3.586  0.4360  0.7608  2.0498
   87SLPC  C214 8390   4.373   4.015   3.637 -0.3407  0.6284 -0.5014
   87SLPC  H14R 8391   4.472   4.005   3.589  0.2992 -0.6897  0.9820
   87SLPC  H14S 8392   4.312   3.925   3.614  0.1050 -0.1112  1.0847
   87SLPC  C215 8393   4.399   4.031   3.788 -0.2406 -0.5944  0.8975
   87SLPC  H15R 8394   4.313   4.089   3.826  0.8692  2.1185 -0.4467
   87SLPC  H15S 8395   4.481   4.106   3.794  1.0840 -1.9803  0.5983
   87SLPC  C216 8396   4.443   3.898   3.838 -0.0580 -0.0169 -0.8212
   87SLPC  H16R 8397   4.530   3.865   3.777  0.6434  2.3685 -1.2456
   87SLPC  H16S 8398   4.360   3.826   3.825 -1.8438  1.9872 -1.2391
   87SLPC  C217 8399   4.500   3.891   3.982 -0.1894  0.1391 -1.1616
   87SLPC  H17R 8400   4.539   3.789   4.001 -1.0240  0.2122  1.3658
   87SLPC  H17S 8401   4.423   3.910   4.060  2.1754  0.4368  1.2559
   87SLPC  C218 8402   4.616   3.985   4.020  0.0615  0.5749 -0.3190
   87SLPC  H18R 8403   4.680   3.925   4.089 -0.9280 -1.0650 -0.7845
   87SLPC  H18S 8404   4.580   4.077   4.071  1.3937  0.4938  0.8398
   87SLPC  H18T 8405   4.672   4.021   3.931 -2.0154 -0.8282 -2.3270
   87SLPC   C33 8406   4.831   3.995   2.888 -0.6195  0.5717  0.2656
   87SLPC   H3X 8407   4.812   3.948   2.790  3.2620  2.8540 -1.8501
   87SLPC   H3Y 8408   4.736   4.043   2.919 -0.0431  1.6387  0.4506
   87SLPC   C34 8409   4.866   3.879   2.992 -0.4806 -0.1006  1.5930
   87SLPC   H4X 8410   4.969   3.847   2.964 -0.3738  1.1038  0.5132
   87SLPC   H4Y 8411   4.803   3.789   2.977 -0.0982 -0.0711 -0.5647
   87SLPC   C35 8412   4.871   3.916   3.137  0.1950 -0.3303  0.2411
   87SLPC   H5X 8413   4.786   3.969   3.184  1.4850  1.0969  1.0786
   87SLPC   H5Y 8414   4.949   3.993   3.160  1.1928 -0.9639 -0.9204
   87SLPC   C36 8415   4.905   3.789   3.230  0.0444  0.1877  0.8286
   87SLPC   H6X 8416   4.994   3.739   3.184  0.0087  0.0118  0.9502
   87SLPC   H6Y 8417   4.815   3.727   3.211 -0.4583  1.2491 -0.4466
   87SLPC   C37 8418   4.922   3.812   3.370 -0.5338  0.5275  0.4315
   87SLPC   H7X 8419   4.899   3.919   3.390 -1.0817  0.3361  0.8522
   87SLPC   H7Y 8420   5.026   3.781   3.396 -0.8912 -1.3202 -0.1957
   87SLPC   C38 8421   4.825   3.736   3.462 -0.1776  0.0705  0.2699
   87SLPC   H8X 8422   4.836   3.632   3.425 -1.1444 -0.5130  1.5283
   87SLPC   H8Y 8423   4.720   3.772   3.450 -0.5914 -0.3135  2.2944
   87SLPC   C39 8424   4.859   3.759   3.613  0.3716  0.0132 -0.2194
   87SLPC   H9X 8425   4.967   3.749   3.638 -0.0132 -2.0103  0.8638
   87SLPC   H9Y 8426   4.801   3.678   3.662  1.3157  1.2890  3.2912
   87SLPC  C310 8427   4.797   3.880   3.683 -0.2633 -0.6339  0.2878
   87SLPC  H10X 8428   4.754   3.848   3.780  1.4188 -3.5999  0.1761
   87SLPC  H10Y 8429   4.711   3.911   3.621  0.4588  1.8129  0.4269
   87SLPC  C311 8430   4.900   3.996   3.695 -0.0994 -0.8748 -0.2819
   87SLPC  H11X 8431   4.947   4.014   3.596 -0.9859  1.1025 -0.3764
   87SLPC  H11Y 8432   4.985   3.961   3.757  0.6945  0.2493 -0.6993
   87SLPC  C312 8433   4.853   4.127   3.752 -0.5360 -0.8302 -0.2577
   87SLPC  H12X 8434   4.930   4.206   3.755 -1.0934 -0.2908  0.0614
   87SLPC  H12Y 8435   4.825   4.120   3.859 -1.8686  0.6716 -0.4652
   87SLPC  C313 8436   4.730   4.191   3.683 -0.8603  0.6761  0.2511
   87SLPC  H13X 8437   4.675   4.226   3.773  0.4674  2.0445  0.5657
   87SLPC  H13Y 8438   4.666   4.122   3.624  0.2677 -0.2331  0.0730
   87SLPC  C314 8439   4.760   4.305   3.583 -0.3610  0.1333  0.1008
   87SLPC  H14X 8440   4.856   4.275   3.537 -0.3223 -0.3430  0.4828
   87SLPC  H14Y 8441   4.754   4.403   3.637 -1.4056 -0.2484  0.7145
   87SLPC  C315 8442   4.651   4.319   3.473 -0.4091  0.3437 -0.3461
   87SLPC  H15X 8443   4.638   4.422   3.433  0.1499 -0.0694 -1.6620
   87SLPC  H15Y 8444   4.557   4.289   3.525 -1.5517  2.0309 -1.3273
   87SLPC  C316 8445   4.676   4.228   3.346 -0.2386  0.3720 -0.3202
   87SLPC  H16X 8446   4.692   4.125   3.383  0.2133  0.4748 -0.2171
   87SLPC  H16Y 8447   4.774   4.264   3.307  0.2829 -1.7929 -1.1367
   87SLPC  C317 8448   4.582   4.235   3.232  0.7620  0.5903  0.4290
   87SLPC  H17X 8449   4.477   4.233   3.269  0.3582  2.9837 -0.3827
   87SLPC  H17Y 8450   4.599   4.143   3.172 -1.3400  0.1075  0.4857
   87SLPC  C318 8451   4.602   4.361   3.154 -0.3538  0.0108 -0.1676
   87SLPC  H18X 8452   4.546   4.352   3.059 -1.1788  1.6487  0.1284
   87SLPC  H18Y 8453   4.710   4.359   3.126  0.0685  0.4171  1.3247
   87SLPC  H18Z 8454   4.575   4.449   3.217 -0.3034  0.4660 -0.7786
   88SLPC     N 8455   5.520   1.614   1.780 -0.3263 -0.2849 -0.0929
   88SLPC   C13 8456   5.574   1.739   1.718 -0.5150 -0.2154 -0.1921
   88SLPC  H13A 8457   5.528   1.752   1.621  0.0609 -2.8598 -0.8899
   88SLPC  H13B 8458   5.572   1.823   1.786  1.2598  0.5366 -0.9977
   88SLPC  H13C 8459   5.680   1.722   1.704 -0.4218  1.8726 -2.9635
   88SLPC   C14 8460   5.559   1.501   1.695  0.3118  0.2374 -0.2047
   88SLPC  H14A 8461   5.542   1.536   1.595 -1.1697  0.7699  0.2102
   88SLPC  H14B 8462   5.665   1.480   1.692  0.7246  1.8660  1.1132
   88SLPC  H14C 8463   5.518   1.404   1.719 -1.8796  0.9546 -0.7774
   88SLPC   C15 8464   5.371   1.625   1.776 -0.2900 -0.7064 -0.4197
   88SLPC  H15A 8465   5.328   1.535   1.816 -0.7441  0.0969  0.9491
   88SLPC  H15B 8466   5.349   1.704   1.847  0.2455 -0.0053 -1.0111
   88SLPC  H15C 8467   5.336   1.650   1.677 -1.3940  0.1830  0.1702
   88SLPC   C12 8468   5.568   1.589   1.923 -0.0215 -0.4310  0.0432
   88SLPC  H12A 8469   5.539   1.670   1.988  3.0737  0.8807 -0.0273
   88SLPC  H12B 8470   5.676   1.596   1.920 -0.0230  2.3792  2.3668
   88SLPC   C11 8471   5.522   1.457   1.998  0.3081  0.1871  0.3880
   88SLPC  H11A 8472   5.590   1.422   2.078 -2.4069 -0.3547  2.6355
   88SLPC  H11B 8473   5.517   1.378   1.920 -2.5277  0.2282  0.3929
   88SLPC     P 8474   5.346   1.560   2.175  0.0887 -0.1865  0.0634
   88SLPC   O13 8475   5.342   1.702   2.133 -0.1335  0.1224  0.5306
   88SLPC   O14 8476   5.219   1.495   2.217  0.3076 -0.0013 -0.3754
   88SLPC   O12 8477   5.388   1.470   2.048  0.7881 -0.5632 -0.2686
   88SLPC   O11 8478   5.462   1.541   2.272 -0.9009  0.4277  0.0588
   88SLPC    C1 8479   5.451   1.483   2.408  0.7517 -0.1923 -0.8012
   88SLPC    HA 8480   5.486   1.554   2.486 -0.6807 -0.0197 -0.2853
   88SLPC    HB 8481   5.344   1.467   2.433  0.9201 -0.7095 -0.3915
   88SLPC    C2 8482   5.520   1.343   2.417 -0.0126  0.1724  0.3009
   88SLPC    HS 8483   5.499   1.284   2.325  1.1107  2.2906 -1.4251
   88SLPC   O21 8484   5.477   1.279   2.537 -0.0405  0.2557 -0.1401
   88SLPC   C21 8485   5.496   1.155   2.553  0.1575  0.1572  0.7289
   88SLPC   O22 8486   5.543   1.082   2.465 -0.2680  0.4330  0.7872
   88SLPC   C22 8487   5.434   1.093   2.674  0.0973  0.2242  0.6648
   88SLPC   H2R 8488   5.449   1.160   2.761  1.0603 -0.7241  1.2398
   88SLPC   H2S 8489   5.325   1.087   2.653  0.3365  0.2743 -0.6688
   88SLPC    C3 8490   5.673   1.363   2.414  0.1640 -0.1484 -0.1761
   88SLPC    HX 8491   5.709   1.397   2.315  0.8705  0.9233  0.4247
   88SLPC    HY 8492   5.720   1.263   2.428  1.7602  0.4024 -1.3367
   88SLPC   O31 8493   5.717   1.461   2.513  0.2135 -0.3857 -0.1723
   88SLPC   C31 8494   5.760   1.407   2.633  0.5049 -0.0615  0.6225
   88SLPC   O32 8495   5.763   1.287   2.653 -0.2122 -0.0221 -0.2678
   88SLPC   C32 8496   5.784   1.512   2.741  0.5604  0.3229 -0.1370
   88SLPC   H2X 8497   5.794   1.615   2.703  0.5658  0.2447 -0.3497
   88SLPC   H2Y 8498   5.885   1.496   2.784  0.6766 -0.8534 -0.7991
   88SLPC   C23 8499   5.496   0.958   2.708  0.9310 -0.1632  0.0670
   88SLPC   H3R 8500   5.602   0.965   2.674  1.0724 -0.9180  0.3204
   88SLPC   H3S 8501   5.460   0.875   2.643  0.6583 -0.1320  0.1803
   88SLPC   C24 8502   5.458   0.923   2.857 -0.1168 -0.0796  0.4052
   88SLPC   H4R 8503   5.463   0.813   2.870 -2.4315 -0.3237 -0.1734
   88SLPC   H4S 8504   5.353   0.953   2.881 -0.6250 -2.7677  1.9601
   88SLPC   C25 8505   5.547   0.993   2.965  0.1575 -0.2321  0.6723
   88SLPC   H5R 8506   5.528   1.101   2.983  0.9715 -0.1024  0.8159
   88SLPC   H5S 8507   5.653   0.988   2.931  1.3946  1.8482  3.7542
   88SLPC   C26 8508   5.522   0.922   3.102  0.5135  0.0462 -0.0590
   88SLPC   H6R 8509   5.414   0.933   3.124  0.3563 -0.5882 -0.5130
   88SLPC   H6S 8510   5.573   0.979   3.183 -1.3637 -0.6812  1.7044
   88SLPC   C27 8511   5.584   0.780   3.111 -0.7798  0.9095  0.0723
   88SLPC   H7R 8512   5.692   0.791   3.091 -0.7045 -0.5543 -0.3905
   88SLPC   H7S 8513   5.535   0.707   3.044 -1.7498  1.6351 -0.0299
   88SLPC   C28 8514   5.564   0.715   3.255 -0.0707 -0.2919  0.7292
   88SLPC   H8R 8515   5.611   0.779   3.332 -1.7304 -0.8187  2.2458
   88SLPC   H8S 8516   5.608   0.614   3.242 -0.7352 -0.4536 -0.4087
   88SLPC   C29 8517   5.422   0.696   3.301  0.3811 -0.0617 -0.0055
   88SLPC   H9R 8518   5.354   0.700   3.214  1.7912  1.5646 -1.1178
   88SLPC  C210 8519   5.378   0.675   3.425  0.1237  0.0133 -0.8198
   88SLPC  H10R 8520   5.271   0.667   3.450  0.5672 -0.2992  1.1700
   88SLPC  C211 8521   5.465   0.650   3.543 -0.6941 -0.3777 -0.2654
   88SLPC  H11R 8522   5.556   0.595   3.512 -0.3825 -1.4947  2.3215
   88SLPC  H11S 8523   5.415   0.577   3.611  0.4881  0.0456  1.1120
   88SLPC  C212 8524   5.517   0.762   3.625  0.4511  0.3490  1.0561
   88SLPC  H12R 8525   5.535   0.852   3.564 -2.3795 -0.1438 -0.7551
   88SLPC  C213 8526   5.535   0.774   3.757 -0.4028 -0.0225 -0.5098
   88SLPC  H13R 8527   5.574   0.871   3.791 -0.0262  0.0694 -1.1911
   88SLPC  C214 8528   5.505   0.685   3.879 -0.1969 -0.5973 -0.1281
   88SLPC  H14R 8529   5.588   0.612   3.891 -1.9980 -3.2270 -2.4456
   88SLPC  H14S 8530   5.420   0.617   3.860  1.6116 -3.6965  1.9981
   88SLPC  C215 8531   5.482   0.757   4.018  0.9415  0.3587  0.3965
   88SLPC  H15R 8532   5.433   0.680   4.082  1.7996 -1.8458 -1.4966
   88SLPC  H15S 8533   5.407   0.839   4.007  0.5291 -0.0091  0.4126
   88SLPC  C216 8534   5.612   0.798   4.091  0.4436 -0.2289  0.5247
   88SLPC  H16R 8535   5.683   0.714   4.076  0.6462  0.0270  0.0638
   88SLPC  H16S 8536   5.595   0.810   4.200 -0.6037 -2.3653  0.6510
   88SLPC  C217 8537   5.680   0.924   4.054  0.9196  0.5206 -0.1858
   88SLPC  H17R 8538   5.728   0.922   3.955  3.3195  0.0667  0.9310
   88SLPC  H17S 8539   5.762   0.934   4.128  1.3267  1.6004 -0.7656
   88SLPC  C218 8540   5.596   1.048   4.077  0.4002 -0.1827  0.2238
   88SLPC  H18R 8541   5.629   1.129   4.009  0.2903  0.1113  0.5184
   88SLPC  H18S 8542   5.612   1.091   4.178 -0.8962  2.6506 -0.6618
   88SLPC  H18T 8543   5.490   1.016   4.069  0.4835 -0.0770 -1.6671
   88SLPC   C33 8544   5.675   1.508   2.855  0.4598  0.4264 -0.2962
   88SLPC   H3X 8545   5.570   1.509   2.819 -0.4153 -2.0626  1.8647
   88SLPC   H3Y 8546   5.690   1.594   2.922  0.8568  0.9401 -1.0338
   88SLPC   C34 8547   5.691   1.381   2.940 -0.1932  0.6572  0.7747
   88SLPC   H4X 8548   5.796   1.346   2.933 -0.3862  0.2067 -0.0476
   88SLPC   H4Y 8549   5.630   1.299   2.897  1.0653 -0.7692  1.6368
   88SLPC   C35 8550   5.672   1.391   3.092 -0.2812 -0.2612 -0.1813
   88SLPC   H5X 8551   5.563   1.385   3.111  0.0532 -0.3256  1.9144
   88SLPC   H5Y 8552   5.709   1.489   3.130 -1.0471  0.2691 -0.7579
   88SLPC   C36 8553   5.746   1.273   3.169  0.3384 -0.3339 -0.0693
   88SLPC   H6X 8554   5.852   1.271   3.138  0.3299 -1.7898 -0.0685
   88SLPC   H6Y 8555   5.696   1.178   3.140 -0.4653 -0.6906  2.2520
   88SLPC   C37 8556   5.743   1.299   3.319 -0.4903  0.1359 -0.6537
   88SLPC   H7X 8557   5.808   1.388   3.329  2.4943 -2.1513  4.2219
   88SLPC   H7Y 8558   5.796   1.214   3.366  0.8931  0.7135 -1.1410
   88SLPC   C38 8559   5.604   1.303   3.387 -0.4274 -0.4181 -0.2411
   88SLPC   H8X 8560   5.543   1.234   3.324 -0.4358  0.3727 -1.1178
   88SLPC   H8Y 8561   5.557   1.403   3.383 -0.7329 -0.5389  0.2492
   88SLPC   C39 8562   5.608   1.260   3.533 -0.1724  0.5411 -0.3170
   88SLPC   H9X 8563   5.651   1.159   3.547 -0.0515  0.5753 -0.4356
   88SLPC   H9Y 8564   5.505   1.260   3.574 -0.8910  0.5482 -2.0074
   88SLPC  C310 8565   5.676   1.369   3.624  0.2849  0.4111  0.1410
   88SLPC  H10X 8566   5.609   1.457   3.611 -0.2648 -0.2175 -1.6602
   88SLPC  H10Y 8567   5.781   1.394   3.596  0.5597  0.0147  0.8083
   88SLPC  C311 8568   5.691   1.328   3.779  0.0681 -0.0086 -0.1692
   88SLPC  H11X 8569   5.742   1.229   3.785  0.2981  0.1625  0.8542
   88SLPC  H11Y 8570   5.586   1.324   3.817  0.2762 -0.2666  0.3804
   88SLPC  C312 8571   5.768   1.431   3.867 -0.1114 -0.8714 -0.5143
   88SLPC  H12X 8572   5.715   1.528   3.857  0.9202 -0.4046 -1.9237
   88SLPC  H12Y 8573   5.861   1.460   3.813  0.3097  0.4522  0.8482
   88SLPC  C313 8574   5.817   1.390   4.004 -0.4652  1.0432 -0.4888
   88SLPC  H13X 8575   5.901   1.457   4.030 -0.5460  1.0618 -0.2779
   88SLPC  H13Y 8576   5.852   1.285   4.009 -0.3014  1.1547  2.8552
   88SLPC  C314 8577   5.702   1.385   4.110  0.0678  0.2061 -0.4936
   88SLPC  H14X 8578   5.731   1.330   4.202 -0.2813 -0.2938 -0.6754
   88SLPC  H14Y 8579   5.605   1.335   4.088 -0.5653  0.0868  2.2739
   88SLPC  C315 8580   5.679   1.533   4.153 -0.4029  0.4125 -0.1245
   88SLPC  H15X 8581   5.652   1.595   4.065  0.5696 -0.4368 -1.0398
   88SLPC  H15Y 8582   5.776   1.575   4.187 -0.2359  0.1795 -0.3127
   88SLPC  C316 8583   5.590   1.544   4.275  0.1850  0.4643 -0.0892
   88SLPC  H16X 8584   5.610   1.451   4.332 -2.7442 -0.3610 -0.2292
   88SLPC  H16Y 8585   5.481   1.531   4.254  0.1052  1.1643 -0.1282
   88SLPC  C317 8586   5.595   1.673   4.362  0.8214 -0.0575  0.1975
   88SLPC  H17X 8587   5.694   1.669   4.411  1.8342 -2.4915 -1.8215
   88SLPC  H17Y 8588   5.512   1.670   4.436 -0.5018  2.8625 -0.9866
   88SLPC  C318 8589   5.569   1.807   4.285 -0.0069  0.8834 -0.0580
   88SLPC  H18X 8590   5.461   1.802   4.262 -0.2479 -1.7231  1.2079
   88SLPC  H18Y 8591   5.646   1.808   4.205  1.2007  0.2919  1.0558
   88SLPC  H18Z 8592   5.586   1.896   4.350  2.2164  0.7923 -0.4269
   89SAPE     N 8593   1.639   3.645   6.442  0.1630 -0.2246 -0.1299
   89SAPE   HN1 8594   1.731   3.622   6.400  0.6381  0.3135  0.5953
   89SAPE   HN2 8595   1.600   3.563   6.493 -0.2573  0.5992  0.9284
   89SAPE   HN3 8596   1.568   3.669   6.370  0.9334 -1.4355 -1.3326
   89SAPE   C12 8597   1.666   3.772   6.528  0.3706 -0.6172 -0.1439
   89SAPE  H12A 8598   1.570   3.824   6.549  1.7421  1.2414  2.0036
   89SAPE  H12B 8599   1.733   3.836   6.465  0.3185  0.1389  0.5528
   89SAPE   C11 8600   1.730   3.743   6.664 -0.3112  0.2785 -0.1542
   89SAPE  H11A 8601   1.742   3.839   6.718  1.0037  0.2666 -0.3915
   89SAPE  H11B 8602   1.831   3.700   6.647 -1.4070 -1.3523 -3.6835
   89SAPE     P 8603   1.672   3.504   6.766  0.2925 -0.3622 -0.5760
   89SAPE   O13 8604   1.815   3.478   6.747  0.7720  0.0256 -0.2410
   89SAPE   O14 8605   1.608   3.471   6.896 -0.3859 -0.4170 -0.0339
   89SAPE   O12 8606   1.647   3.657   6.745  0.1221 -0.3471 -0.7161
   89SAPE   O11 8607   1.608   3.440   6.639 -0.2752 -0.7184 -0.2304
   89SAPE    C1 8608   1.577   3.306   6.623  0.4445  0.2573  0.2366
   89SAPE    HA 8609   1.674   3.250   6.624  0.3965  0.1756  1.4261
   89SAPE    HB 8610   1.515   3.263   6.704 -1.6084  0.5496 -1.1194
   89SAPE    C2 8611   1.506   3.287   6.486 -0.6706  0.1258  0.2671
   89SAPE    HS 8612   1.462   3.185   6.474  0.4578 -0.2209 -1.3262
   89SAPE   O21 8613   1.613   3.308   6.387  0.2205 -0.6451 -0.1447
   89SAPE   C21 8614   1.684   3.197   6.355 -0.3172  0.2577 -0.4388
   89SAPE   O22 8615   1.671   3.086   6.397  0.1957  0.6836  0.2307
   89SAPE   C22 8616   1.800   3.239   6.268 -0.2651  0.2874 -0.3907
   89SAPE   H2R 8617   1.755   3.309   6.193 -0.7386  3.4174  2.5604
   89SAPE   H2S 8618   1.870   3.302   6.327  0.9747  0.7140 -2.1996
   89SAPE    C3 8619   1.379   3.388   6.472  0.5898 -0.4124 -0.0115
   89SAPE    HX 8620   1.407   3.495   6.484  0.2617 -0.4081  0.7825
   89SAPE    HY 8621   1.312   3.372   6.559  0.5378  0.9036  0.2193
   89SAPE   O31 8622   1.300   3.358   6.353  0.1526  0.2006 -0.1140
   89SAPE   C31 8623   1.338   3.432   6.247  1.0104  0.8546  0.1496
   89SAPE   O32 8624   1.427   3.510   6.244 -0.1252  0.2842  0.5003
   89SAPE   C32 8625   1.223   3.413   6.141  0.4289 -0.0006 -0.2606
   89SAPE   H2X 8626   1.139   3.477   6.176  0.2233  0.1057 -0.9248
   89SAPE   H2Y 8627   1.190   3.308   6.129 -2.6549  0.9989 -1.4857
   89SAPE   C23 8628   1.872   3.116   6.202 -0.1520 -0.5701  0.7064
   89SAPE   H3R 8629   1.919   3.055   6.282 -0.5031 -1.0518  0.5530
   89SAPE   H3S 8630   1.957   3.161   6.147 -1.8716  2.0758  0.0725
   89SAPE   C24 8631   1.783   3.028   6.109 -0.9204 -0.0309 -0.3552
   89SAPE   H4R 8632   1.689   3.000   6.162 -0.6110  0.3492  0.4156
   89SAPE   H4S 8633   1.840   2.935   6.087  1.1949  0.4959  2.4133
   89SAPE   C25 8634   1.735   3.079   5.973  0.2722  0.1111 -0.0629
   89SAPE   H5R 8635   1.628   3.106   5.970  0.0708 -0.3772  1.7689
   89SAPE   C26 8636   1.816   3.079   5.866 -0.5566  0.0863 -0.0130
   89SAPE   H6R 8637   1.778   3.114   5.769 -1.9450  1.0571  0.8405
   89SAPE   C27 8638   1.960   3.038   5.858  0.9366 -0.5577 -0.5892
   89SAPE   H7R 8639   2.002   3.026   5.960  0.0754 -1.6293 -0.3438
   89SAPE   H7S 8640   2.017   3.129   5.829  0.6379  0.3180  1.3928
   89SAPE   C28 8641   1.989   2.925   5.773 -0.9868  0.2434 -0.4803
   89SAPE   H8R 8642   1.976   2.836   5.837 -1.9993  1.8465  1.6492
   89SAPE   C29 8643   2.022   2.926   5.648  0.0442 -0.0868  0.3599
   89SAPE   H9R 8644   2.050   2.834   5.594 -0.0414  1.7278 -3.0956
   89SAPE  C210 8645   2.037   3.052   5.575 -0.4500  0.2177  0.5966
   89SAPE  H10R 8646   1.984   3.143   5.610  0.3608  1.4956 -1.3171
   89SAPE  H10S 8647   2.003   3.040   5.470 -0.7379  0.2178  0.6897
   89SAPE  C211 8648   2.190   3.068   5.564  0.5316 -0.4967  0.8916
   89SAPE  H11R 8649   2.239   3.110   5.654  1.4968 -1.8946  1.0436
   89SAPE  C212 8650   2.264   3.055   5.451  0.0652  0.5810  0.4583
   89SAPE  H12R 8651   2.372   3.072   5.459  0.3421 -0.5504 -0.5301
   89SAPE  C213 8652   2.231   2.997   5.320  0.2927  0.9789 -1.1719
   89SAPE  H13R 8653   2.164   2.909   5.334 -0.1990  1.3261 -1.3494
   89SAPE  H13S 8654   2.325   2.954   5.278  0.5189 -2.4069  2.2117
   89SAPE  C214 8655   2.162   3.097   5.233  1.0951  0.8024  0.3212
   89SAPE  H14R 8656   2.125   3.176   5.300 -0.4628  0.3403  0.0383
   89SAPE  C215 8657   2.144   3.105   5.101 -0.4341 -0.1403  0.1883
   89SAPE  H15R 8658   2.102   3.193   5.050  0.9737  0.2135 -0.4016
   89SAPE  C216 8659   2.200   2.997   5.001 -0.0856  0.1411 -0.3961
   89SAPE  H16R 8660   2.211   2.900   5.053 -3.4504 -1.6681 -2.6823
   89SAPE  H16S 8661   2.298   3.020   4.955  0.5098 -3.0177 -0.9063
   89SAPE  C217 8662   2.120   2.976   4.871 -0.0545  0.3129 -0.0475
   89SAPE  H17R 8663   2.013   2.952   4.893 -0.4113  1.3195 -0.6213
   89SAPE  H17S 8664   2.162   2.886   4.821 -0.3639  0.5596 -0.7645
   89SAPE  C218 8665   2.126   3.100   4.769  0.8111 -0.7407 -0.6350
   89SAPE  H18R 8666   2.231   3.132   4.750  0.5275  1.0168  0.5427
   89SAPE  H18S 8667   2.105   3.193   4.826 -0.3237 -1.0557 -0.5225
   89SAPE  C219 8668   2.039   3.063   4.649  0.5940  0.6485  0.3121
   89SAPE  H19R 8669   1.932   3.059   4.680  0.6212  2.9462  0.9370
   89SAPE  H19S 8670   2.055   2.961   4.609 -1.9069  0.7393 -1.1527
   89SAPE  C220 8671   2.040   3.169   4.541 -0.0976 -0.0094 -0.3633
   89SAPE  H20R 8672   2.019   3.120   4.443  0.7201  1.6111 -1.4116
   89SAPE  H20S 8673   2.148   3.198   4.537 -0.4176  1.3651  0.3509
   89SAPE  H20T 8674   1.977   3.258   4.558 -0.7904 -0.4449 -0.6096
   89SAPE   C33 8675   1.259   3.466   5.996 -0.0090  0.1863  0.0034
   89SAPE   H3X 8676   1.204   3.401   5.925 -0.1086 -0.1692  0.3961
   89SAPE   H3Y 8677   1.363   3.441   5.967 -0.3259  0.6825 -1.6254
   89SAPE   C34 8678   1.236   3.615   5.960 -0.4281 -0.4343  0.6590
   89SAPE   H4X 8679   1.322   3.663   6.012  0.1398 -1.6808  0.8986
   89SAPE   H4Y 8680   1.144   3.659   6.004 -1.5484 -0.8233 -1.1661
   89SAPE   C35 8681   1.228   3.644   5.805 -0.2474 -0.2757  0.4456
   89SAPE   H5X 8682   1.211   3.753   5.794  0.1975 -0.1310  1.1607
   89SAPE   H5Y 8683   1.135   3.604   5.758 -0.9429  1.1296  0.5751
   89SAPE   C36 8684   1.355   3.591   5.731 -0.5447 -0.0330 -0.5508
   89SAPE   H6X 8685   1.354   3.483   5.755 -1.8111 -0.1750 -1.1484
   89SAPE   H6Y 8686   1.431   3.648   5.790 -0.1154 -1.7162  0.5798
   89SAPE   C37 8687   1.352   3.611   5.582 -1.0864  0.2504 -0.4259
   89SAPE   H7X 8688   1.455   3.579   5.559 -1.8378 -0.6173 -2.8432
   89SAPE   H7Y 8689   1.335   3.718   5.557 -2.0938  1.0512  3.0641
   89SAPE   C38 8690   1.245   3.528   5.512 -0.6476  0.1377  0.3670
   89SAPE   H8X 8691   1.160   3.599   5.525  0.2269  1.1364  0.8399
   89SAPE   H8Y 8692   1.211   3.437   5.567  0.7970 -0.7030 -0.0864
   89SAPE   C39 8693   1.285   3.508   5.366 -0.1197  0.1078 -0.2229
   89SAPE   H9X 8694   1.221   3.425   5.330 -0.7752  0.8436 -0.7650
   89SAPE   H9Y 8695   1.388   3.464   5.372 -0.4013 -0.3922  1.5321
   89SAPE  C310 8696   1.286   3.626   5.267  0.7724 -0.0991  0.0996
   89SAPE  H10X 8697   1.357   3.705   5.300  0.5036 -0.0696  0.6205
   89SAPE  H10Y 8698   1.185   3.672   5.277  0.1157 -1.6266  0.7520
   89SAPE  C311 8699   1.322   3.602   5.119  0.3882  1.0791 -1.2888
   89SAPE  H11X 8700   1.250   3.546   5.055  0.5298 -0.6545 -0.0226
   89SAPE  H11Y 8701   1.412   3.537   5.120 -1.0593 -1.3630  3.5705
   89SAPE  C312 8702   1.339   3.730   5.043  0.5208  0.3973 -0.0434
   89SAPE  H12X 8703   1.407   3.798   5.099 -1.0240  2.5988 -0.7238
   89SAPE  H12Y 8704   1.237   3.770   5.022 -0.3079 -0.8577  1.3921
   89SAPE  C313 8705   1.391   3.697   4.899 -0.4581 -0.0152  0.3962
   89SAPE  H13X 8706   1.490   3.649   4.913 -0.1434  0.9489  1.7321
   89SAPE  H13Y 8707   1.414   3.791   4.845 -0.9148 -0.8980 -1.4118
   89SAPE  C314 8708   1.306   3.611   4.807 -0.2678  0.4105 -0.3062
   89SAPE  H14X 8709   1.209   3.655   4.775 -0.7436  0.6381  1.3681
   89SAPE  H14Y 8710   1.283   3.517   4.860 -3.2775  1.4329  0.4049
   89SAPE  C315 8711   1.393   3.585   4.680  0.5322  0.0011 -0.6518
   89SAPE  H15X 8712   1.490   3.540   4.709 -0.6161 -2.8343 -0.8159
   89SAPE  H15Y 8713   1.417   3.679   4.626 -0.5396  0.2123 -0.7886
   89SAPE  C316 8714   1.322   3.505   4.570 -0.0823  0.3950  0.2974
   89SAPE  H16X 8715   1.233   3.557   4.527  0.5701  1.2602 -0.0384
   89SAPE  H16Y 8716   1.276   3.409   4.603 -2.0401  0.4450 -1.9826
   89SAPE  C317 8717   1.408   3.472   4.453 -0.2243  1.5729 -0.0215
   89SAPE  H17X 8718   1.492   3.415   4.499 -0.2544  1.3905 -0.1896
   89SAPE  H17Y 8719   1.452   3.566   4.414  1.0555  1.9220  2.1184
   89SAPE  C318 8720   1.334   3.388   4.345  0.2829 -0.5513  0.2232
   89SAPE  H18X 8721   1.409   3.379   4.264  0.6176 -1.0275  0.5845
   89SAPE  H18Y 8722   1.249   3.449   4.306  0.5694  0.5370  1.2316
   89SAPE  H18Z 8723   1.296   3.292   4.385  1.9910 -1.0628  0.6890
   90SAPE     N 8724   4.905   3.723   6.828  0.1676  0.2175  1.0452
   90SAPE   HN1 8725   4.954   3.812   6.852  0.3439  0.9074 -1.5736
   90SAPE   HN2 8726   4.829   3.697   6.894  0.9511  1.7431  2.6359
   90SAPE   HN3 8727   4.980   3.652   6.827 -0.9924 -1.0533 -0.1537
   90SAPE   C12 8728   4.844   3.719   6.689 -0.5771 -0.1249  0.0672
   90SAPE  H12A 8729   4.783   3.812   6.683  1.1045  1.0624  0.8520
   90SAPE  H12B 8730   4.782   3.627   6.678 -0.2863 -0.4422  0.9849
   90SAPE   C11 8731   4.953   3.718   6.579  0.1313 -0.2291 -0.1537
   90SAPE  H11A 8732   5.043   3.772   6.615 -0.0879  0.1652 -0.1885
   90SAPE  H11B 8733   4.927   3.786   6.495 -1.7298 -0.7949 -0.0716
   90SAPE     P 8734   4.896   3.499   6.441 -0.1295  0.9945 -0.2595
   90SAPE   O13 8735   4.852   3.387   6.528  0.2337 -0.7655  0.7177
   90SAPE   O14 8736   4.787   3.573   6.374  0.6488  0.1577  0.6688
   90SAPE   O12 8737   4.993   3.591   6.533 -0.3246  0.5288  0.4710
   90SAPE   O11 8738   4.997   3.441   6.329 -0.0243 -0.5720 -0.1699
   90SAPE    C1 8739   5.117   3.380   6.379 -0.1278  0.0308 -0.0236
   90SAPE    HA 8740   5.198   3.448   6.412  0.3904 -0.9570  0.7713
   90SAPE    HB 8741   5.092   3.306   6.458  1.7867  1.3493  1.9431
   90SAPE    C2 8742   5.178   3.295   6.260 -0.5181 -0.1283  0.0484
   90SAPE    HS 8743   5.279   3.271   6.300 -0.6406  1.4056  1.4012
   90SAPE   O21 8744   5.182   3.362   6.131  0.0063  0.0075 -0.9071
   90SAPE   C21 8745   5.249   3.474   6.120 -0.1233 -0.2617 -0.7951
   90SAPE   O22 8746   5.318   3.526   6.207  0.0908 -0.5831 -0.2492
   90SAPE   C22 8747   5.239   3.519   5.980  0.1419  0.1515 -0.4148
   90SAPE   H2R 8748   5.300   3.449   5.919  0.3306 -0.3609  0.3517
   90SAPE   H2S 8749   5.136   3.539   5.943  0.9551  4.1386 -0.9575
   90SAPE    C3 8750   5.107   3.158   6.238  0.0477 -0.1222 -0.2518
   90SAPE    HX 8751   5.001   3.175   6.208 -1.2357 -3.8084  1.5345
   90SAPE    HY 8752   5.096   3.088   6.323  0.5507 -2.1033 -1.7390
   90SAPE   O31 8753   5.189   3.084   6.139  0.2502 -0.4899 -0.2194
   90SAPE   C31 8754   5.123   3.055   6.025 -0.3191 -0.4159 -0.0233
   90SAPE   O32 8755   5.005   3.046   6.008 -0.3341 -0.5125 -0.3665
   90SAPE   C32 8756   5.225   3.047   5.911  0.1875  0.6397  1.0579
   90SAPE   H2X 8757   5.304   2.973   5.936  0.7735  0.7486 -0.3795
   90SAPE   H2Y 8758   5.277   3.145   5.907  3.0278 -0.7884 -1.1797
   90SAPE   C23 8759   5.316   3.658   5.965  0.2998 -0.1921  0.1804
   90SAPE   H3R 8760   5.422   3.634   5.984  0.7004 -0.0923 -1.7127
   90SAPE   H3S 8761   5.275   3.735   6.034  1.2312 -0.9570  1.6286
   90SAPE   C24 8762   5.311   3.710   5.817  0.2331  0.3656  0.6728
   90SAPE   H4R 8763   5.353   3.625   5.760  2.8618  1.1392  1.3207
   90SAPE   H4S 8764   5.386   3.786   5.787  1.2100 -1.1506 -0.9517
   90SAPE   C25 8765   5.170   3.724   5.773 -0.1256  0.2010  0.2373
   90SAPE   H5R 8766   5.090   3.720   5.848  1.0268  3.8290  1.8867
   90SAPE   C26 8767   5.135   3.744   5.640  0.4441  0.1539 -0.4335
   90SAPE   H6R 8768   5.029   3.758   5.613 -1.2289 -2.1234  4.0418
   90SAPE   C27 8769   5.230   3.755   5.527 -0.4871 -0.7082  0.1273
   90SAPE   H7R 8770   5.220   3.671   5.456  2.9440  2.2632 -4.4552
   90SAPE   H7S 8771   5.335   3.757   5.563 -0.6638 -2.2164  0.7903
   90SAPE   C28 8772   5.198   3.881   5.443 -0.3430 -0.7131 -0.1267
   90SAPE   H8R 8773   5.244   3.973   5.481 -0.7043 -0.3755 -0.4927
   90SAPE   C29 8774   5.141   3.884   5.320  0.1487 -0.2857 -0.4921
   90SAPE   H9R 8775   5.128   3.977   5.262  1.8431  0.3598  0.0809
   90SAPE  C210 8776   5.067   3.768   5.260 -0.0761  0.5674  0.8966
   90SAPE  H10R 8777   4.969   3.799   5.219 -0.1242  1.6802  1.8103
   90SAPE  H10S 8778   5.038   3.699   5.342  1.9823 -0.1628  1.0699
   90SAPE  C211 8779   5.146   3.689   5.156  0.0406 -0.0768 -0.5429
   90SAPE  H11R 8780   5.218   3.613   5.191 -0.3405  0.4633  1.5547
   90SAPE  C212 8781   5.163   3.710   5.026 -0.4066 -0.0159 -0.1927
   90SAPE  H12R 8782   5.219   3.635   4.967 -2.7533 -1.6963 -0.4688
   90SAPE  C213 8783   5.120   3.820   4.941  0.1052 -0.1334  0.6296
   90SAPE  H13R 8784   5.214   3.874   4.918 -0.7061  0.7694 -0.6470
   90SAPE  H13S 8785   5.056   3.897   4.988  2.0373  2.4104 -0.6514
   90SAPE  C214 8786   5.054   3.784   4.811 -0.6403  0.8468  0.3560
   90SAPE  H14R 8787   4.961   3.727   4.819 -0.4515  0.2759 -1.2158
   90SAPE  C215 8788   5.109   3.812   4.689  0.4219  1.2343 -0.0506
   90SAPE  H15R 8789   5.051   3.784   4.599  0.7358 -0.1899  0.1631
   90SAPE  C216 8790   5.237   3.879   4.641  0.1486  0.2162 -0.3014
   90SAPE  H16R 8791   5.292   3.806   4.578  1.0670  1.9923 -1.6824
   90SAPE  H16S 8792   5.312   3.893   4.722  1.8899  1.3230 -1.9988
   90SAPE  C217 8793   5.209   4.018   4.577 -0.0753  0.5547 -0.5656
   90SAPE  H17R 8794   5.151   4.003   4.483  0.6908  0.1210 -0.9820
   90SAPE  H17S 8795   5.299   4.065   4.531  0.3581  1.2933  0.9725
   90SAPE  C218 8796   5.134   4.112   4.666  0.3577  0.4797  0.2227
   90SAPE  H18R 8797   5.192   4.111   4.760 -0.4506 -0.4538  0.7233
   90SAPE  H18S 8798   5.036   4.074   4.700 -0.7657  2.4078 -0.6644
   90SAPE  C219 8799   5.125   4.244   4.604  0.7714 -1.4028 -0.5874
   90SAPE  H19R 8800   5.073   4.233   4.507  1.9694 -0.9225 -1.2999
   90SAPE  H19S 8801   5.225   4.285   4.580  1.7470 -3.9955 -1.1775
   90SAPE  C220 8802   5.039   4.341   4.691  0.6563  0.1624  0.5126
   90SAPE  H20R 8803   4.943   4.287   4.705 -0.6730  1.6276 -2.1554
   90SAPE  H20S 8804   5.028   4.430   4.626  2.6522  1.2384  1.5607
   90SAPE  H20T 8805   5.088   4.360   4.789  1.0724  1.4573  0.0731
   90SAPE   C33 8806   5.156   3.009   5.775 -0.1462 -0.3564  0.6041
   90SAPE   H3X 8807   5.084   3.086   5.740 -1.6184 -2.0729 -0.2757
   90SAPE   H3Y 8808   5.092   2.923   5.804  0.9971 -1.0131  1.2853
   90SAPE   C34 8809   5.250   2.966   5.662  0.0025  0.4895 -0.5550
   90SAPE   H4X 8810   5.319   2.888   5.700  0.1679  0.2546 -1.3248
   90SAPE   H4Y 8811   5.306   3.061   5.652 -0.2650  0.8321  0.9203
   90SAPE   C35 8812   5.191   2.930   5.529  0.1315  0.2489 -0.3581
   90SAPE   H5X 8813   5.091   2.977   5.531 -1.6232 -3.0405 -2.1576
   90SAPE   H5Y 8814   5.170   2.821   5.517 -3.0220  0.5171  1.7324
   90SAPE   C36 8815   5.295   2.967   5.421 -0.2929  0.3127  0.8697
   90SAPE   H6X 8816   5.393   2.933   5.459 -1.7939 -3.1950  2.0717
   90SAPE   H6Y 8817   5.299   3.076   5.403  1.0910 -0.0523 -1.3150
   90SAPE   C37 8818   5.269   2.888   5.291  0.0851  0.0579  0.5053
   90SAPE   H7X 8819   5.161   2.908   5.275 -0.4960 -1.4462  2.2609
   90SAPE   H7Y 8820   5.282   2.778   5.298 -0.4625 -0.0653 -0.3067
   90SAPE   C38 8821   5.349   2.924   5.165  0.0440  0.0283  0.2362
   90SAPE   H8X 8822   5.457   2.906   5.184 -0.1781 -1.3729  0.2447
   90SAPE   H8Y 8823   5.356   3.035   5.158 -2.2733  0.4993  3.0727
   90SAPE   C39 8824   5.314   2.852   5.038 -0.4363 -0.6450 -0.3438
   90SAPE   H9X 8825   5.204   2.854   5.025 -0.3460 -1.1451 -1.2848
   90SAPE   H9Y 8826   5.344   2.745   5.047  3.5333  0.4219  1.3935
   90SAPE  C310 8827   5.392   2.905   4.919 -0.2450 -0.6112  0.7798
   90SAPE  H10X 8828   5.498   2.874   4.918  0.2880  0.9061 -2.1774
   90SAPE  H10Y 8829   5.389   3.016   4.931 -2.0819 -0.6702  1.2323
   90SAPE  C311 8830   5.330   2.857   4.791  0.9833  0.1045 -0.0224
   90SAPE  H11X 8831   5.221   2.879   4.789  0.5025 -1.9996  0.4966
   90SAPE  H11Y 8832   5.324   2.747   4.781  3.8703  0.0587 -2.7389
   90SAPE  C312 8833   5.418   2.911   4.679  0.0374 -0.5116  0.2718
   90SAPE  H12X 8834   5.526   2.897   4.698 -0.0784 -1.1498  0.4952
   90SAPE  H12Y 8835   5.404   3.021   4.680  0.7116 -0.3906 -1.1413
   90SAPE  C313 8836   5.391   2.841   4.542 -0.3991 -0.5942  0.0303
   90SAPE  H13X 8837   5.407   2.731   4.545  0.2597 -0.4708  1.8759
   90SAPE  H13Y 8838   5.460   2.889   4.469  2.1413 -0.6311  2.2765
   90SAPE  C314 8839   5.246   2.862   4.477 -0.8131  0.2721 -0.7190
   90SAPE  H14X 8840   5.237   2.968   4.444 -2.7878  1.6886  3.5915
   90SAPE  H14Y 8841   5.164   2.850   4.551 -1.5050  2.3074 -1.0810
   90SAPE  C315 8842   5.210   2.774   4.357 -0.2206  0.0903 -0.2880
   90SAPE  H15X 8843   5.225   2.667   4.383 -1.5298  0.2074  1.0795
   90SAPE  H15Y 8844   5.282   2.801   4.276 -0.4474  0.6262 -0.3131
   90SAPE  C316 8845   5.072   2.798   4.301  0.0277  0.4950  0.3725
   90SAPE  H16X 8846   5.062   2.900   4.258 -0.5904 -0.1444 -1.0729
   90SAPE  H16Y 8847   5.005   2.784   4.388 -0.3930 -2.0096 -0.2952
   90SAPE  C317 8848   5.039   2.702   4.184 -0.1579  0.0025 -0.8666
   90SAPE  H17X 8849   4.928   2.695   4.183 -0.0875 -2.4673  0.7005
   90SAPE  H17Y 8850   5.062   2.594   4.195 -0.7796 -0.0241  0.2924
   90SAPE  C318 8851   5.092   2.754   4.056 -0.4951  0.2800  0.8807
   90SAPE  H18X 8852   5.200   2.776   4.052 -0.0735 -1.7046 -2.4631
   90SAPE  H18Y 8853   5.032   2.835   4.010 -1.0013 -1.3420 -1.4907
   90SAPE  H18Z 8854   5.086   2.672   3.981 -1.3619  0.9305  0.2055
   91SAPE     N 8855   3.359   3.986   6.685 -0.0265  0.6628 -0.6085
   91SAPE   HN1 8856   3.425   3.978   6.765  0.0736 -1.0285 -0.8298
   91SAPE   HN2 8857   3.325   3.891   6.659  2.0571 -0.2185 -0.3063
   91SAPE   HN3 8858   3.411   4.019   6.602  2.0122  1.1244  0.7813
   91SAPE   C12 8859   3.244   4.082   6.705 -0.6621 -0.1345  0.3790
   91SAPE  H12A 8860   3.281   4.185   6.723 -0.6419  0.0717 -0.7679
   91SAPE  H12B 8861   3.191   4.058   6.800 -0.5274  0.4149  0.5948
   91SAPE   C11 8862   3.156   4.088   6.585 -0.6322 -0.2098  0.0360
   91SAPE  H11A 8863   3.119   3.986   6.562  0.0592 -0.8487  1.5483
   91SAPE  H11B 8864   3.214   4.131   6.500  0.6370  1.9272  1.8555
   91SAPE     P 8865   2.942   4.193   6.492  0.0386 -0.1898 -0.2770
   91SAPE   O13 8866   2.848   4.079   6.517  0.1228 -0.1679 -0.2472
   91SAPE   O14 8867   2.885   4.326   6.503 -0.0488  0.0772  0.2198
   91SAPE   O12 8868   3.051   4.182   6.605 -0.6240  0.0946 -0.2462
   91SAPE   O11 8869   3.014   4.178   6.356  0.1513 -0.2167  0.0844
   91SAPE    C1 8870   2.976   4.257   6.237  0.3432  0.0571 -0.0815
   91SAPE    HA 8871   2.905   4.336   6.270 -0.0204  0.2496 -1.2715
   91SAPE    HB 8872   3.061   4.318   6.201  0.0590  1.3016  1.2494
   91SAPE    C2 8873   2.897   4.160   6.141  0.0755 -0.3647 -0.2258
   91SAPE    HS 8874   2.820   4.112   6.206  1.5073 -0.5954  1.3697
   91SAPE   O21 8875   2.992   4.068   6.089  0.1517 -0.1956  0.3521
   91SAPE   C21 8876   2.942   3.959   6.036  0.1058  0.8703 -0.4468
   91SAPE   O22 8877   2.821   3.937   6.025 -0.1330  0.0848  0.7459
   91SAPE   C22 8878   3.043   3.860   5.988 -0.4193 -0.9144  0.1334
   91SAPE   H2R 8879   3.105   3.919   5.917 -2.2791  0.7962 -0.1664
   91SAPE   H2S 8880   3.118   3.831   6.065  0.0144  0.6605  0.3346
   91SAPE    C3 8881   2.834   4.234   6.027  0.0506 -0.0044 -0.0002
   91SAPE    HX 8882   2.752   4.287   6.080 -0.3967  1.8188 -2.3346
   91SAPE    HY 8883   2.775   4.175   5.953  1.7132 -1.3920 -0.2784
   91SAPE   O31 8884   2.924   4.338   5.972 -0.1624 -0.1510  0.3580
   91SAPE   C31 8885   2.979   4.295   5.855 -0.0478 -0.8184 -0.7623
   91SAPE   O32 8886   2.965   4.188   5.803  0.2590  0.0464 -0.2498
   91SAPE   C32 8887   3.071   4.408   5.805  0.4828 -0.2757  0.0881
   91SAPE   H2X 8888   3.154   4.430   5.875 -0.8071 -0.6124  1.7940
   91SAPE   H2Y 8889   3.010   4.500   5.818 -1.7567 -1.5961 -0.5163
   91SAPE   C23 8890   2.980   3.746   5.909 -0.6749  0.5490  0.1046
   91SAPE   H3R 8891   2.909   3.794   5.837 -1.2894 -0.7459 -0.1957
   91SAPE   H3S 8892   2.924   3.681   5.980 -0.2698 -0.0707 -0.1372
   91SAPE   C24 8893   3.083   3.671   5.836  0.0164 -0.5269 -0.3163
   91SAPE   H4R 8894   3.155   3.640   5.916  0.4111 -2.9403 -1.5175
   91SAPE   H4S 8895   3.138   3.730   5.760  1.3053 -1.3771 -0.0858
   91SAPE   C25 8896   3.039   3.545   5.770  0.1021 -0.2795  0.4005
   91SAPE   H5R 8897   3.032   3.457   5.836 -0.3553 -0.2008  0.4579
   91SAPE   C26 8898   3.020   3.534   5.638 -0.5736  0.3033  0.1649
   91SAPE   H6R 8899   2.984   3.438   5.600  2.2737 -2.0272  2.8061
   91SAPE   C27 8900   3.036   3.636   5.523  1.0026 -1.0276 -0.8255
   91SAPE   H7R 8901   3.081   3.730   5.561 -0.9279 -0.3462 -0.0726
   91SAPE   H7S 8902   2.935   3.663   5.485  1.1497  2.3418  0.8681
   91SAPE   C28 8903   3.103   3.586   5.398 -0.0924  0.0798  1.0199
   91SAPE   H8R 8904   3.208   3.563   5.424 -0.5681 -2.8962  0.7073
   91SAPE   C29 8905   3.072   3.573   5.266  0.6153  0.1686  0.5323
   91SAPE   H9R 8906   3.152   3.552   5.194 -0.0597 -1.1651  0.1358
   91SAPE  C210 8907   2.943   3.601   5.211 -0.2737 -0.0456  0.1423
   91SAPE  H10R 8908   2.926   3.700   5.162 -2.0526  0.3138  1.4039
   91SAPE  H10S 8909   2.868   3.607   5.292 -0.4312 -2.1695  0.2033
   91SAPE  C211 8910   2.912   3.488   5.126  0.4086 -0.0315 -0.1004
   91SAPE  H11R 8911   2.894   3.398   5.186 -0.9324  0.1322 -0.2267
   91SAPE  C212 8912   2.893   3.482   4.989 -0.1642  0.2147  0.1093
   91SAPE  H12R 8913   2.884   3.383   4.943 -0.5513 -0.4632  1.5739
   91SAPE  C213 8914   2.909   3.602   4.892  0.1826  0.3288 -0.6334
   91SAPE  H13R 8915   2.983   3.588   4.809 -1.4219 -1.0665 -1.8873
   91SAPE  H13S 8916   2.952   3.687   4.950  1.7318 -0.6209 -0.3329
   91SAPE  C214 8917   2.772   3.633   4.839 -0.3976  0.2130 -0.2876
   91SAPE  H14R 8918   2.703   3.652   4.922  0.5061 -0.6520  0.6806
   91SAPE  C215 8919   2.718   3.636   4.713  0.8646  0.1493 -0.3465
   91SAPE  H15R 8920   2.610   3.650   4.700  0.4665 -2.7364 -0.7382
   91SAPE  C216 8921   2.801   3.624   4.589 -0.4825 -0.2210 -0.3023
   91SAPE  H16R 8922   2.785   3.520   4.552 -2.3400 -0.7055  1.6548
   91SAPE  H16S 8923   2.910   3.636   4.607 -0.2511 -2.0956 -0.2719
   91SAPE  C217 8924   2.761   3.715   4.467 -0.0818  0.6476 -0.5422
   91SAPE  H17R 8925   2.851   3.706   4.402 -0.0514 -0.4465 -0.3747
   91SAPE  H17S 8926   2.745   3.824   4.483  0.4172  0.5961  0.3887
   91SAPE  C218 8927   2.631   3.658   4.410 -0.2848  0.5069  0.4779
   91SAPE  H18R 8928   2.549   3.658   4.484  0.5373 -0.5549  1.4264
   91SAPE  H18S 8929   2.650   3.550   4.388 -2.9090  0.4472 -2.2751
   91SAPE  C219 8930   2.589   3.716   4.277 -0.5913 -0.5364  0.2025
   91SAPE  H19R 8931   2.587   3.827   4.288 -1.6303 -0.4193 -0.8909
   91SAPE  H19S 8932   2.491   3.670   4.250  1.1347 -2.2601 -3.9060
   91SAPE  C220 8933   2.675   3.678   4.158  0.0203  0.2788  0.2764
   91SAPE  H20R 8934   2.776   3.723   4.173  1.0568 -1.4138 -1.1678
   91SAPE  H20S 8935   2.638   3.704   4.057 -0.6092 -0.6483  0.2676
   91SAPE  H20T 8936   2.695   3.569   4.163  0.3263  0.2227 -1.5103
   91SAPE   C33 8937   3.133   4.387   5.670 -0.2358  0.8824  0.5316
   91SAPE   H3X 8938   3.175   4.284   5.676 -0.7513  0.6651  0.5379
   91SAPE   H3Y 8939   3.205   4.468   5.645  0.4655 -0.5883 -2.6755
   91SAPE   C34 8940   3.021   4.400   5.561 -0.4185  0.5269  0.3709
   91SAPE   H4X 8941   2.951   4.484   5.584 -0.3131  1.3175 -1.9250
   91SAPE   H4Y 8942   2.968   4.303   5.562 -1.8213  1.2402 -0.4921
   91SAPE   C35 8943   3.086   4.414   5.423  0.7279  0.2812  0.0259
   91SAPE   H5X 8944   3.144   4.322   5.398  0.4753 -0.3629  1.6741
   91SAPE   H5Y 8945   3.157   4.500   5.425  1.1112 -0.0099 -0.8358
   91SAPE   C36 8946   2.980   4.455   5.321  0.6098 -0.4177  0.1553
   91SAPE   H6X 8947   2.948   4.558   5.346  1.0141 -0.4358  0.7590
   91SAPE   H6Y 8948   2.887   4.394   5.325 -1.0597  2.0584  2.6845
   91SAPE   C37 8949   3.014   4.452   5.168 -0.2180 -0.6520  0.0575
   91SAPE   H7X 8950   2.920   4.481   5.117  1.4897 -2.1407 -4.4562
   91SAPE   H7Y 8951   3.043   4.353   5.128  1.1216  0.3579 -1.6329
   91SAPE   C38 8952   3.125   4.548   5.124 -0.6791 -0.0331 -0.0142
   91SAPE   H8X 8953   3.220   4.527   5.178 -0.5360 -1.2265 -0.7052
   91SAPE   H8Y 8954   3.100   4.651   5.158  0.4762  1.8248 -4.1915
   91SAPE   C39 8955   3.154   4.531   4.973  0.0155 -0.3642  0.3843
   91SAPE   H9X 8956   3.231   4.451   4.970  2.5693  1.9556  0.0455
   91SAPE   H9Y 8957   3.202   4.620   4.928  0.4722 -0.3527  0.8829
   91SAPE  C310 8958   3.029   4.524   4.883  0.2638 -0.0020  0.1027
   91SAPE  H10X 8959   2.959   4.608   4.902 -0.1935 -0.3300 -0.1071
   91SAPE  H10Y 8960   2.976   4.428   4.903  1.7317 -0.9743 -0.4713
   91SAPE  C311 8961   3.062   4.542   4.737 -0.4929 -0.5035  0.8850
   91SAPE  H11X 8962   3.143   4.470   4.713  0.1140 -0.5983  3.0028
   91SAPE  H11Y 8963   3.093   4.648   4.722 -1.8718 -0.2202 -0.1198
   91SAPE  C312 8964   2.934   4.516   4.656  0.0105 -0.2277  0.8814
   91SAPE  H12X 8965   2.866   4.596   4.694  1.3734  0.1490  2.6714
   91SAPE  H12Y 8966   2.891   4.416   4.679 -1.0041  0.1164  0.5115
   91SAPE  C313 8967   2.962   4.549   4.507 -0.1390 -0.0459  0.0022
   91SAPE  H13X 8968   3.023   4.468   4.461  0.9867  0.8624 -0.1595
   91SAPE  H13Y 8969   3.028   4.636   4.487 -0.5125 -0.2719 -2.6207
   91SAPE  C314 8970   2.832   4.571   4.425  0.6102 -0.2498  0.5543
   91SAPE  H14X 8971   2.785   4.653   4.484 -0.2841 -0.3223 -0.0368
   91SAPE  H14Y 8972   2.761   4.486   4.422  0.8262 -0.4157 -0.3910
   91SAPE  C315 8973   2.850   4.622   4.283 -1.0815 -0.7078  0.0665
   91SAPE  H15X 8974   2.905   4.547   4.222  2.8639  2.6087 -0.9937
   91SAPE  H15Y 8975   2.923   4.707   4.284 -1.1043 -0.6756  1.7243
   91SAPE  C316 8976   2.717   4.671   4.211 -0.7077 -0.4349 -0.3776
   91SAPE  H16X 8977   2.673   4.744   4.282  1.6462  1.1628 -0.4711
   91SAPE  H16Y 8978   2.646   4.586   4.200  0.9766 -2.1288  1.1167
   91SAPE  C317 8979   2.745   4.746   4.086  1.0356 -0.2733  0.4029
   91SAPE  H17X 8980   2.817   4.826   4.111  0.9596 -0.4853  1.3612
   91SAPE  H17Y 8981   2.647   4.782   4.048  1.4976 -0.0397 -0.5797
   91SAPE  C318 8982   2.796   4.663   3.962 -0.0212  0.6117 -0.3798
   91SAPE  H18X 8983   2.732   4.573   3.948 -0.5614  0.2201  3.4536
   91SAPE  H18Y 8984   2.903   4.638   3.979 -0.8291 -4.2154 -1.1989
   91SAPE  H18Z 8985   2.787   4.728   3.873 -0.1851  1.7507  0.4412
   92SAPE     N 8986   3.523   5.390   6.356  0.0246  0.2312  0.2573
   92SAPE   HN1 8987   3.581   5.368   6.439 -0.3667 -0.9046  0.2469
   92SAPE   HN2 8988   3.572   5.365   6.268 -1.1715 -0.5485 -0.2212
   92SAPE   HN3 8989   3.497   5.491   6.355 -1.1576 -0.0517 -0.4612
   92SAPE   C12 8990   3.399   5.309   6.355  0.0343 -0.0778 -0.5819
   92SAPE  H12A 8991   3.421   5.209   6.311  0.0057 -1.3333  2.0705
   92SAPE  H12B 8992   3.321   5.364   6.299 -1.5817  1.9958  3.3214
   92SAPE   C11 8993   3.373   5.294   6.501  0.0114 -0.0902  0.3692
   92SAPE  H11A 8994   3.466   5.265   6.554  1.0451 -0.2072 -1.4451
   92SAPE  H11B 8995   3.314   5.202   6.522  3.0563 -2.3716 -0.2476
   92SAPE     P 8996   3.374   5.496   6.671  0.1572  0.2888 -0.2131
   92SAPE   O13 8997   3.364   5.437   6.805  0.0674 -0.0640  0.3562
   92SAPE   O14 8998   3.511   5.528   6.626 -0.0511  0.9198 -0.0976
   92SAPE   O12 8999   3.313   5.406   6.563 -0.0831 -0.3385  0.2215
   92SAPE   O11 9000   3.285   5.624   6.647 -0.1570  0.5247  0.3405
   92SAPE    C1 9001   3.247   5.688   6.526 -0.0145 -0.0524 -0.1799
   92SAPE    HA 9002   3.278   5.795   6.526 -1.2235  0.3264 -1.2184
   92SAPE    HB 9003   3.279   5.647   6.428 -2.3027  0.6814 -1.2938
   92SAPE    C2 9004   3.090   5.696   6.514  0.0730 -0.7236  0.1218
   92SAPE    HS 9005   3.045   5.737   6.607  2.2455 -0.4412  1.1300
   92SAPE   O21 9006   3.042   5.563   6.486  0.1584 -0.5969  0.1251
   92SAPE   C21 9007   2.907   5.543   6.489 -0.4728  1.3166 -0.7290
   92SAPE   O22 9008   2.825   5.631   6.515 -0.5128 -0.2807  0.9289
   92SAPE   C22 9009   2.877   5.391   6.467 -0.1837 -0.2419 -0.5052
   92SAPE   H2R 9010   2.878   5.333   6.561 -3.6204  2.7171  1.6089
   92SAPE   H2S 9011   2.774   5.382   6.427 -0.6865  0.8750  0.4839
   92SAPE    C3 9012   3.053   5.793   6.395 -0.5045 -0.6233 -0.3784
   92SAPE    HX 9013   3.085   5.894   6.427 -4.0113  0.4129  0.2973
   92SAPE    HY 9014   2.945   5.807   6.377 -0.0022  4.0850 -1.0157
   92SAPE   O31 9015   3.126   5.756   6.272  1.0379 -0.0993 -0.4095
   92SAPE   C31 9016   3.061   5.674   6.181 -0.1823  0.4202 -0.2118
   92SAPE   O32 9017   2.947   5.644   6.186  0.4036  0.0008 -0.0382
   92SAPE   C32 9018   3.157   5.622   6.076 -0.3809  0.0761  0.7932
   92SAPE   H2X 9019   3.194   5.524   6.112 -1.2248 -1.0957 -1.3249
   92SAPE   H2Y 9020   3.241   5.694   6.064 -1.1537  1.1556  1.6246
   92SAPE   C23 9021   2.975   5.334   6.366 -0.8471 -0.2970  0.3847
   92SAPE   H3R 9022   3.077   5.337   6.409 -0.2391  3.1830 -0.9822
   92SAPE   H3S 9023   2.985   5.398   6.275  0.9425 -0.3178  0.5303
   92SAPE   C24 9024   2.950   5.193   6.319 -0.5314  0.1706  0.4974
   92SAPE   H4R 9025   2.845   5.180   6.285 -0.7434  0.7824  0.8952
   92SAPE   H4S 9026   2.956   5.125   6.406 -4.3966 -1.5806 -0.4246
   92SAPE   C25 9027   3.049   5.151   6.214  0.3307  0.3884  0.6309
   92SAPE   H5R 9028   3.149   5.119   6.247  1.2927 -0.3816 -2.5929
   92SAPE   C26 9029   3.026   5.140   6.082  0.3288  0.4015 -0.2098
   92SAPE   H6R 9030   3.105   5.104   6.015  0.6033  1.3137 -0.3929
   92SAPE   C27 9031   2.902   5.170   6.008  0.5378  0.1045  0.2321
   92SAPE   H7R 9032   2.838   5.242   6.065  1.5773 -0.3247  2.0018
   92SAPE   H7S 9033   2.850   5.072   6.006 -1.4011  1.0522  0.5531
   92SAPE   C28 9034   2.923   5.223   5.867 -0.3433 -0.2871 -0.0524
   92SAPE   H8R 9035   2.923   5.332   5.855  3.4356 -0.0487  0.7867
   92SAPE   C29 9036   2.956   5.151   5.754  0.1386  0.0296  0.2180
   92SAPE   H9R 9037   2.964   5.198   5.655  0.4480 -3.6245 -1.6478
   92SAPE  C210 9038   2.992   5.008   5.741 -0.6715 -0.2809 -0.4827
   92SAPE  H10R 9039   3.058   4.973   5.824 -1.1845  1.5724  0.7869
   92SAPE  H10S 9040   3.061   5.016   5.654 -0.2580  0.0249 -0.1361
   92SAPE  C211 9041   2.882   4.909   5.721 -0.8931  0.6091 -0.3505
   92SAPE  H11R 9042   2.857   4.839   5.802 -1.0633  0.0618 -0.8752
   92SAPE  C212 9043   2.823   4.882   5.599  0.4883  0.3782  0.0435
   92SAPE  H12R 9044   2.743   4.807   5.603  1.0075 -0.1296  1.4800
   92SAPE  C213 9045   2.838   4.959   5.467  0.3310 -0.6759 -0.2126
   92SAPE  H13R 9046   2.897   5.052   5.482 -0.8096 -0.4425  4.2179
   92SAPE  H13S 9047   2.739   4.991   5.427  1.1731  0.9419 -1.1357
   92SAPE  C214 9048   2.915   4.876   5.374 -0.0982 -0.0412  0.3712
   92SAPE  H14R 9049   2.989   4.812   5.426 -1.5438 -1.8829  0.2808
   92SAPE  C215 9050   2.890   4.849   5.243 -0.2537 -0.9444 -0.1200
   92SAPE  H15R 9051   2.964   4.787   5.190 -0.6032 -0.3902 -1.2808
   92SAPE  C216 9052   2.796   4.927   5.159 -0.1894 -0.3155  0.1996
   92SAPE  H16R 9053   2.713   4.947   5.230  0.8734 -0.7909  1.6256
   92SAPE  H16S 9054   2.764   4.866   5.072 -0.5479  1.7529 -1.1860
   92SAPE  C217 9055   2.863   5.051   5.106  0.2921 -0.8991  1.1235
   92SAPE  H17R 9056   2.962   5.024   5.064 -0.0308  0.9544 -0.9578
   92SAPE  H17S 9057   2.883   5.110   5.198 -1.1107 -0.5104  1.1979
   92SAPE  C218 9058   2.775   5.129   5.004 -0.1816 -0.1257  0.0931
   92SAPE  H18R 9059   2.837   5.220   4.994  1.0474 -0.9485  0.0607
   92SAPE  H18S 9060   2.687   5.154   5.067 -0.7225 -1.9941  0.1641
   92SAPE  C219 9061   2.745   5.068   4.863 -0.4544 -0.4883 -0.2282
   92SAPE  H19R 9062   2.743   4.958   4.878  0.9487 -0.2771  2.0254
   92SAPE  H19S 9063   2.829   5.081   4.791  1.2150 -1.5008  1.4494
   92SAPE  C220 9064   2.610   5.118   4.812 -0.4570  0.8576  0.1529
   92SAPE  H20R 9065   2.521   5.099   4.876 -0.7781 -0.9223 -0.7657
   92SAPE  H20S 9066   2.599   5.073   4.711  0.0253 -1.3685  1.0331
   92SAPE  H20T 9067   2.605   5.229   4.810 -0.9309  0.8258 -1.2056
   92SAPE   C33 9068   3.092   5.600   5.937  0.0878  0.2455 -0.7648
   92SAPE   H3X 9069   2.987   5.564   5.945 -1.5246  4.1857 -1.7532
   92SAPE   H3Y 9070   3.145   5.514   5.892  0.0356 -0.1812 -0.0345
   92SAPE   C34 9071   3.082   5.724   5.841 -0.5826 -0.9415 -0.7741
   92SAPE   H4X 9072   3.161   5.798   5.864  0.8357 -3.3711  3.3025
   92SAPE   H4Y 9073   2.984   5.774   5.854 -0.9765 -1.6291 -1.0058
   92SAPE   C35 9074   3.092   5.682   5.692  0.2184 -0.5696 -0.2422
   92SAPE   H5X 9075   3.197   5.663   5.660  1.5890  0.4469  3.2138
   92SAPE   H5Y 9076   3.053   5.771   5.637  0.1777 -0.9739 -0.8876
   92SAPE   C36 9077   3.008   5.568   5.639 -0.1123  0.3364  0.0896
   92SAPE   H6X 9078   2.904   5.573   5.677 -1.0171 -4.3112 -1.0882
   92SAPE   H6Y 9079   3.037   5.468   5.679  2.0582  1.2332  0.9074
   92SAPE   C37 9080   2.987   5.557   5.486  0.1224 -0.3172  0.0173
   92SAPE   H7X 9081   2.945   5.651   5.443  2.9465  0.4656 -1.3031
   92SAPE   H7Y 9082   2.906   5.483   5.474 -1.2347  1.5147 -3.9134
   92SAPE   C38 9083   3.117   5.515   5.412 -0.5918  0.3859 -0.0298
   92SAPE   H8X 9084   3.168   5.435   5.471  0.7668 -1.3047 -3.2222
   92SAPE   H8Y 9085   3.181   5.606   5.407 -1.2779  0.8661 -0.1633
   92SAPE   C39 9086   3.084   5.447   5.282  0.7793 -0.4109  0.3190
   92SAPE   H9X 9087   3.015   5.362   5.300  1.4048 -0.6460  1.6889
   92SAPE   H9Y 9088   3.168   5.400   5.226  0.1919 -1.0298 -0.0714
   92SAPE  C310 9089   3.011   5.546   5.183 -0.2042 -0.1674  0.5457
   92SAPE  H10X 9090   3.075   5.634   5.161  1.1829 -0.9692  1.2319
   92SAPE  H10Y 9091   2.918   5.577   5.236 -1.1695 -0.0301 -1.1738
   92SAPE  C311 9092   2.969   5.470   5.057 -0.4464 -1.1462  0.0396
   92SAPE  H11X 9093   2.894   5.530   5.001 -0.1752 -1.0149 -0.1887
   92SAPE  H11Y 9094   2.917   5.375   5.084 -0.5804 -0.9499  0.4885
   92SAPE  C312 9095   3.079   5.436   4.960 -0.0148 -0.4398 -0.2249
   92SAPE  H12X 9096   3.149   5.358   4.996 -0.8219 -1.1187 -0.1215
   92SAPE  H12Y 9097   3.149   5.522   4.949  0.2013 -0.7565 -1.3903
   92SAPE  C313 9098   3.014   5.397   4.826 -0.2487  0.1339  0.0997
   92SAPE  H13X 9099   2.935   5.470   4.799  0.4770  1.1517  0.6486
   92SAPE  H13Y 9100   2.968   5.296   4.832 -0.1605  0.0886  0.0099
   92SAPE  C314 9101   3.120   5.398   4.718 -0.0229 -0.0078 -0.2090
   92SAPE  H14X 9102   3.200   5.321   4.724 -0.1111 -0.1393 -0.7188
   92SAPE  H14Y 9103   3.167   5.499   4.726 -0.7488  0.5015 -1.9800
   92SAPE  C315 9104   3.061   5.392   4.576 -0.2988 -0.1842 -0.3210
   92SAPE  H15X 9105   2.977   5.465   4.575  0.6479  1.0446  1.8298
   92SAPE  H15Y 9106   3.011   5.293   4.564  0.0575 -0.4933  0.6112
   92SAPE  C316 9107   3.168   5.413   4.464 -0.1784 -0.0808  0.7942
   92SAPE  H16X 9108   3.249   5.337   4.464 -1.6939 -1.7964  2.2967
   92SAPE  H16Y 9109   3.227   5.507   4.468  0.5135 -0.4407 -0.3705
   92SAPE  C317 9110   3.108   5.407   4.321 -0.2488 -0.0869 -0.6287
   92SAPE  H17X 9111   3.014   5.465   4.325  0.4700  1.3628 -2.9477
   92SAPE  H17Y 9112   3.087   5.309   4.272 -0.0042 -0.4691  0.0196
   92SAPE  C318 9113   3.188   5.490   4.210 -0.4125  0.7629  0.3056
   92SAPE  H18X 9114   3.238   5.582   4.247 -0.9527  2.0259 -1.9188
   92SAPE  H18Y 9115   3.127   5.504   4.118 -0.0050 -0.2188 -0.1289
   92SAPE  H18Z 9116   3.274   5.428   4.177  0.2805  2.2911 -0.9071
   93SAPE     N 9117   5.003   2.183   6.784  0.4291  0.8463 -0.3063
   93SAPE   HN1 9118   4.946   2.174   6.871 -0.5836  1.5923 -0.8803
   93SAPE   HN2 9119   5.028   2.090   6.745  0.8357 -0.2565  2.3412
   93SAPE   HN3 9120   5.090   2.231   6.813  0.5054  0.2947  0.4128
   93SAPE   C12 9121   4.945   2.264   6.683  0.0559  0.1200  0.4259
   93SAPE  H12A 9122   4.876   2.339   6.728 -1.5342 -0.2067 -1.3391
   93SAPE  H12B 9123   4.889   2.205   6.608 -2.0235  3.4785 -0.9217
   93SAPE   C11 9124   5.058   2.346   6.616  0.7915  0.6585  0.8076
   93SAPE  H11A 9125   5.014   2.415   6.541 -1.2091 -3.1456 -1.8995
   93SAPE  H11B 9126   5.108   2.274   6.547 -1.8120  0.2540 -0.7933
   93SAPE     P 9127   5.288   2.451   6.669  0.2312 -0.1613  0.3023
   93SAPE   O13 9128   5.341   2.523   6.782  0.4613  0.1778  0.0157
   93SAPE   O14 9129   5.354   2.333   6.618 -0.6245 -0.1461 -0.8376
   93SAPE   O12 9130   5.140   2.412   6.711  0.0898 -0.3360  0.0211
   93SAPE   O11 9131   5.275   2.558   6.556 -0.3677  0.0564 -0.1328
   93SAPE    C1 9132   5.268   2.530   6.414  0.0872  0.3383  0.4683
   93SAPE    HA 9133   5.201   2.446   6.385  1.2295  0.5607 -3.3630
   93SAPE    HB 9134   5.220   2.617   6.363 -1.1882 -0.8652 -0.4473
   93SAPE    C2 9135   5.408   2.501   6.358 -0.2377  0.0866 -0.0884
   93SAPE    HS 9136   5.466   2.430   6.422 -0.5670 -1.0138 -0.9659
   93SAPE   O21 9137   5.477   2.627   6.352 -0.3697 -0.2157 -0.5019
   93SAPE   C21 9138   5.610   2.622   6.330 -0.1902 -0.1472 -0.3868
   93SAPE   O22 9139   5.677   2.520   6.336  0.3091 -0.1803  0.2155
   93SAPE   C22 9140   5.651   2.761   6.290 -0.4923 -0.2401 -0.4274
   93SAPE   H2R 9141   5.565   2.832   6.289 -0.3731  0.0231  1.9454
   93SAPE   H2S 9142   5.713   2.800   6.374 -2.5393 -1.5072  1.8027
   93SAPE    C3 9143   5.409   2.438   6.213 -0.0024 -0.1847 -0.2454
   93SAPE    HX 9144   5.365   2.337   6.229 -1.7358  0.6798  0.8233
   93SAPE    HY 9145   5.514   2.434   6.177  0.4993  4.5450 -0.0281
   93SAPE   O31 9146   5.327   2.518   6.123 -1.3127  0.6536 -0.7074
   93SAPE   C31 9147   5.244   2.462   6.042 -0.8236  0.5129 -0.1934
   93SAPE   O32 9148   5.220   2.342   6.042  0.1187 -0.1126 -0.0709
   93SAPE   C32 9149   5.189   2.554   5.938  0.1764 -0.6712  0.7061
   93SAPE   H2X 9150   5.280   2.605   5.902 -0.0155 -0.7410  0.1198
   93SAPE   H2Y 9151   5.111   2.622   5.980  0.7428  0.8712 -0.6511
   93SAPE   C23 9152   5.727   2.767   6.153  0.2324 -0.1057  0.3701
   93SAPE   H3R 9153   5.802   2.687   6.134 -0.6081 -0.7919 -0.1168
   93SAPE   H3S 9154   5.792   2.857   6.159 -1.2127  1.3389 -2.9462
   93SAPE   C24 9155   5.640   2.788   6.033 -0.3534  0.1397 -0.7424
   93SAPE   H4R 9156   5.607   2.894   6.025  1.4903  0.8219  0.2226
   93SAPE   H4S 9157   5.558   2.716   6.055  1.5778 -0.8408  4.7640
   93SAPE   C25 9158   5.703   2.737   5.897  0.3182 -0.1670  0.7419
   93SAPE   H5R 9159   5.761   2.644   5.909 -1.1665 -0.9458  2.3664
   93SAPE   C26 9160   5.703   2.804   5.779 -0.4945 -0.1611 -0.0964
   93SAPE   H6R 9161   5.765   2.757   5.701  0.7054  1.2603 -0.0353
   93SAPE   C27 9162   5.648   2.945   5.738 -0.2643 -0.0679  0.0651
   93SAPE   H7R 9163   5.623   2.991   5.836  3.1545  0.0985  1.0051
   93SAPE   H7S 9164   5.553   2.952   5.682 -0.3702 -0.5947  0.1712
   93SAPE   C28 9165   5.750   3.027   5.666  0.7444 -0.3049 -0.0175
   93SAPE   H8R 9166   5.791   3.114   5.720 -0.0490  0.4704 -0.6448
   93SAPE   C29 9167   5.782   3.022   5.540 -0.3936 -0.3261 -0.2650
   93SAPE   H9R 9168   5.863   3.088   5.503  0.4475 -0.8799  0.5552
   93SAPE  C210 9169   5.746   2.915   5.444 -0.0323 -0.8639  0.4353
   93SAPE  H10R 9170   5.678   2.838   5.486  1.1552 -2.5344 -0.6052
   93SAPE  H10S 9171   5.832   2.857   5.406  0.8592  0.5903  0.1264
   93SAPE  C211 9172   5.686   2.982   5.327  0.4710 -0.1059 -0.0977
   93SAPE  H11R 9173   5.586   3.022   5.352  0.0917 -0.7126 -0.6025
   93SAPE  C212 9174   5.729   2.995   5.198 -0.0086  0.1513  0.2633
   93SAPE  H12R 9175   5.671   3.046   5.119  1.1401  0.9756 -0.0853
   93SAPE  C213 9176   5.865   2.941   5.152  0.3413  0.0063  0.2211
   93SAPE  H13R 9177   5.844   2.839   5.114  2.6227  0.1585 -1.6661
   93SAPE  H13S 9178   5.938   2.928   5.235  1.5514 -1.0507 -0.9752
   93SAPE  C214 9179   5.919   3.023   5.043 -0.2863  0.4987 -0.8711
   93SAPE  H14R 9180   5.962   3.120   5.073  1.4689 -0.4550 -0.1210
   93SAPE  C215 9181   5.924   2.992   4.909 -0.3809 -0.1558  0.5093
   93SAPE  H15R 9182   5.988   3.059   4.849 -0.6590  1.2229  1.7127
   93SAPE  C216 9183   5.870   2.868   4.838  0.5388  0.2030 -0.4170
   93SAPE  H16R 9184   5.769   2.897   4.802  1.2355  2.0490 -1.0008
   93SAPE  H16S 9185   5.863   2.786   4.913  1.6574 -0.5592 -1.1208
   93SAPE  C217 9186   5.964   2.822   4.733 -0.0900  0.2118 -0.3864
   93SAPE  H17R 9187   5.950   2.713   4.718 -0.0756 -0.0308  1.1366
   93SAPE  H17S 9188   6.068   2.836   4.768 -0.3163  1.2158 -0.0801
   93SAPE  C218 9189   5.946   2.900   4.598  0.3703  0.4830 -0.4075
   93SAPE  H18R 9190   5.945   3.008   4.624 -2.3115 -0.2093  3.2691
   93SAPE  H18S 9191   5.845   2.874   4.559 -0.5161  2.1354  0.6547
   93SAPE  C219 9192   6.036   2.853   4.480  0.8268 -0.4487 -0.2307
   93SAPE  H19R 9193   6.022   2.744   4.462 -1.4328 -0.1463 -0.6549
   93SAPE  H19S 9194   6.141   2.877   4.507  0.1883  1.8299  0.4701
   93SAPE  C220 9195   6.005   2.936   4.356 -0.0831  0.0229  0.2620
   93SAPE  H20R 9196   5.984   3.042   4.382  0.9691  0.2907  0.0632
   93SAPE  H20S 9197   5.917   2.899   4.298  0.8429 -0.0839 -1.1043
   93SAPE  H20T 9198   6.089   2.928   4.284  0.8272  0.3686  1.2746
   93SAPE   C33 9199   5.142   2.473   5.817 -0.2159 -0.4082  0.3048
   93SAPE   H3X 9200   5.054   2.409   5.839  0.5085 -1.2159  0.9293
   93SAPE   H3Y 9201   5.220   2.395   5.803  1.1020  0.2778  3.1045
   93SAPE   C34 9202   5.134   2.548   5.690  0.5211  0.1182 -0.4643
   93SAPE   H4X 9203   5.230   2.600   5.667 -0.1615  1.2875 -0.7645
   93SAPE   H4Y 9204   5.059   2.629   5.697 -0.6063 -1.0163  1.0575
   93SAPE   C35 9205   5.090   2.471   5.567  0.0105  0.0672  0.2260
   93SAPE   H5X 9206   4.980   2.454   5.561 -0.0898  0.9869 -0.7766
   93SAPE   H5Y 9207   5.153   2.380   5.572  3.7119  2.4519  0.4164
   93SAPE   C36 9208   5.120   2.544   5.435 -0.0192  0.5025  0.1219
   93SAPE   H6X 9209   5.230   2.557   5.440  0.3482 -2.1805 -0.0317
   93SAPE   H6Y 9210   5.075   2.646   5.432 -0.7390  0.2307  1.4020
   93SAPE   C37 9211   5.077   2.461   5.313  0.5134  0.0913  0.3505
   93SAPE   H7X 9212   4.968   2.444   5.304  0.5537 -0.0222  0.0344
   93SAPE   H7Y 9213   5.120   2.359   5.316 -0.7783 -0.6705 -2.8108
   93SAPE   C38 9214   5.127   2.524   5.188 -0.0048  0.6570 -0.8155
   93SAPE   H8X 9215   5.235   2.500   5.189 -0.6820 -2.8436  0.1960
   93SAPE   H8Y 9216   5.128   2.635   5.201  2.1002  0.3790  2.4206
   93SAPE   C39 9217   5.052   2.473   5.062  0.1544 -0.2993  0.2996
   93SAPE   H9X 9218   4.952   2.521   5.051  0.6260  0.9027  1.0307
   93SAPE   H9Y 9219   5.037   2.363   5.065 -1.9232 -0.0902 -0.5750
   93SAPE  C310 9220   5.128   2.497   4.924  0.2868 -0.0476 -0.0377
   93SAPE  H10X 9221   5.223   2.440   4.936  0.1502 -0.7830 -2.1032
   93SAPE  H10Y 9222   5.159   2.603   4.912  1.9513 -0.5864 -0.8587
   93SAPE  C311 9223   5.046   2.453   4.798  0.1601  0.6680 -0.0050
   93SAPE  H11X 9224   4.950   2.508   4.787  0.0380  0.0578 -2.3438
   93SAPE  H11Y 9225   5.020   2.348   4.824  1.7158  0.2276 -0.1430
   93SAPE  C312 9226   5.120   2.470   4.668 -0.2910  0.2527 -0.5417
   93SAPE  H12X 9227   5.161   2.572   4.654  2.9271 -0.8959 -0.3489
   93SAPE  H12Y 9228   5.041   2.451   4.591 -1.5951 -0.0326  0.8079
   93SAPE  C313 9229   5.229   2.367   4.646  0.3161  0.0872 -0.0498
   93SAPE  H13X 9230   5.183   2.267   4.660  0.2497 -0.0497 -1.2247
   93SAPE  H13Y 9231   5.311   2.393   4.717 -0.3733  1.1431  0.4000
   93SAPE  C314 9232   5.273   2.359   4.502  0.0155  0.3911  0.1425
   93SAPE  H14X 9233   5.363   2.293   4.502 -0.2304 -0.0295 -1.9639
   93SAPE  H14Y 9234   5.314   2.456   4.467 -2.6748  2.7369  2.9811
   93SAPE  C315 9235   5.172   2.313   4.399 -0.7421  0.4444  0.2945
   93SAPE  H15X 9236   5.077   2.372   4.398  0.1540  2.0164 -1.7034
   93SAPE  H15Y 9237   5.136   2.211   4.423  0.0178  0.5465  2.0255
   93SAPE  C316 9238   5.225   2.318   4.252  0.9762 -0.4786  0.3661
   93SAPE  H16X 9239   5.246   2.423   4.224 -0.3614 -0.4159 -0.5023
   93SAPE  H16Y 9240   5.134   2.299   4.191 -0.4845  0.6409  2.0936
   93SAPE  C317 9241   5.348   2.229   4.229 -0.2741 -0.8027  0.1870
   93SAPE  H17X 9242   5.347   2.130   4.279  1.7588 -1.3177 -0.7205
   93SAPE  H17Y 9243   5.440   2.279   4.265 -1.6847  2.4161 -0.3227
   93SAPE  C318 9244   5.360   2.196   4.079  0.5406 -0.5910  0.6831
   93SAPE  H18X 9245   5.445   2.125   4.069 -0.4694 -1.9794  1.5793
   93SAPE  H18Y 9246   5.388   2.283   4.015 -2.9683 -0.2381 -0.6001
   93SAPE  H18Z 9247   5.287   2.125   4.034  0.2894  0.1011 -0.0293
   94SAPE     N 9248   4.066   4.536   6.657 -0.3980  0.6834  0.2501
   94SAPE   HN1 9249   4.086   4.553   6.556  0.7390  1.1322  0.5401
   94SAPE   HN2 9250   4.011   4.450   6.676  0.3854  0.5205  2.0164
   94SAPE   HN3 9251   4.019   4.624   6.686 -0.2729  1.0763 -0.6977
   94SAPE   C12 9252   4.194   4.525   6.728 -0.8038  0.4407 -0.1871
   94SAPE  H12A 9253   4.260   4.465   6.661  0.3490  3.1185 -1.5861
   94SAPE  H12B 9254   4.186   4.472   6.825 -1.4132  0.8634  0.0003
   94SAPE   C11 9255   4.272   4.654   6.752  0.0965  0.1937 -0.2059
   94SAPE  H11A 9256   4.377   4.619   6.758 -0.3789 -1.1747  0.4974
   94SAPE  H11B 9257   4.233   4.706   6.842  1.0630  0.0532  0.3168
   94SAPE     P 9258   4.316   4.880   6.634  0.0022 -0.5011  0.0815
   94SAPE   O13 9259   4.279   4.963   6.756  0.3784  0.5798  0.1905
   94SAPE   O14 9260   4.460   4.863   6.618 -0.3585 -0.6397  0.1197
   94SAPE   O12 9261   4.255   4.741   6.641  0.1034  0.4083  1.0993
   94SAPE   O11 9262   4.247   4.935   6.502 -0.4540  0.2696  0.1127
   94SAPE    C1 9263   4.258   4.858   6.382 -0.1069 -0.6961  0.3831
   94SAPE    HA 9264   4.265   4.749   6.402 -1.6218 -0.8739  0.1138
   94SAPE    HB 9265   4.165   4.870   6.321  0.2329  0.7314  0.1114
   94SAPE    C2 9266   4.388   4.919   6.301 -0.0046 -0.0436 -0.2046
   94SAPE    HS 9267   4.477   4.921   6.368  0.6270  0.4264 -1.0428
   94SAPE   O21 9268   4.364   5.054   6.257 -0.3646 -0.0865 -0.3159
   94SAPE   C21 9269   4.471   5.125   6.227 -0.3225  0.4099 -1.1360
   94SAPE   O22 9270   4.588   5.095   6.258 -0.1301  0.4246 -0.3389
   94SAPE   C22 9271   4.433   5.249   6.157 -1.0615 -0.4659  0.9420
   94SAPE   H2R 9272   4.326   5.274   6.172 -0.6971  0.0138  3.0465
   94SAPE   H2S 9273   4.494   5.333   6.197 -0.1486 -0.0550 -1.1961
   94SAPE    C3 9274   4.421   4.820   6.184  0.4285  0.2934 -0.9802
   94SAPE    HX 9275   4.328   4.811   6.123 -0.4520  1.5614  0.1090
   94SAPE    HY 9276   4.452   4.718   6.214  1.8724 -0.6195 -5.0034
   94SAPE   O31 9277   4.521   4.879   6.097  0.7259 -0.2724 -0.4314
   94SAPE   C31 9278   4.643   4.826   6.105 -0.6131  0.3677 -0.8467
   94SAPE   O32 9279   4.675   4.750   6.195 -0.1088 -0.1343 -0.2644
   94SAPE   C32 9280   4.741   4.883   5.999  0.0734  0.2342 -0.4381
   94SAPE   H2X 9281   4.822   4.811   5.975 -0.0996  0.1221 -0.6911
   94SAPE   H2Y 9282   4.784   4.977   6.037 -2.5492  0.7833  1.5094
   94SAPE   C23 9283   4.451   5.256   6.002  0.2310  0.0534 -0.1086
   94SAPE   H3R 9284   4.370   5.199   5.952 -0.0878  2.0187 -1.9424
   94SAPE   H3S 9285   4.549   5.209   5.975 -0.4917 -0.6019 -1.7056
   94SAPE   C24 9286   4.443   5.401   5.948 -0.4304 -0.4585  0.5556
   94SAPE   H4R 9287   4.460   5.392   5.839 -1.2756  1.8448  0.1734
   94SAPE   H4S 9288   4.521   5.476   5.974  0.1291 -0.3564 -1.2947
   94SAPE   C25 9289   4.304   5.459   5.962 -0.1353  0.1436 -0.2602
   94SAPE   H5R 9290   4.291   5.505   6.061  0.3041 -0.4269  0.0649
   94SAPE   C26 9291   4.205   5.461   5.871 -0.0034 -0.3867  0.3071
   94SAPE   H6R 9292   4.111   5.511   5.899  0.1669  0.6600 -0.8854
   94SAPE   C27 9293   4.200   5.397   5.741 -0.5288  1.4070  0.6405
   94SAPE   H7R 9294   4.279   5.319   5.742 -0.0580  1.8108 -1.3253
   94SAPE   H7S 9295   4.241   5.467   5.666  1.6508  0.0845  0.5164
   94SAPE   C28 9296   4.064   5.342   5.707 -0.1103  0.1120 -1.0501
   94SAPE   H8R 9297   4.026   5.264   5.775 -0.9638  0.2908 -1.3082
   94SAPE   C29 9298   3.981   5.373   5.599 -0.5981  0.2610 -0.1784
   94SAPE   H9R 9299   3.887   5.318   5.587 -0.5152  0.0413  0.1695
   94SAPE  C210 9300   4.017   5.473   5.491  0.3031 -0.1821 -0.0994
   94SAPE  H10R 9301   3.947   5.467   5.404  0.1134  0.7971 -0.0194
   94SAPE  H10S 9302   4.117   5.461   5.444  0.1970  2.0371 -0.9897
   94SAPE  C211 9303   4.020   5.617   5.549  0.4272 -0.1530  0.5149
   94SAPE  H11R 9304   4.084   5.633   5.636  0.9235 -0.8268  0.2824
   94SAPE  C212 9305   3.941   5.713   5.490  0.6305  0.4371 -0.3605
   94SAPE  H12R 9306   3.936   5.813   5.536 -0.6570  0.2911 -0.1244
   94SAPE  C213 9307   3.848   5.690   5.376  0.4892 -0.8656 -0.0356
   94SAPE  H13R 9308   3.806   5.588   5.368  2.1025 -1.6388  0.9388
   94SAPE  H13S 9309   3.899   5.707   5.278  0.4588 -3.5180 -0.5795
   94SAPE  C214 9310   3.728   5.786   5.398  0.3869  0.0966  0.4772
   94SAPE  H14R 9311   3.637   5.755   5.450 -1.6809 -0.4301 -3.1044
   94SAPE  C215 9312   3.723   5.905   5.330  0.4536 -0.1034  0.4313
   94SAPE  H15R 9313   3.643   5.976   5.354  0.8616  0.4377  0.2035
   94SAPE  C216 9314   3.819   5.956   5.226 -0.1340  0.2537  0.6000
   94SAPE  H16R 9315   3.919   5.907   5.224 -0.1266  0.2764 -1.0291
   94SAPE  H16S 9316   3.850   6.062   5.240  3.1369 -0.7217  1.7368
   94SAPE  C217 9317   3.759   5.921   5.085  0.6528 -0.0670  0.3102
   94SAPE  H17R 9318   3.664   5.979   5.081  0.5295 -0.3123 -0.4779
   94SAPE  H17S 9319   3.750   5.810   5.083  1.3755 -0.1296 -0.0795
   94SAPE  C218 9320   3.837   5.987   4.971 -1.0958 -0.0642 -0.2477
   94SAPE  H18R 9321   3.936   5.938   4.963 -0.7926  0.4507  0.3445
   94SAPE  H18S 9322   3.848   6.097   4.983 -1.3221  0.2042 -2.1488
   94SAPE  C219 9323   3.755   5.967   4.843  0.2744  0.3760 -0.1089
   94SAPE  H19R 9324   3.753   5.860   4.812  3.1885  0.3408 -0.4353
   94SAPE  H19S 9325   3.818   6.014   4.764  0.1313 -1.7808 -1.5932
   94SAPE  C220 9326   3.617   6.036   4.845 -0.0498 -0.3611 -0.6312
   94SAPE  H20R 9327   3.625   6.144   4.872 -4.3092  0.1356 -0.6233
   94SAPE  H20S 9328   3.551   5.977   4.912  0.8450  0.3404  0.9218
   94SAPE  H20T 9329   3.564   6.021   4.749 -2.2970 -1.3671  0.6835
   94SAPE   C33 9330   4.663   4.900   5.866  0.4831  0.2752 -0.0898
   94SAPE   H3X 9331   4.563   4.947   5.876  0.7531  0.9522 -0.4887
   94SAPE   H3Y 9332   4.646   4.799   5.822 -0.1026  1.0374 -1.6981
   94SAPE   C34 9333   4.736   4.988   5.768 -0.7651  0.2828  0.1556
   94SAPE   H4X 9334   4.835   4.943   5.747  0.0858  0.8087  2.7324
   94SAPE   H4Y 9335   4.752   5.080   5.827 -0.2612 -0.2842  0.9323
   94SAPE   C35 9336   4.669   5.018   5.635 -0.5646 -0.3912  0.0916
   94SAPE   H5X 9337   4.736   5.092   5.587 -2.1541  0.6484 -0.6195
   94SAPE   H5Y 9338   4.573   5.068   5.663  0.2415  0.9242  0.5692
   94SAPE   C36 9339   4.673   4.900   5.536 -0.3024  0.0038 -0.2188
   94SAPE   H6X 9340   4.597   4.821   5.553 -0.9453  0.7405  0.4265
   94SAPE   H6Y 9341   4.768   4.843   5.540  0.6716  1.6099  1.2253
   94SAPE   C37 9342   4.648   4.947   5.387 -1.1826 -0.2804  0.2071
   94SAPE   H7X 9343   4.738   5.008   5.363 -1.5886 -0.6470 -2.5750
   94SAPE   H7Y 9344   4.561   5.015   5.379 -0.7668  0.0964 -1.5683
   94SAPE   C38 9345   4.630   4.835   5.285  0.0621  0.2322 -0.1698
   94SAPE   H8X 9346   4.554   4.763   5.324  0.3036  1.0492  1.9393
   94SAPE   H8Y 9347   4.725   4.778   5.279  0.3351  0.7919 -1.2813
   94SAPE   C39 9348   4.589   4.895   5.148  0.0486  0.1931 -0.6460
   94SAPE   H9X 9349   4.678   4.946   5.105  0.1394  1.1476  0.6093
   94SAPE   H9Y 9350   4.513   4.974   5.164 -0.5964 -0.4855 -0.3080
   94SAPE  C310 9351   4.529   4.798   5.046  0.0873  0.4668 -0.0544
   94SAPE  H10X 9352   4.487   4.870   4.972 -0.6767 -0.9166 -1.0032
   94SAPE  H10Y 9353   4.440   4.741   5.079  1.0774 -2.5687 -2.2691
   94SAPE  C311 9354   4.635   4.709   4.974  0.7651  0.8368  0.4710
   94SAPE  H11X 9355   4.692   4.644   5.044 -0.1014  0.7031  1.0741
   94SAPE  H11Y 9356   4.717   4.766   4.926  0.7282  0.6614  0.1957
   94SAPE  C312 9357   4.578   4.619   4.854  0.0690  0.2228 -0.3650
   94SAPE  H12X 9358   4.525   4.532   4.897 -2.7975  0.4847 -2.9434
   94SAPE  H12Y 9359   4.666   4.568   4.810 -1.0115 -1.2158 -0.9439
   94SAPE  C313 9360   4.495   4.686   4.746 -0.5695  0.0110  0.6198
   94SAPE  H13X 9361   4.553   4.777   4.721  0.6271 -0.9503 -0.2547
   94SAPE  H13Y 9362   4.407   4.718   4.806 -0.4052 -0.7873  1.3038
   94SAPE  C314 9363   4.469   4.588   4.627  0.0709  0.2582 -0.6519
   94SAPE  H14X 9364   4.562   4.538   4.593 -1.1992 -2.3986 -0.5086
   94SAPE  H14Y 9365   4.431   4.637   4.535  0.7453  2.5375  0.2223
   94SAPE  C315 9366   4.371   4.480   4.662  0.3016 -0.1633  0.3137
   94SAPE  H15X 9367   4.269   4.522   4.671 -0.2455 -0.3753 -3.3429
   94SAPE  H15Y 9368   4.407   4.435   4.757  0.8806 -1.3760 -0.4547
   94SAPE  C316 9369   4.377   4.364   4.557  0.3821  0.0569 -0.6733
   94SAPE  H16X 9370   4.465   4.299   4.577 -0.4015 -0.5351  1.1001
   94SAPE  H16Y 9371   4.392   4.413   4.459  2.5515  2.1104  0.5707
   94SAPE  C317 9372   4.246   4.281   4.548 -0.9819 -0.1311  0.8398
   94SAPE  H17X 9373   4.262   4.211   4.463 -2.4932 -0.6598  0.9599
   94SAPE  H17Y 9374   4.156   4.344   4.529 -1.5439 -1.3956 -0.9518
   94SAPE  C318 9375   4.224   4.185   4.663  0.2821 -0.2560  0.3115
   94SAPE  H18X 9376   4.241   4.235   4.761  0.2208 -0.1639  0.2760
   94SAPE  H18Y 9377   4.294   4.100   4.653  1.0387  0.6543 -4.3395
   94SAPE  H18Z 9378   4.121   4.145   4.657  0.5234 -0.6515 -2.9244
   95SAPE     N 9379   2.009   4.538   6.583 -0.0998 -0.1417 -0.1136
   95SAPE   HN1 9380   2.105   4.562   6.551  0.4079  0.5095  1.7531
   95SAPE   HN2 9381   1.973   4.464   6.520 -2.4580 -1.0686  2.1800
   95SAPE   HN3 9382   1.942   4.616   6.573  0.1460 -0.1227 -1.9988
   95SAPE   C12 9383   2.020   4.503   6.729 -0.0011  0.4246  0.7661
   95SAPE  H12A 9384   1.915   4.495   6.766  0.3320 -3.2011  1.3281
   95SAPE  H12B 9385   2.064   4.588   6.785 -1.4232  1.3973  0.4688
   95SAPE   C11 9386   2.093   4.374   6.749  0.1570  0.0150 -0.2986
   95SAPE  H11A 9387   2.079   4.329   6.849 -1.2078  3.5733  1.2761
   95SAPE  H11B 9388   2.204   4.381   6.738  0.5131 -2.6276  0.8073
   95SAPE     P 9389   1.943   4.186   6.658  0.1154 -0.3412 -0.0235
   95SAPE   O13 9390   2.003   4.072   6.731  0.0202 -0.3363  0.2950
   95SAPE   O14 9391   1.832   4.256   6.716  0.3451 -0.0310  0.4088
   95SAPE   O12 9392   2.066   4.283   6.635 -0.4360 -0.1738 -0.6235
   95SAPE   O11 9393   1.911   4.129   6.523  0.7427 -0.0317 -0.1514
   95SAPE    C1 9394   2.010   4.089   6.425  0.0803 -0.0593 -1.0263
   95SAPE    HA 9395   2.093   4.044   6.483 -0.0587  1.0390  0.0490
   95SAPE    HB 9396   1.972   4.004   6.364  0.8956 -0.6427 -0.7375
   95SAPE    C2 9397   2.067   4.192   6.323  0.1491 -0.5804 -0.4245
   95SAPE    HS 9398   2.114   4.272   6.383 -0.1744 -0.6485 -0.0740
   95SAPE   O21 9399   1.974   4.240   6.228  0.3131 -0.3662  0.3283
   95SAPE   C21 9400   1.901   4.343   6.271  0.1958  0.1521  0.6001
   95SAPE   O22 9401   1.910   4.400   6.375 -0.1278  0.6957 -0.8723
   95SAPE   C22 9402   1.801   4.381   6.156 -0.3027 -0.0932 -0.4640
   95SAPE   H2R 9403   1.839   4.355   6.055 -2.5962 -0.5478 -1.2542
   95SAPE   H2S 9404   1.714   4.315   6.172 -0.6848  0.5270  0.0765
   95SAPE    C3 9405   2.192   4.148   6.244  0.6305  0.5257 -0.4577
   95SAPE    HX 9406   2.162   4.042   6.235 -0.3528  0.7838 -0.3639
   95SAPE    HY 9407   2.282   4.145   6.309  0.6427  0.1404 -0.4910
   95SAPE   O31 9408   2.214   4.222   6.124  0.3974  0.5330  0.6109
   95SAPE   C31 9409   2.303   4.323   6.131 -0.2819  0.2027  0.2816
   95SAPE   O32 9410   2.359   4.362   6.233 -0.3852 -0.2281 -0.3852
   95SAPE   C32 9411   2.324   4.395   6.010 -0.4616  0.5587  0.8704
   95SAPE   H2X 9412   2.302   4.334   5.920 -1.6079  0.8667  0.9307
   95SAPE   H2Y 9413   2.435   4.398   6.009 -0.3794 -0.3601 -2.1885
   95SAPE   C23 9414   1.750   4.527   6.160  0.4666  0.1760 -0.2250
   95SAPE   H3R 9415   1.833   4.589   6.119  0.8503 -0.0112  0.2490
   95SAPE   H3S 9416   1.740   4.559   6.266 -1.3243 -1.5774  0.1936
   95SAPE   C24 9417   1.623   4.543   6.083  0.2631  0.2783  0.5013
   95SAPE   H4R 9418   1.541   4.477   6.118  0.0615 -0.2977 -0.9915
   95SAPE   H4S 9419   1.639   4.509   5.979  0.6212 -1.8533  1.2094
   95SAPE   C25 9420   1.575   4.685   6.121 -0.2670 -0.1112  0.2919
   95SAPE   H5R 9421   1.567   4.715   6.227  0.4366  2.0170 -0.2083
   95SAPE   C26 9422   1.554   4.784   6.028  0.5470 -0.5735 -0.5658
   95SAPE   H6R 9423   1.534   4.884   6.069 -0.3237 -0.6906 -0.6953
   95SAPE   C27 9424   1.564   4.771   5.876  0.5536  0.0511  0.3502
   95SAPE   H7R 9425   1.522   4.675   5.839  0.9813  0.3834 -1.0524
   95SAPE   H7S 9426   1.672   4.759   5.856  0.6230  0.2963  0.5726
   95SAPE   C28 9427   1.509   4.888   5.799 -0.4693 -0.1457  0.2029
   95SAPE   H8R 9428   1.516   4.981   5.857 -1.1558  0.9146 -1.3492
   95SAPE   C29 9429   1.449   4.888   5.684 -0.1152  0.5237 -0.0638
   95SAPE   H9R 9430   1.423   4.985   5.639 -2.6959 -0.7964 -1.6825
   95SAPE  C210 9431   1.419   4.770   5.592 -0.0028 -0.1089 -0.3131
   95SAPE  H10R 9432   1.338   4.802   5.523  0.8407  3.3589  0.1384
   95SAPE  H10S 9433   1.381   4.690   5.659  0.4447 -0.4420 -0.4469
   95SAPE  C211 9434   1.546   4.722   5.530 -0.4572  0.0668 -0.0610
   95SAPE  H11R 9435   1.630   4.712   5.600 -0.8812  0.3761  0.4988
   95SAPE  C212 9436   1.555   4.687   5.400 -0.3780 -0.1142  0.3412
   95SAPE  H12R 9437   1.653   4.653   5.363 -0.2839  0.9457 -0.4363
   95SAPE  C213 9438   1.453   4.684   5.292  0.8625  0.0322  0.1249
   95SAPE  H13R 9439   1.466   4.768   5.220  2.1917 -0.0184  0.2886
   95SAPE  H13S 9440   1.350   4.702   5.328 -0.3296 -1.8717 -2.0273
   95SAPE  C214 9441   1.442   4.558   5.214  0.7512 -0.1830  0.6610
   95SAPE  H14R 9442   1.435   4.467   5.276 -0.7852  0.2492  1.1515
   95SAPE  C215 9443   1.441   4.555   5.079  0.1407  0.0881 -0.2321
   95SAPE  H15R 9444   1.411   4.467   5.020  0.7265 -0.3064  0.0550
   95SAPE  C216 9445   1.454   4.676   4.994 -0.3125 -0.6450  0.2223
   95SAPE  H16R 9446   1.548   4.730   5.018 -0.7609 -0.0684  0.7165
   95SAPE  H16S 9447   1.369   4.744   5.015 -0.6461 -1.5328  1.9427
   95SAPE  C217 9448   1.453   4.643   4.840  0.2950  0.8360 -0.2031
   95SAPE  H17R 9449   1.440   4.739   4.785  0.1234  1.6022  1.1330
   95SAPE  H17S 9450   1.351   4.602   4.821  0.5252 -0.3220  0.9072
   95SAPE  C218 9451   1.577   4.565   4.781 -0.6822 -0.2526 -0.2737
   95SAPE  H18R 9452   1.534   4.526   4.686 -1.2027 -1.9973  0.6346
   95SAPE  H18S 9453   1.587   4.476   4.847 -0.4041 -0.6437 -0.8405
   95SAPE  C219 9454   1.712   4.642   4.785 -0.6104  0.0144 -0.7110
   95SAPE  H19R 9455   1.735   4.667   4.891 -0.8819  4.1565 -1.4628
   95SAPE  H19S 9456   1.718   4.741   4.736  1.3794  1.0417  1.4074
   95SAPE  C220 9457   1.831   4.563   4.722  0.5048 -0.4692 -0.0368
   95SAPE  H20R 9458   1.930   4.612   4.736  1.0398 -1.0273 -1.6091
   95SAPE  H20S 9459   1.827   4.537   4.614  2.3962 -0.4158 -0.1597
   95SAPE  H20T 9460   1.832   4.473   4.786 -1.8808  0.1067  0.8920
   95SAPE   C33 9461   2.264   4.540   6.008  0.3190 -1.0510 -0.3224
   95SAPE   H3X 9462   2.324   4.603   5.939 -1.1057  1.1198  0.2999
   95SAPE   H3Y 9463   2.273   4.592   6.106  0.7721  1.0899 -1.4153
   95SAPE   C34 9464   2.114   4.552   5.964 -0.7495 -0.4153 -0.5038
   95SAPE   H4X 9465   2.078   4.657   5.974 -1.2706 -0.4827 -1.5963
   95SAPE   H4Y 9466   2.052   4.497   6.037  0.0300  0.4096  0.8189
   95SAPE   C35 9467   2.074   4.519   5.818  0.1088  0.0260 -0.0518
   95SAPE   H5X 9468   2.078   4.411   5.793 -0.8399  0.3395 -1.6784
   95SAPE   H5Y 9469   2.135   4.579   5.747  0.2088  0.0470  0.0526
   95SAPE   C36 9470   1.925   4.556   5.792 -0.2463 -0.3875  0.5217
   95SAPE   H6X 9471   1.920   4.662   5.826 -0.7088 -0.4967  0.7929
   95SAPE   H6Y 9472   1.871   4.478   5.848 -0.2159  0.0619  1.1904
   95SAPE   C37 9473   1.893   4.560   5.644 -0.1375 -0.3010  0.2183
   95SAPE   H7X 9474   1.967   4.621   5.587  0.5066 -0.7208  0.5934
   95SAPE   H7Y 9475   1.796   4.609   5.621 -0.1649 -1.0281 -1.4121
   95SAPE   C38 9476   1.890   4.422   5.590  0.8987  0.4030  0.1953
   95SAPE   H8X 9477   1.810   4.366   5.643  0.3491  0.8878 -0.1081
   95SAPE   H8Y 9478   1.983   4.365   5.610  0.9425 -0.1455 -1.3804
   95SAPE   C39 9479   1.862   4.421   5.436  0.3472  1.1535 -0.5020
   95SAPE   H9X 9480   1.943   4.486   5.395  1.0833  0.5262 -0.0830
   95SAPE   H9Y 9481   1.763   4.471   5.435  0.8436  2.4084  2.4281
   95SAPE  C310 9482   1.872   4.284   5.373 -0.0627 -0.2446 -0.5219
   95SAPE  H10X 9483   1.798   4.218   5.423  0.6928  0.8122  2.1633
   95SAPE  H10Y 9484   1.972   4.235   5.377  0.8010  1.3623 -1.4553
   95SAPE  C311 9485   1.825   4.285   5.231 -0.2334 -0.2281  0.2829
   95SAPE  H11X 9486   1.909   4.328   5.172 -0.1621 -2.3558 -1.3134
   95SAPE  H11Y 9487   1.740   4.355   5.216 -1.3084 -1.9399 -2.4360
   95SAPE  C312 9488   1.783   4.147   5.173 -0.0647  0.0988 -0.1749
   95SAPE  H12X 9489   1.710   4.116   5.250 -0.9572  2.3568 -0.0162
   95SAPE  H12Y 9490   1.873   4.084   5.159  0.6641  0.4216  2.4527
   95SAPE  C313 9491   1.698   4.155   5.043  0.5050  0.3425 -0.6725
   95SAPE  H13X 9492   1.606   4.213   5.061 -0.2483 -0.8085 -0.7232
   95SAPE  H13Y 9493   1.663   4.052   5.020 -0.1418  0.4803 -0.3215
   95SAPE  C314 9494   1.783   4.198   4.919  0.0472  0.9081  0.2027
   95SAPE  H14X 9495   1.873   4.134   4.908 -0.3032  0.2427  1.1645
   95SAPE  H14Y 9496   1.833   4.294   4.943  1.1388 -0.0712  2.0490
   95SAPE  C315 9497   1.708   4.203   4.782  0.1507  0.2532  0.8161
   95SAPE  H15X 9498   1.785   4.236   4.709 -1.1590 -1.1268 -1.2984
   95SAPE  H15Y 9499   1.627   4.279   4.788 -0.0045  0.1471  0.1617
   95SAPE  C316 9500   1.653   4.075   4.722  0.1249  0.1927  0.0603
   95SAPE  H16X 9501   1.572   4.035   4.786  1.0079 -0.5332  0.7585
   95SAPE  H16Y 9502   1.737   4.002   4.721 -0.3335 -0.3977  1.7401
   95SAPE  C317 9503   1.603   4.109   4.580  0.7021  0.1839  0.2800
   95SAPE  H17X 9504   1.684   4.152   4.518  1.7415 -0.5444  1.0951
   95SAPE  H17Y 9505   1.546   4.200   4.608  2.6831  0.7861  2.6780
   95SAPE  C318 9506   1.534   3.999   4.506  0.2021  0.1215 -0.3559
   95SAPE  H18X 9507   1.470   3.943   4.578  0.6364 -0.4607 -0.4166
   95SAPE  H18Y 9508   1.625   3.936   4.490  0.6696  0.4150  1.0029
   95SAPE  H18Z 9509   1.478   4.013   4.411  0.3004 -1.4922 -0.6862
   96SAPE     N 9510   2.443   6.288   6.574 -0.3473 -0.0485 -0.2470
   96SAPE   HN1 9511   2.375   6.355   6.534 -0.1112 -0.4403 -1.3513
   96SAPE   HN2 9512   2.413   6.208   6.634  1.0263  0.7935  1.6940
   96SAPE   HN3 9513   2.509   6.338   6.637 -0.4938 -1.8142  1.4237
   96SAPE   C12 9514   2.513   6.239   6.452 -0.1087  0.2545  0.5860
   96SAPE  H12A 9515   2.548   6.330   6.397  2.2848 -0.3379  1.0448
   96SAPE  H12B 9516   2.439   6.186   6.388  2.0648 -2.0982 -0.1393
   96SAPE   C11 9517   2.626   6.141   6.493  0.8524  0.2525 -0.7597
   96SAPE  H11A 9518   2.657   6.076   6.408 -0.9599 -1.4259 -0.2110
   96SAPE  H11B 9519   2.575   6.070   6.560 -0.0600  2.0919  0.5803
   96SAPE     P 9520   2.889   6.127   6.545 -0.4787  0.1887 -0.1609
   96SAPE   O13 9521   2.987   6.241   6.551  0.6472  0.1599  0.0813
   96SAPE   O14 9522   2.897   6.020   6.655 -0.0648 -0.2012  0.4424
   96SAPE   O12 9523   2.744   6.195   6.542  0.6419  0.3915  0.4864
   96SAPE   O11 9524   2.910   6.065   6.406  0.3251 -0.5958 -0.9285
   96SAPE    C1 9525   2.938   6.153   6.292 -0.1644  0.3532 -0.3632
   96SAPE    HA 9526   2.869   6.240   6.290 -1.3738 -0.5959 -2.1059
   96SAPE    HB 9527   3.044   6.185   6.302 -0.6600  1.9075  0.1300
   96SAPE    C2 9528   2.929   6.084   6.149 -0.1780 -0.1652 -0.4022
   96SAPE    HS 9529   3.012   6.011   6.146 -0.1238 -0.2491  1.6112
   96SAPE   O21 9530   2.940   6.172   6.039  0.4837 -0.1618  0.4674
   96SAPE   C21 9531   3.055   6.235   6.021 -0.1683  0.1985 -0.9239
   96SAPE   O22 9532   3.153   6.216   6.091  0.0294 -0.0133 -0.1120
   96SAPE   C22 9533   3.033   6.339   5.903 -0.5981  0.2418 -0.5539
   96SAPE   H2R 9534   3.118   6.329   5.832 -1.0051 -0.6220 -0.9348
   96SAPE   H2S 9535   2.939   6.308   5.854 -0.8292  0.3185 -0.1614
   96SAPE    C3 9536   2.805   5.993   6.128 -0.2388 -0.2098 -0.3527
   96SAPE    HX 9537   2.716   6.054   6.155 -1.7954 -1.8555 -1.5278
   96SAPE    HY 9538   2.807   5.905   6.195 -0.2794  0.3684  0.4175
   96SAPE   O31 9539   2.793   5.939   5.992  0.0369 -0.3802 -0.2210
   96SAPE   C31 9540   2.674   5.897   5.946  0.4682 -0.3866 -0.7253
   96SAPE   O32 9541   2.573   5.882   6.010  0.2289 -0.8186 -0.2623
   96SAPE   C32 9542   2.689   5.861   5.793 -0.2394 -0.3252  0.0386
   96SAPE   H2X 9543   2.585   5.855   5.757 -1.0237 -1.4885  2.3003
   96SAPE   H2Y 9544   2.737   5.763   5.772 -1.9950 -0.9489 -1.3024
   96SAPE   C23 9545   3.011   6.481   5.957 -0.2804 -0.4193  0.0902
   96SAPE   H3R 9546   3.091   6.510   6.029 -1.5158 -1.2926  1.8895
   96SAPE   H3S 9547   2.916   6.480   6.014 -0.4157  1.9385 -0.0253
   96SAPE   C24 9548   3.003   6.591   5.845  0.3154  0.0519 -0.7979
   96SAPE   H4R 9549   3.102   6.597   5.795  0.0273  0.0990 -1.3782
   96SAPE   H4S 9550   2.993   6.685   5.904  1.0967 -1.5391  2.0743
   96SAPE   C25 9551   2.890   6.567   5.751  1.2194 -0.2784 -0.4132
   96SAPE   H5R 9552   2.795   6.570   5.806  0.0164  1.7415 -2.4004
   96SAPE   C26 9553   2.890   6.526   5.624  0.2195  0.2856 -0.1871
   96SAPE   H6R 9554   2.797   6.519   5.566  1.5415  0.4411 -2.4287
   96SAPE   C27 9555   3.011   6.501   5.540  0.6669  0.1627  0.1899
   96SAPE   H7R 9556   2.991   6.410   5.481  0.8071 -0.0980  0.5403
   96SAPE   H7S 9557   3.094   6.485   5.613  1.5491  2.1496 -0.3170
   96SAPE   C28 9558   3.045   6.620   5.464  0.1170  0.0181  0.4096
   96SAPE   H8R 9559   3.097   6.697   5.523  0.0040  0.0405  0.4792
   96SAPE   C29 9560   3.028   6.632   5.328  0.2017  1.3558  0.1428
   96SAPE   H9R 9561   3.058   6.721   5.271  2.9411 -0.3775 -1.2970
   96SAPE  C210 9562   2.975   6.519   5.240 -0.2141  0.6869 -0.0536
   96SAPE  H10R 9563   2.881   6.481   5.286 -0.2156 -0.7324 -1.1771
   96SAPE  H10S 9564   3.054   6.442   5.239 -1.7554 -0.9446 -0.5866
   96SAPE  C211 9565   2.945   6.565   5.100 -0.0426  0.3483  0.9560
   96SAPE  H11R 9566   2.857   6.630   5.098  0.2410  0.7500  1.2761
   96SAPE  C212 9567   3.007   6.526   4.989  0.6200 -0.1504 -0.2581
   96SAPE  H12R 9568   2.965   6.556   4.892  1.1567 -0.6719 -0.6561
   96SAPE  C213 9569   3.118   6.429   4.975 -0.6639 -0.1654  0.0747
   96SAPE  H13R 9570   3.078   6.333   4.937 -3.1324  2.0297 -3.4663
   96SAPE  H13S 9571   3.159   6.397   5.073  1.7450 -1.9841 -1.4107
   96SAPE  C214 9572   3.246   6.466   4.901  0.4955 -0.5853 -0.0320
   96SAPE  H14R 9573   3.271   6.573   4.910 -0.9433 -0.1737 -0.7192
   96SAPE  C215 9574   3.317   6.394   4.815 -0.5866  0.6115 -0.2384
   96SAPE  H15R 9575   3.406   6.435   4.764  0.9573 -3.7085 -1.4795
   96SAPE  C216 9576   3.304   6.246   4.771  0.3545 -0.8817 -1.0440
   96SAPE  H16R 9577   3.225   6.197   4.833 -0.3455  0.9919 -0.3688
   96SAPE  H16S 9578   3.400   6.191   4.781 -0.6088 -2.4205  0.2429
   96SAPE  C217 9579   3.254   6.235   4.622  0.2982  0.2997  0.3800
   96SAPE  H17R 9580   3.264   6.127   4.596 -0.3964  0.9401 -2.8448
   96SAPE  H17S 9581   3.330   6.273   4.550  0.7486  0.2378  0.8074
   96SAPE  C218 9582   3.111   6.286   4.593 -0.1984  0.2428  1.0189
   96SAPE  H18R 9583   3.108   6.316   4.486  2.0966 -0.5657  0.6676
   96SAPE  H18S 9584   3.091   6.366   4.668 -2.8594  0.2172  0.4386
   96SAPE  C219 9585   2.999   6.179   4.600 -0.9357 -0.0121  0.1901
   96SAPE  H19R 9586   2.970   6.157   4.705 -2.4104  1.1140  0.0457
   96SAPE  H19S 9587   3.028   6.084   4.550 -2.3616  0.7988 -2.3428
   96SAPE  C220 9588   2.875   6.237   4.533 -0.2513  0.6893 -0.3189
   96SAPE  H20R 9589   2.861   6.338   4.579 -0.1714  1.5116 -2.0272
   96SAPE  H20S 9590   2.786   6.171   4.532  1.0250 -1.1859  1.2063
   96SAPE  H20T 9591   2.900   6.255   4.426  0.2751 -0.1936 -0.3497
   96SAPE   C33 9592   2.753   5.981   5.716  0.5103  0.5568  0.8906
   96SAPE   H3X 9593   2.863   5.978   5.732  0.8434  2.0003 -0.7066
   96SAPE   H3Y 9594   2.720   6.077   5.762  0.2713  0.5161  0.8049
   96SAPE   C34 9595   2.719   5.970   5.569  0.0672 -0.1509  0.4490
   96SAPE   H4X 9596   2.618   6.005   5.539  0.7746 -0.8936 -3.3104
   96SAPE   H4Y 9597   2.732   5.867   5.531  0.0169 -0.1079  0.3145
   96SAPE   C35 9598   2.805   6.060   5.478 -0.1540  0.1827 -0.6052
   96SAPE   H5X 9599   2.905   6.017   5.501 -0.1605  0.3854 -0.1767
   96SAPE   H5Y 9600   2.810   6.166   5.513  2.2391 -0.9825  3.2031
   96SAPE   C36 9601   2.774   6.049   5.325  0.7863 -0.3070 -0.0140
   96SAPE   H6X 9602   2.667   6.045   5.297  1.0300  1.4842 -1.3498
   96SAPE   H6Y 9603   2.829   5.955   5.303 -2.0155 -2.0140 -0.1826
   96SAPE   C37 9604   2.830   6.177   5.257 -0.1186  0.2036 -0.1083
   96SAPE   H7X 9605   2.926   6.201   5.309 -0.1517  2.7656 -1.0403
   96SAPE   H7Y 9606   2.767   6.267   5.276  0.8208  1.5672 -2.8314
   96SAPE   C38 9607   2.851   6.148   5.106 -0.9559  0.2937  0.2872
   96SAPE   H8X 9608   2.949   6.099   5.089 -0.5160  0.5020  2.0872
   96SAPE   H8Y 9609   2.859   6.244   5.050 -0.0009 -0.9532 -1.8266
   96SAPE   C39 9610   2.734   6.076   5.039  0.0174  1.0641 -0.5551
   96SAPE   H9X 9611   2.648   6.147   5.037 -0.1272  0.8837 -0.7609
   96SAPE   H9Y 9612   2.701   5.980   5.083  0.6732  0.6596 -0.9209
   96SAPE  C310 9613   2.761   6.041   4.890  0.4109 -0.2012  0.1341
   96SAPE  H10X 9614   2.866   6.007   4.876  0.1669 -0.1410 -2.1000
   96SAPE  H10Y 9615   2.740   6.127   4.824 -0.5437 -0.0929  0.5604
   96SAPE  C311 9616   2.669   5.933   4.843 -0.5186  0.4773  0.2029
   96SAPE  H11X 9617   2.565   5.961   4.871 -1.4096 -1.5293 -0.8901
   96SAPE  H11Y 9618   2.683   5.838   4.899 -0.4071  0.0328 -0.5591
   96SAPE  C312 9619   2.661   5.922   4.692  0.6770  0.1025 -0.4902
   96SAPE  H12X 9620   2.632   6.019   4.647  1.1701 -0.2840 -1.6933
   96SAPE  H12Y 9621   2.570   5.860   4.675  0.4571  0.1331  0.5284
   96SAPE  C313 9622   2.783   5.871   4.618  0.0323  0.0445 -0.6286
   96SAPE  H13X 9623   2.826   5.787   4.677  0.5451  0.9924  0.3770
   96SAPE  H13Y 9624   2.866   5.945   4.624 -0.6736  0.7273  1.5850
   96SAPE  C314 9625   2.743   5.830   4.472  0.9746  0.3636  0.6510
   96SAPE  H14X 9626   2.836   5.834   4.410  0.1509  0.3967 -0.6223
   96SAPE  H14Y 9627   2.682   5.912   4.429 -0.1192 -0.7518  0.0022
   96SAPE  C315 9628   2.663   5.696   4.451 -0.4206  0.0259  0.0506
   96SAPE  H15X 9629   2.571   5.698   4.514  1.0336  1.2225  2.2710
   96SAPE  H15Y 9630   2.738   5.623   4.488 -0.4682 -0.3384 -0.5521
   96SAPE  C316 9631   2.632   5.668   4.307  0.6088  0.0309 -0.6325
   96SAPE  H16X 9632   2.592   5.760   4.258 -2.0280 -0.7481 -0.1419
   96SAPE  H16Y 9633   2.553   5.590   4.304 -0.0271  0.6731 -0.9605
   96SAPE  C317 9634   2.741   5.602   4.234 -0.2495  0.1322 -0.8102
   96SAPE  H17X 9635   2.756   5.500   4.275 -1.9083 -0.4876 -1.6532
   96SAPE  H17Y 9636   2.827   5.672   4.238 -0.7846  0.8043 -0.9738
   96SAPE  C318 9637   2.708   5.584   4.085  0.6941  0.2783  0.2894
   96SAPE  H18X 9638   2.804   5.560   4.034 -0.3422  0.9028 -2.0564
   96SAPE  H18Y 9639   2.674   5.678   4.035 -0.2741 -0.2371 -0.0347
   96SAPE  H18Z 9640   2.633   5.503   4.078  0.3574  0.6122  0.0146
   97SAPE     N 9641   4.071   6.466   6.599  0.3819 -0.9064 -0.1105
   97SAPE   HN1 9642   3.969   6.476   6.615  0.7235  0.9410  1.2191
   97SAPE   HN2 9643   4.092   6.427   6.505  0.8490  0.6624 -0.6943
   97SAPE   HN3 9644   4.121   6.416   6.676 -1.3643 -1.1461  0.9339
   97SAPE   C12 9645   4.127   6.606   6.584  1.3304 -0.0611 -0.6584
   97SAPE  H12A 9646   4.213   6.591   6.515  1.8976  0.6362 -0.1242
   97SAPE  H12B 9647   4.176   6.638   6.679  1.2280  1.4202 -1.0766
   97SAPE   C11 9648   4.019   6.708   6.533 -0.3403 -0.0753  0.2100
   97SAPE  H11A 9649   3.951   6.647   6.470  2.4324 -2.7243 -0.4904
   97SAPE  H11B 9650   4.070   6.784   6.471 -0.6434 -0.7752 -0.9274
   97SAPE     P 9651   3.993   6.898   6.722  0.2851  0.1919  0.1502
   97SAPE   O13 9652   3.867   6.968   6.751  0.2201  0.1482  0.0668
   97SAPE   O14 9653   4.073   6.847   6.837  0.4617 -0.2643  0.0387
   97SAPE   O12 9654   3.950   6.771   6.645  0.1206 -0.0747  0.3594
   97SAPE   O11 9655   4.081   6.972   6.619  0.0534 -0.1262 -0.1597
   97SAPE    C1 9656   4.123   7.109   6.621  0.5254 -0.3825 -0.1741
   97SAPE    HA 9657   4.104   7.157   6.720  0.0704 -0.4152 -0.2397
   97SAPE    HB 9658   4.233   7.114   6.609  0.6531 -0.6600  0.8161
   97SAPE    C2 9659   4.052   7.196   6.509 -0.2725  0.6743 -0.1852
   97SAPE    HS 9660   3.949   7.213   6.545 -0.3477 -2.2018  1.2040
   97SAPE   O21 9661   4.058   7.126   6.381  0.4163 -0.0816  0.2768
   97SAPE   C21 9662   3.953   7.059   6.347  0.3750  0.5368  0.6685
   97SAPE   O22 9663   3.848   7.067   6.409 -0.2748 -0.0930 -0.3949
   97SAPE   C22 9664   3.985   6.961   6.234  0.3801 -0.3602  0.0884
   97SAPE   H2R 9665   4.039   7.024   6.160 -1.8216 -0.8112 -1.9986
   97SAPE   H2S 9666   4.060   6.889   6.275  0.9962 -0.5727 -1.3505
   97SAPE    C3 9667   4.144   7.324   6.501  0.2029 -0.3909 -0.2638
   97SAPE    HX 9668   4.246   7.281   6.488 -0.4121 -2.2054  0.5718
   97SAPE    HY 9669   4.147   7.379   6.598  0.3420  2.7295 -1.9120
   97SAPE   O31 9670   4.108   7.419   6.401 -0.0140  0.1140 -0.5092
   97SAPE   C31 9671   4.176   7.541   6.416  0.1894  0.0267 -0.2112
   97SAPE   O32 9672   4.272   7.551   6.492  0.1939 -0.0541 -0.0974
   97SAPE   C32 9673   4.102   7.656   6.340 -0.0132 -0.0469  0.3731
   97SAPE   H2X 9674   4.167   7.746   6.345 -0.2301  0.0593  1.7070
   97SAPE   H2Y 9675   4.008   7.669   6.398  0.7284  0.6823  1.4464
   97SAPE   C23 9676   3.865   6.895   6.174 -0.4917  0.5029  0.9458
   97SAPE   H3R 9677   3.799   6.965   6.119 -0.8382 -0.0300  0.6800
   97SAPE   H3S 9678   3.809   6.850   6.259 -3.0562  0.8258 -0.4688
   97SAPE   C24 9679   3.909   6.786   6.062  0.0780 -0.3230 -0.2842
   97SAPE   H4R 9680   4.000   6.735   6.101 -1.3957 -1.1276  2.2744
   97SAPE   H4S 9681   3.944   6.853   5.980 -0.7940  0.3999 -0.0746
   97SAPE   C25 9682   3.808   6.690   6.015  0.7207 -0.1182 -0.0375
   97SAPE   H5R 9683   3.755   6.625   6.087  2.1876 -0.5524  0.6865
   97SAPE   C26 9684   3.765   6.671   5.884  0.1148  0.1827  0.4009
   97SAPE   H6R 9685   3.705   6.583   5.856 -0.2578  0.2708  0.9032
   97SAPE   C27 9686   3.821   6.755   5.772  0.9899 -0.1944 -0.0822
   97SAPE   H7R 9687   3.829   6.699   5.677  0.3910 -2.0439  0.9154
   97SAPE   H7S 9688   3.928   6.779   5.791  1.4401 -0.6828 -1.8123
   97SAPE   C28 9689   3.738   6.886   5.748 -0.3157 -0.3461  0.1772
   97SAPE   H8R 9690   3.686   6.928   5.835  0.7170 -1.8080  1.5487
   97SAPE   C29 9691   3.738   6.956   5.629 -0.1247 -0.5075 -0.0752
   97SAPE   H9R 9692   3.677   7.047   5.641  0.0186 -0.6507  2.0308
   97SAPE  C210 9693   3.810   6.938   5.498 -0.0948 -0.1581 -1.1011
   97SAPE  H10R 9694   3.878   6.851   5.512  0.4874  0.5646  0.9418
   97SAPE  H10S 9695   3.872   7.030   5.494 -0.4359  0.2821  1.5221
   97SAPE  C211 9696   3.720   6.918   5.375  0.2667 -0.0386  0.2707
   97SAPE  H11R 9697   3.610   6.911   5.382  0.0106 -2.1282 -3.4566
   97SAPE  C212 9698   3.767   6.937   5.251  0.1124 -0.9059 -0.3343
   97SAPE  H12R 9699   3.704   6.935   5.161 -0.3233  0.7125 -0.1061
   97SAPE  C213 9700   3.914   6.964   5.210  0.0639  0.1673  0.1780
   97SAPE  H13R 9701   3.925   6.902   5.118 -1.7930 -1.8599  1.2317
   97SAPE  H13S 9702   3.984   6.915   5.282 -0.9486 -0.8037  0.5386
   97SAPE  C214 9703   3.961   7.109   5.207  0.0643 -0.1645  0.4805
   97SAPE  H14R 9704   3.943   7.169   5.297 -1.7676 -0.1932  0.1708
   97SAPE  C215 9705   4.022   7.163   5.104  0.0410 -0.6225 -0.0551
   97SAPE  H15R 9706   4.034   7.272   5.105 -2.3164 -0.2966 -1.0438
   97SAPE  C216 9707   4.048   7.092   4.971 -0.7826 -0.4324 -0.1897
   97SAPE  H16R 9708   3.973   7.013   4.951 -1.2519  0.1328 -0.7254
   97SAPE  H16S 9709   4.151   7.050   4.961 -0.0621  0.8423  1.4049
   97SAPE  C217 9710   4.027   7.193   4.850  0.2929 -0.3415 -0.0436
   97SAPE  H17R 9711   3.928   7.241   4.865 -0.2511 -1.3981 -0.1772
   97SAPE  H17S 9712   4.024   7.141   4.752  0.2968  1.1487 -0.8655
   97SAPE  C218 9713   4.119   7.307   4.827 -0.5967  0.4833 -0.3232
   97SAPE  H18R 9714   4.145   7.360   4.921 -1.4285  1.1842 -0.4731
   97SAPE  H18S 9715   4.078   7.394   4.770 -1.9874  2.1056  2.8952
   97SAPE  C219 9716   4.251   7.263   4.757  0.4763  0.0150  0.7051
   97SAPE  H19R 9717   4.221   7.237   4.653  0.2379  0.2375  0.7174
   97SAPE  H19S 9718   4.295   7.170   4.800 -0.8519 -0.7270  0.5057
   97SAPE  C220 9719   4.351   7.380   4.738  0.0459  0.5886  0.4066
   97SAPE  H20R 9720   4.420   7.399   4.823 -0.7750  1.4126  0.9028
   97SAPE  H20S 9721   4.281   7.465   4.723 -0.9502 -0.1663  0.6554
   97SAPE  H20T 9722   4.406   7.367   4.643 -0.5251  0.1637  0.1310
   97SAPE   C33 9723   4.088   7.612   6.189 -0.0168  0.3438  0.5086
   97SAPE   H3X 9724   4.048   7.509   6.195  0.0834  0.2643 -0.1369
   97SAPE   H3Y 9725   4.194   7.618   6.154 -0.5120  0.0949 -1.1087
   97SAPE   C34 9726   4.003   7.713   6.120  0.2423  0.7345  0.0817
   97SAPE   H4X 9727   4.016   7.818   6.153 -1.2675  1.0781 -0.3185
   97SAPE   H4Y 9728   3.899   7.682   6.144  0.5442 -1.2998 -0.9526
   97SAPE   C35 9729   4.030   7.715   5.973 -0.0652 -0.1827 -0.0107
   97SAPE   H5X 9730   4.015   7.610   5.940  0.7778  0.1546 -1.5371
   97SAPE   H5Y 9731   4.129   7.748   5.937 -0.3909 -0.5176 -1.2542
   97SAPE   C36 9732   3.932   7.808   5.900 -0.2286  0.1899 -0.6554
   97SAPE   H6X 9733   3.946   7.908   5.947  0.3918 -0.4459  0.5418
   97SAPE   H6Y 9734   3.829   7.778   5.927  0.4566 -0.0056  1.9588
   97SAPE   C37 9735   3.950   7.811   5.748 -0.4276  0.3086  0.0286
   97SAPE   H7X 9736   3.927   7.711   5.704  0.5630  0.7483 -1.5888
   97SAPE   H7Y 9737   4.057   7.825   5.720 -0.2281 -1.1981 -0.0939
   97SAPE   C38 9738   3.878   7.935   5.690  0.6250 -0.6042 -0.8128
   97SAPE   H8X 9739   3.880   8.015   5.767  1.8800 -1.5763  0.2284
   97SAPE   H8Y 9740   3.771   7.910   5.676  0.4547 -0.8531  0.7446
   97SAPE   C39 9741   3.935   7.988   5.559 -0.2002  0.8395 -0.2827
   97SAPE   H9X 9742   4.045   7.971   5.560  0.1511  2.8570 -0.2799
   97SAPE   H9Y 9743   3.924   8.095   5.530  0.5903  1.0922  0.3256
   97SAPE  C310 9744   3.892   7.892   5.439 -0.1117 -0.3506 -0.3286
   97SAPE  H10X 9745   3.784   7.887   5.416 -1.0897 -1.7121  3.7754
   97SAPE  H10Y 9746   3.914   7.785   5.459 -0.3622 -0.4290 -0.4684
   97SAPE  C311 9747   3.958   7.936   5.307  0.4565 -0.5091 -0.5166
   97SAPE  H11X 9748   4.065   7.908   5.303  0.0666 -2.5185  1.1354
   97SAPE  H11Y 9749   3.949   8.046   5.311  0.2079 -0.4748 -1.5783
   97SAPE  C312 9750   3.892   7.882   5.181 -0.4411 -0.1310  0.6122
   97SAPE  H12X 9751   3.792   7.928   5.160 -1.4677 -3.0120 -1.3601
   97SAPE  H12Y 9752   3.875   7.772   5.189 -2.2461  0.0026 -0.5946
   97SAPE  C313 9753   3.984   7.902   5.056 -0.2870 -0.0438  0.2406
   97SAPE  H13X 9754   4.077   7.848   5.082 -0.4182 -1.2443 -1.5863
   97SAPE  H13Y 9755   3.998   8.011   5.038 -2.3470  0.1507 -0.4719
   97SAPE  C314 9756   3.930   7.834   4.926  0.6917  0.2859  0.4136
   97SAPE  H14X 9757   3.829   7.873   4.906  0.3938 -1.1743 -1.1189
   97SAPE  H14Y 9758   3.917   7.724   4.937  1.0729 -0.1369 -2.6404
   97SAPE  C315 9759   4.022   7.869   4.802  0.1371 -0.8501 -0.0825
   97SAPE  H15X 9760   4.125   7.837   4.829  0.1624 -0.0936  0.7831
   97SAPE  H15Y 9761   4.022   7.978   4.783  2.0124 -0.5575  1.2137
   97SAPE  C316 9762   3.975   7.798   4.675  0.0527 -0.8374  0.0744
   97SAPE  H16X 9763   3.876   7.839   4.646 -0.0693 -0.8121  0.5118
   97SAPE  H16Y 9764   3.943   7.695   4.702  0.3905 -0.7500  0.8342
   97SAPE  C317 9765   4.071   7.808   4.564 -0.0593  0.6850  0.6743
   97SAPE  H17X 9766   4.175   7.780   4.590  0.3532  1.8425  0.3519
   97SAPE  H17Y 9767   4.086   7.910   4.522  2.0646  0.4621  0.7503
   97SAPE  C318 9768   4.031   7.719   4.440 -0.8212 -0.0761 -0.6546
   97SAPE  H18X 9769   3.998   7.630   4.497  3.3853 -0.7006  1.1981
   97SAPE  H18Y 9770   4.118   7.692   4.377  0.6301  1.5022  0.5819
   97SAPE  H18Z 9771   3.954   7.772   4.379 -0.2931  0.4958 -0.8318
   98SAPE     N 9772   2.896   2.285   6.638 -0.5630  0.1576  0.0834
   98SAPE   HN1 9773   2.917   2.386   6.622 -1.1559 -0.0479 -2.3685
   98SAPE   HN2 9774   2.797   2.274   6.608 -0.1972  0.5329 -1.3463
   98SAPE   HN3 9775   2.902   2.263   6.739 -0.7382  0.9200  0.2659
   98SAPE   C12 9776   2.983   2.206   6.547 -0.0223  0.8192 -0.5039
   98SAPE  H12A 9777   3.078   2.264   6.544  0.5318  0.0055  0.6088
   98SAPE  H12B 9778   2.923   2.200   6.454 -1.7780  1.5117  0.5356
   98SAPE   C11 9779   3.026   2.068   6.607  0.1350  0.2245  0.2546
   98SAPE  H11A 9780   3.096   2.014   6.540 -0.2149 -1.2838  1.0557
   98SAPE  H11B 9781   2.936   2.004   6.613 -0.3549  0.8592 -0.2023
   98SAPE     P 9782   3.142   1.964   6.808  0.5559  0.1284  0.8036
   98SAPE   O13 9783   3.210   2.006   6.934  0.1770  0.7482  0.6849
   98SAPE   O14 9784   3.035   1.860   6.820  0.2967  0.1797  0.1135
   98SAPE   O12 9785   3.080   2.095   6.738  0.4356 -0.3848  0.2724
   98SAPE   O11 9786   3.250   1.913   6.711 -0.8310 -0.2921 -0.0300
   98SAPE    C1 9787   3.353   1.998   6.673 -0.1639 -0.5592 -0.1658
   98SAPE    HA 9788   3.320   2.100   6.646 -1.6667 -0.3151  2.2863
   98SAPE    HB 9789   3.426   2.012   6.756  2.1310  0.8487 -2.2527
   98SAPE    C2 9790   3.433   1.937   6.556  0.1372  0.3272  0.1162
   98SAPE    HS 9791   3.529   1.993   6.548 -0.7846  1.8640 -0.3653
   98SAPE   O21 9792   3.364   1.958   6.434  0.5703  0.6311 -0.3148
   98SAPE   C21 9793   3.426   1.996   6.324  0.0850 -0.0165 -0.0911
   98SAPE   O22 9794   3.542   2.032   6.325  0.1128 -0.1515 -0.1192
   98SAPE   C22 9795   3.341   1.959   6.209  0.5503  0.1769  0.0279
   98SAPE   H2R 9796   3.345   1.849   6.196  3.3689  0.3977 -1.7407
   98SAPE   H2S 9797   3.237   1.988   6.237 -0.1916 -0.3044 -2.0235
   98SAPE    C3 9798   3.466   1.783   6.583  0.0971 -0.4170 -0.5590
   98SAPE    HX 9799   3.367   1.733   6.587 -0.5039  0.5301 -2.2851
   98SAPE    HY 9800   3.503   1.760   6.685  0.6373 -5.4975 -1.6353
   98SAPE   O31 9801   3.538   1.721   6.473  0.1657  0.0402 -0.0445
   98SAPE   C31 9802   3.662   1.758   6.476  0.2739  0.0382  0.1199
   98SAPE   O32 9803   3.716   1.831   6.558  0.2391  0.7843  0.0136
   98SAPE   C32 9804   3.737   1.721   6.344  0.1341 -0.7511 -0.5343
   98SAPE   H2X 9805   3.727   1.817   6.289 -2.2452 -0.9268 -0.4895
   98SAPE   H2Y 9806   3.687   1.634   6.296 -1.5409 -0.7885  1.1516
   98SAPE   C23 9807   3.396   2.018   6.081  0.6023 -0.2725  0.1021
   98SAPE   H3R 9808   3.436   2.122   6.087 -0.7852  0.4148 -1.5914
   98SAPE   H3S 9809   3.313   2.011   6.007  1.6194 -2.5572 -0.9222
   98SAPE   C24 9810   3.508   1.927   6.022 -0.1185 -0.4572  0.6383
   98SAPE   H4R 9811   3.455   1.837   5.985  0.7579 -0.3535 -0.9648
   98SAPE   H4S 9812   3.568   1.891   6.108 -0.8371 -1.9810  0.5446
   98SAPE   C25 9813   3.599   1.992   5.921  0.6322  0.4554  0.4732
   98SAPE   H5R 9814   3.680   2.046   5.972  1.9440 -0.2483 -0.8108
   98SAPE   C26 9815   3.598   1.969   5.786 -0.4304 -0.3231  0.1602
   98SAPE   H6R 9816   3.690   1.999   5.733 -0.2137 -0.6633  0.3381
   98SAPE   C27 9817   3.513   1.884   5.702  0.4714  1.0860  0.2409
   98SAPE   H7R 9818   3.457   1.809   5.763  0.1902  0.4607 -0.7727
   98SAPE   H7S 9819   3.586   1.824   5.644  1.3675  1.5812  0.8330
   98SAPE   C28 9820   3.416   1.983   5.635  0.9313  0.1083 -0.8241
   98SAPE   H8R 9821   3.357   2.055   5.694 -0.1834 -2.6368  1.6504
   98SAPE   C29 9822   3.381   1.976   5.504  0.1176  0.6763  0.0874
   98SAPE   H9R 9823   3.311   2.048   5.459  0.5816 -0.4510 -2.5823
   98SAPE  C210 9824   3.434   1.883   5.399  0.4331 -0.1467  0.7791
   98SAPE  H10R 9825   3.347   1.833   5.351 -1.1672  1.4139  1.9308
   98SAPE  H10S 9826   3.514   1.821   5.444  2.1172  1.2526 -0.1334
   98SAPE  C211 9827   3.501   1.955   5.288  0.0428 -0.0344 -0.0900
   98SAPE  H11R 9828   3.559   2.042   5.322  0.3767 -0.0308 -0.6500
   98SAPE  C212 9829   3.481   1.930   5.157  0.4398  0.3005 -0.1529
   98SAPE  H12R 9830   3.526   2.004   5.089  0.7070 -0.2601 -0.5972
   98SAPE  C213 9831   3.397   1.826   5.092  0.4291  0.0043  0.1163
   98SAPE  H13R 9832   3.347   1.761   5.166 -1.6600  0.9262 -0.3809
   98SAPE  H13S 9833   3.470   1.766   5.033 -0.1024  0.0922 -0.6507
   98SAPE  C214 9834   3.296   1.888   4.999  0.2113  0.6042  0.5815
   98SAPE  H14R 9835   3.202   1.922   5.046  0.6136  0.2320  1.7079
   98SAPE  C215 9836   3.296   1.879   4.867  0.1454 -0.3170 -0.2471
   98SAPE  H15R 9837   3.214   1.939   4.825 -0.8380  1.2566  3.5635
   98SAPE  C216 9838   3.399   1.820   4.774  0.2226  0.5969 -0.3732
   98SAPE  H16R 9839   3.344   1.751   4.706 -2.2979  1.2172  0.9022
   98SAPE  H16S 9840   3.474   1.762   4.832 -0.5805 -2.3490 -2.0742
   98SAPE  C217 9841   3.483   1.909   4.687 -0.5577  0.4772 -0.3214
   98SAPE  H17R 9842   3.538   1.994   4.732 -1.8070  1.6677 -0.9657
   98SAPE  H17S 9843   3.414   1.948   4.609  0.5409  1.0849 -1.0264
   98SAPE  C218 9844   3.595   1.817   4.626 -0.4188  0.8556  0.3095
   98SAPE  H18R 9845   3.589   1.799   4.516 -1.9863  0.7458  0.3919
   98SAPE  H18S 9846   3.600   1.712   4.663  1.0965  1.0191  0.6436
   98SAPE  C219 9847   3.727   1.891   4.647  0.1202  0.2215 -0.5533
   98SAPE  H19R 9848   3.741   1.883   4.757  0.6970 -3.9271 -0.7722
   98SAPE  H19S 9849   3.728   1.997   4.615  0.2584 -0.1857 -1.9674
   98SAPE  C220 9850   3.842   1.829   4.578 -0.4656  0.2881  0.5771
   98SAPE  H20R 9851   3.811   1.803   4.475 -1.1130  0.5567  0.6974
   98SAPE  H20S 9852   3.849   1.731   4.629  0.9308  0.0885  0.0509
   98SAPE  H20T 9853   3.943   1.874   4.590  0.9672 -1.9592 -2.0639
   98SAPE   C33 9854   3.889   1.692   6.362 -0.0207 -0.1990 -0.2508
   98SAPE   H3X 9855   3.904   1.607   6.432 -1.1207 -0.1496  0.0577
   98SAPE   H3Y 9856   3.943   1.778   6.407  1.4460 -0.0223 -2.1809
   98SAPE   C34 9857   3.957   1.654   6.230  0.3122  1.0995 -0.2932
   98SAPE   H4X 9858   3.912   1.726   6.158 -0.7446 -0.0856 -0.8734
   98SAPE   H4Y 9859   3.932   1.551   6.196  3.1777  0.8136 -1.8263
   98SAPE   C35 9860   4.107   1.653   6.245 -0.4536 -0.0227  0.1368
   98SAPE   H5X 9861   4.149   1.589   6.325  2.0818 -2.1957 -2.7029
   98SAPE   H5Y 9862   4.146   1.754   6.268 -1.5798  0.8766 -1.6459
   98SAPE   C36 9863   4.170   1.615   6.110  0.9817  0.6957 -0.2733
   98SAPE   H6X 9864   4.109   1.534   6.064  2.6849 -0.0606 -1.3558
   98SAPE   H6Y 9865   4.274   1.581   6.130  1.4996  2.7681  0.7610
   98SAPE   C37 9866   4.174   1.733   6.016 -0.2358  0.0837  0.6098
   98SAPE   H7X 9867   4.226   1.821   6.059  0.1435  0.8939 -1.3975
   98SAPE   H7Y 9868   4.067   1.753   5.993 -0.9328 -2.3002  1.4921
   98SAPE   C38 9869   4.237   1.682   5.885 -0.7570 -0.1600 -0.3154
   98SAPE   H8X 9870   4.343   1.655   5.907 -0.1744  1.6272 -0.6938
   98SAPE   H8Y 9871   4.246   1.768   5.815 -0.7119 -0.8696 -1.1801
   98SAPE   C39 9872   4.148   1.591   5.805  0.7758  0.1159  0.4215
   98SAPE   H9X 9873   4.046   1.633   5.799 -0.4468 -2.5708  0.7701
   98SAPE   H9Y 9874   4.138   1.498   5.865  1.1087  0.3969  0.9259
   98SAPE  C310 9875   4.185   1.556   5.655 -0.4298 -0.4011 -0.1680
   98SAPE  H10X 9876   4.119   1.485   5.601  0.4414 -0.5657 -1.0505
   98SAPE  H10Y 9877   4.291   1.523   5.659  0.3083  1.6020 -1.2288
   98SAPE  C311 9878   4.185   1.684   5.560  0.0987 -0.2202  0.3379
   98SAPE  H11X 9879   4.271   1.744   5.597 -0.9451  1.8803 -0.4826
   98SAPE  H11Y 9880   4.093   1.743   5.578  0.8385  0.8867  0.6337
   98SAPE  C312 9881   4.193   1.641   5.408 -0.4877 -1.0892  0.9202
   98SAPE  H12X 9882   4.089   1.615   5.377  0.1032  0.9936 -3.5382
   98SAPE  H12Y 9883   4.257   1.551   5.397  0.4580 -0.3825  0.5233
   98SAPE  C313 9884   4.254   1.758   5.323 -0.2958 -0.4125 -0.0000
   98SAPE  H13X 9885   4.361   1.754   5.352 -0.7978 -2.9239  1.8349
   98SAPE  H13Y 9886   4.222   1.856   5.362  1.4904  0.8346 -1.5139
   98SAPE  C314 9887   4.219   1.753   5.166  0.7364 -0.2430  0.0975
   98SAPE  H14X 9888   4.238   1.850   5.115 -0.0299 -0.4061 -0.5195
   98SAPE  H14Y 9889   4.109   1.739   5.164  0.9817 -2.5045 -1.3495
   98SAPE  C315 9890   4.281   1.636   5.085  0.7392 -0.4852  0.7070
   98SAPE  H15X 9891   4.245   1.551   5.147 -0.8301  0.6002  1.3361
   98SAPE  H15Y 9892   4.391   1.654   5.088  0.6347  0.2548  0.1250
   98SAPE  C316 9893   4.255   1.619   4.934  0.3920  0.7979 -0.9974
   98SAPE  H16X 9894   4.246   1.715   4.877 -1.2389  1.1435 -0.2282
   98SAPE  H16Y 9895   4.160   1.561   4.927  1.8050 -1.5846 -1.5134
   98SAPE  C317 9896   4.359   1.537   4.861 -0.2046  0.2665  0.3316
   98SAPE  H17X 9897   4.396   1.462   4.934  1.1934  1.1992  0.6242
   98SAPE  H17Y 9898   4.446   1.598   4.830  1.6096 -2.6563 -0.7458
   98SAPE  C318 9899   4.317   1.460   4.727  0.4639 -0.3755  0.3605
   98SAPE  H18X 9900   4.218   1.410   4.733  0.8786 -1.3415 -0.5824
   98SAPE  H18Y 9901   4.388   1.381   4.693 -0.1032 -0.8087  0.1819
   98SAPE  H18Z 9902   4.329   1.531   4.642  1.0520 -2.6903 -1.5973
   99SAPE     N 9903   4.486   1.339   6.994  0.8389 -0.3362 -0.0117
   99SAPE   HN1 9904   4.492   1.301   6.898 -0.1543 -2.0669  0.5709
   99SAPE   HN2 9905   4.428   1.265   7.038 -0.1637 -0.0791 -0.8669
   99SAPE   HN3 9906   4.426   1.425   7.002  2.9672  1.2144  0.1582
   99SAPE   C12 9907   4.615   1.351   7.069  0.0595  0.5879  0.2082
   99SAPE  H12A 9908   4.646   1.247   7.094 -1.6375 -0.2703 -1.0571
   99SAPE  H12B 9909   4.587   1.413   7.156  1.7825  3.0359 -0.8590
   99SAPE   C11 9910   4.716   1.425   6.988 -0.0753  0.3861 -0.0286
   99SAPE  H11A 9911   4.810   1.452   7.041  0.4339 -1.7477  0.2214
   99SAPE  H11B 9912   4.669   1.523   6.961  0.0030  1.2220  2.5762
   99SAPE     P 9913   4.867   1.256   6.858 -0.1366 -0.2184  0.3392
   99SAPE   O13 9914   4.964   1.294   6.959  0.3274 -0.1232  0.4764
   99SAPE   O14 9915   4.809   1.123   6.858  0.2817 -0.1688  0.0925
   99SAPE   O12 9916   4.747   1.354   6.872 -0.0634  0.6094 -0.1972
   99SAPE   O11 9917   4.923   1.299   6.720  0.4506  0.7379  0.4451
   99SAPE    C1 9918   4.860   1.363   6.609 -0.2851  0.2292  0.2206
   99SAPE    HA 9919   4.818   1.457   6.652  1.1600  0.1200  1.9789
   99SAPE    HB 9920   4.945   1.392   6.544  1.3614 -1.4801  1.4828
   99SAPE    C2 9921   4.768   1.266   6.527 -0.3719  0.2120  0.2316
   99SAPE    HS 9922   4.675   1.281   6.587 -1.2198 -0.1274 -0.9641
   99SAPE   O21 9923   4.821   1.135   6.525  0.2062  0.1976 -0.4667
   99SAPE   C21 9924   4.740   1.043   6.563 -0.3957  0.3919  0.8255
   99SAPE   O22 9925   4.626   1.054   6.608  0.3245  0.0689  0.8167
   99SAPE   C22 9926   4.813   0.907   6.532 -0.3128 -1.1737 -0.4678
   99SAPE   H2R 9927   4.844   0.906   6.425  3.5443  0.1654  0.4816
   99SAPE   H2S 9928   4.903   0.924   6.594  0.0780  2.4278 -1.7426
   99SAPE    C3 9929   4.739   1.307   6.385  0.3287 -0.0719  0.1923
   99SAPE    HX 9930   4.699   1.411   6.385  0.8160  0.1316 -0.8639
   99SAPE    HY 9931   4.658   1.248   6.337  0.0801 -0.2500  0.8266
   99SAPE   O31 9932   4.860   1.312   6.309  0.1645 -0.3883  0.0303
   99SAPE   C31 9933   4.889   1.205   6.235  0.1215  0.7984 -0.2606
   99SAPE   O32 9934   4.829   1.100   6.238  0.4405  0.1211 -0.5743
   99SAPE   C32 9935   5.005   1.228   6.139  0.0206 -0.4055  0.1923
   99SAPE   H2X 9936   5.069   1.138   6.145 -0.4608 -0.9098 -1.5349
   99SAPE   H2Y 9937   5.060   1.319   6.170 -3.1920  2.6180 -2.0406
   99SAPE   C23 9938   4.735   0.777   6.574  0.3096 -0.7248 -0.6787
   99SAPE   H3R 9939   4.718   0.782   6.684 -2.4740 -0.0685 -1.0376
   99SAPE   H3S 9940   4.805   0.693   6.554  1.2118 -0.0398 -0.4516
   99SAPE   C24 9941   4.612   0.749   6.492  0.1235  0.1484 -0.4437
   99SAPE   H4R 9942   4.541   0.833   6.493 -1.2922 -1.0055  0.2946
   99SAPE   H4S 9943   4.568   0.654   6.530  0.7409  0.7666  1.9827
   99SAPE   C25 9944   4.647   0.739   6.347 -0.0352  0.1909 -0.3123
   99SAPE   H5R 9945   4.739   0.790   6.316 -1.3970  3.8208  1.1548
   99SAPE   C26 9946   4.576   0.669   6.258  0.3326  0.9763  0.4220
   99SAPE   H6R 9947   4.610   0.659   6.154  0.5220 -1.1112  0.6310
   99SAPE   C27 9948   4.443   0.599   6.274 -0.3426  0.7970 -0.4943
   99SAPE   H7R 9949   4.360   0.666   6.243  0.0528  1.6464  0.2169
   99SAPE   H7S 9950   4.427   0.586   6.383  0.4002 -0.4134 -0.5136
   99SAPE   C28 9951   4.422   0.462   6.213 -0.1487  1.1135  0.4797
   99SAPE   H8R 9952   4.458   0.373   6.266 -2.3490 -0.2822 -0.2240
   99SAPE   C29 9953   4.350   0.429   6.101  0.3756  0.3566 -0.0785
   99SAPE   H9R 9954   4.320   0.323   6.094  0.3585  0.2473  1.3266
   99SAPE  C210 9955   4.286   0.530   6.004 -0.1883  0.9904  0.1383
   99SAPE  H10R 9956   4.330   0.532   5.902 -2.2427  2.1134 -0.7693
   99SAPE  H10S 9957   4.306   0.634   6.038  0.7945  0.7266  0.4051
   99SAPE  C211 9958   4.137   0.500   6.002  0.3187  0.3326  0.9686
   99SAPE  H11R 9959   4.076   0.584   6.038  2.2999  2.2405  0.0857
   99SAPE  C212 9960   4.080   0.410   5.912 -0.2263  0.6229  0.0499
   99SAPE  H12R 9961   3.970   0.402   5.909 -0.1385 -0.5999 -1.6681
   99SAPE  C213 9962   4.162   0.309   5.825 -0.1071 -0.4546 -0.5784
   99SAPE  H13R 9963   4.161   0.206   5.867  1.4658 -0.5032 -0.5879
   99SAPE  H13S 9964   4.270   0.329   5.843 -0.3075  1.4187 -1.2055
   99SAPE  C214 9965   4.118   0.310   5.676  0.5290  0.5166  0.1206
   99SAPE  H14R 9966   4.045   0.234   5.644  0.3065 -0.2913  2.3747
   99SAPE  C215 9967   4.144   0.412   5.594 -0.0998 -0.5168 -0.6666
   99SAPE  H15R 9968   4.106   0.402   5.491 -1.1256 -2.3145 -0.1430
   99SAPE  C216 9969   4.219   0.538   5.632  0.5206 -0.3243  0.2743
   99SAPE  H16R 9970   4.288   0.561   5.549  0.2393 -0.2320  0.0660
   99SAPE  H16S 9971   4.273   0.533   5.729 -0.7027 -0.9299  0.9462
   99SAPE  C217 9972   4.113   0.663   5.617 -0.6516 -0.0634 -0.0913
   99SAPE  H17R 9973   4.169   0.751   5.654  2.2779 -0.4590 -3.0601
   99SAPE  H17S 9974   4.027   0.646   5.686 -0.6552  0.0220 -0.0753
   99SAPE  C218 9975   4.061   0.698   5.471  0.4130  0.1106 -0.2889
   99SAPE  H18R 9976   3.974   0.766   5.482  1.1434  0.7628  2.0907
   99SAPE  H18S 9977   4.010   0.609   5.430 -0.7322  0.7668 -0.3228
   99SAPE  C219 9978   4.171   0.766   5.383 -0.2442  0.3865 -0.0016
   99SAPE  H19R 9979   4.257   0.695   5.388 -1.7342 -1.8185 -2.9531
   99SAPE  H19S 9980   4.203   0.864   5.426  0.1248  1.0669 -1.7717
   99SAPE  C220 9981   4.132   0.777   5.226 -0.3704 -0.2176  0.2307
   99SAPE  H20R 9982   4.115   0.673   5.191  1.8947 -0.0346 -1.6405
   99SAPE  H20S 9983   4.204   0.829   5.160 -0.7421  0.9019  0.6848
   99SAPE  H20T 9984   4.030   0.821   5.220  0.1891  1.4255  1.7108
   99SAPE   C33 9985   4.957   1.272   5.990 -0.0432  0.6818  0.3003
   99SAPE   H3X 9986   4.900   1.366   6.003  0.3492  0.8845  0.5791
   99SAPE   H3Y 9987   4.898   1.180   5.968 -0.0767  0.3527  1.6569
   99SAPE   C34 9988   5.076   1.296   5.892  1.2030 -0.3522 -0.0037
   99SAPE   H4X 9989   5.139   1.204   5.884  1.4494 -0.0879 -1.2273
   99SAPE   H4Y 9990   5.139   1.378   5.932  0.1292  0.4672  0.0438
   99SAPE   C35 9991   5.019   1.333   5.752 -0.5793 -0.2568 -0.4993
   99SAPE   H5X 9992   4.945   1.410   5.782 -1.2727 -1.0718 -0.0560
   99SAPE   H5Y 9993   4.965   1.247   5.707  0.7578 -2.0836  1.2560
   99SAPE   C36 9994   5.132   1.373   5.656  0.2152 -0.4562 -0.1247
   99SAPE   H6X 9995   5.204   1.290   5.643  0.8140  0.2103 -1.2050
   99SAPE   H6Y 9996   5.187   1.455   5.708 -3.0659  3.6823 -2.5013
   99SAPE   C37 9997   5.096   1.443   5.524  0.3137  0.5898 -0.2245
   99SAPE   H7X 9998   5.194   1.435   5.472  1.4593  0.1148  1.8938
   99SAPE   H7Y 9999   5.055   1.545   5.533 -1.4955 -0.1501  0.2387
   99SAPE   C3810000   4.978   1.380   5.443  0.4791  0.6033  0.5043
   99SAPE   H8X10001   4.972   1.442   5.351  2.7845 -0.4061 -0.4020
   99SAPE   H8Y10002   4.881   1.384   5.497 -0.3058 -2.7016 -0.4408
   99SAPE   C3910003   4.995   1.234   5.413  0.0685 -0.8195 -0.2105
   99SAPE   H9X10004   4.904   1.184   5.373  0.4368 -3.3421  1.8430
   99SAPE   H9Y10005   5.032   1.179   5.502 -0.7031 -1.8659 -0.5214
   99SAPE  C31010006   5.106   1.223   5.307 -0.1867 -0.0510 -0.2504
   99SAPE  H10X10007   5.150   1.121   5.301 -0.8317 -0.3866  0.4604
   99SAPE  H10Y10008   5.195   1.282   5.335 -0.3602 -0.5961  1.6167
   99SAPE  C31110009   5.064   1.256   5.166  0.0649 -0.5957  0.5744
   99SAPE  H11X10010   5.073   1.366   5.158  0.4976 -0.6380  0.4537
   99SAPE  H11Y10011   4.957   1.231   5.150  0.1714 -2.6635  2.6377
   99SAPE  C31210012   5.139   1.176   5.054 -0.2934  0.1038  0.1161
   99SAPE  H12X10013   5.114   1.070   5.078  1.9863 -0.7537 -0.9388
   99SAPE  H12Y10014   5.249   1.194   5.052 -0.5586  3.0697 -4.9378
   99SAPE  C31310015   5.082   1.206   4.917  0.7951 -0.2395  0.3290
   99SAPE  H13X10016   5.074   1.317   4.905 -0.8144 -0.4085 -0.4477
   99SAPE  H13Y10017   4.978   1.169   4.913  0.3639  1.0223 -0.9953
   99SAPE  C31410018   5.171   1.162   4.804  0.0569  0.1285  0.3045
   99SAPE  H14X10019   5.144   1.058   4.776 -4.1608  1.7989 -2.8485
   99SAPE  H14Y10020   5.278   1.149   4.833 -0.0874 -1.1553  0.2926
   99SAPE  C31510021   5.143   1.239   4.673 -0.1232 -0.4242  0.2107
   99SAPE  H15X10022   5.168   1.346   4.690  0.8419 -0.3732 -1.4104
   99SAPE  H15Y10023   5.035   1.221   4.656 -0.0610 -0.5859 -0.0148
   99SAPE  C31610024   5.233   1.192   4.555  0.0707 -1.0654  0.1404
   99SAPE  H16X10025   5.201   1.088   4.535 -1.1891 -0.4982 -0.9636
   99SAPE  H16Y10026   5.334   1.213   4.596 -0.6265 -0.2692  1.5308
   99SAPE  C31710027   5.211   1.281   4.431 -0.2734 -0.4281 -0.8368
   99SAPE  H17X10028   5.251   1.384   4.437  1.9447 -1.1861 -1.2659
   99SAPE  H17Y10029   5.103   1.287   4.409 -0.0023  0.8997 -1.9145
   99SAPE  C31810030   5.273   1.210   4.308 -0.4023 -1.1270 -0.3513
   99SAPE  H18X10031   5.227   1.112   4.286 -0.5567 -0.9519 -0.8292
   99SAPE  H18Y10032   5.376   1.193   4.344 -1.0982 -0.2946  2.2572
   99SAPE  H18Z10033   5.285   1.282   4.223  2.3884 -2.2928 -1.0627
  100SAPE     N10034   4.936   4.476   6.827  0.4368  0.3687  0.0288
  100SAPE   HN110035   4.836   4.462   6.803  0.0102  2.1776  0.6166
  100SAPE   HN210036   4.998   4.425   6.760 -1.3503 -1.5974 -0.2467
  100SAPE   HN310037   4.953   4.450   6.927 -1.4899  0.2451  0.3561
  100SAPE   C1210038   4.969   4.622   6.824  0.0238  0.0168  0.5826
  100SAPE  H12A10039   5.027   4.659   6.911  0.5318  1.8428 -0.5008
  100SAPE  H12B10040   4.871   4.674   6.829 -0.4929 -1.0281  1.9826
  100SAPE   C1110041   5.042   4.671   6.702  0.2081 -0.3402  0.1226
  100SAPE  H11A10042   5.070   4.776   6.729 -1.6244  0.0130  0.8025
  100SAPE  H11B10043   4.988   4.674   6.605 -0.2046 -3.4384  0.1741
  100SAPE     P10044   5.296   4.614   6.694 -0.4376 -0.1849  0.4267
  100SAPE   O1310045   5.323   4.656   6.835  0.1542  0.5872 -0.1395
  100SAPE   O1410046   5.384   4.511   6.632 -0.2286  0.1975 -0.0293
  100SAPE   O1210047   5.145   4.579   6.670 -0.1257  0.7109  0.1565
  100SAPE   O1110048   5.301   4.745   6.607 -0.1149  0.0714 -0.2928
  100SAPE    C110049   5.263   4.759   6.469 -0.2220  0.6222 -0.4232
  100SAPE    HA10050   5.174   4.697   6.450  1.5309 -1.8354 -1.0661
  100SAPE    HB10051   5.233   4.866   6.461 -0.2940  0.8007  1.5445
  100SAPE    C210052   5.382   4.728   6.381  0.0654 -0.5899  0.2229
  100SAPE    HS10053   5.388   4.617   6.382  0.6409 -0.5682 -0.2843
  100SAPE   O2110054   5.502   4.793   6.434 -0.7479  0.3110  0.8406
  100SAPE   C2110055   5.610   4.732   6.398 -0.2683  0.2135  0.6839
  100SAPE   O2210056   5.629   4.615   6.369  0.4661  0.0730 -0.0923
  100SAPE   C2210057   5.726   4.829   6.425  0.2138  0.4047 -0.2244
  100SAPE   H2R10058   5.719   4.883   6.522  0.8559  0.7516 -0.3676
  100SAPE   H2S10059   5.819   4.771   6.440 -0.0974 -0.5338 -1.7314
  100SAPE    C310060   5.348   4.764   6.231 -0.2778  0.1441 -0.0215
  100SAPE    HX10061   5.346   4.875   6.221 -0.8285  0.4938  3.0266
  100SAPE    HY10062   5.243   4.739   6.205 -0.0258 -0.0047 -0.9314
  100SAPE   O3110063   5.448   4.709   6.148 -0.1265 -0.4739  0.0419
  100SAPE   C3110064   5.434   4.589   6.117  0.2468  0.2458  0.1245
  100SAPE   O3210065   5.335   4.517   6.130  0.2153 -0.5955 -0.2735
  100SAPE   C3210066   5.557   4.545   6.047  1.2436 -0.8781  0.2772
  100SAPE   H2X10067   5.564   4.434   6.053  1.2325 -0.9622 -0.9518
  100SAPE   H2Y10068   5.638   4.583   6.112 -1.5919  1.9341  2.5373
  100SAPE   C2310069   5.756   4.931   6.311 -0.3847 -0.6006  0.6840
  100SAPE   H3R10070   5.831   5.000   6.357 -0.8105 -0.5955  1.3815
  100SAPE   H3S10071   5.656   4.977   6.294 -0.0545  0.4238  1.3757
  100SAPE   C2410072   5.809   4.863   6.188  0.2921 -0.1751  0.1273
  100SAPE   H4R10073   5.721   4.831   6.128 -2.0185  1.1627  2.5906
  100SAPE   H4S10074   5.859   4.770   6.224  0.9820  0.2488  0.2870
  100SAPE   C2510075   5.913   4.947   6.119  0.4635  0.1339  0.1784
  100SAPE   H5R10076   6.008   4.936   6.173 -1.2819 -1.9170  3.1416
  100SAPE   C2610077   5.897   5.011   6.003 -0.3484  0.0005 -0.9790
  100SAPE   H6R10078   5.985   5.071   5.977  0.4771  0.3492  2.2054
  100SAPE   C2710079   5.777   5.032   5.920  0.1531  0.0733 -0.1020
  100SAPE   H7R10080   5.769   5.118   5.850 -2.0349 -0.2919 -0.3907
  100SAPE   H7S10081   5.693   5.063   5.986  1.3298  0.8427  1.0807
  100SAPE   C2810082   5.754   4.901   5.846  0.0322 -0.0515 -0.3912
  100SAPE   H8R10083   5.763   4.807   5.902 -0.3357 -0.4691 -1.0100
  100SAPE   C2910084   5.717   4.882   5.716  0.3460  0.1424 -0.5119
  100SAPE   H9R10085   5.712   4.774   5.694 -1.1622 -0.2143  1.2813
  100SAPE  C21010086   5.698   4.987   5.611 -0.2852  0.3626  0.0776
  100SAPE  H10R10087   5.660   5.078   5.662  0.1749  0.8916 -0.5123
  100SAPE  H10S10088   5.620   4.946   5.543 -0.9371 -2.0637  2.1466
  100SAPE  C21110089   5.825   5.025   5.542 -0.2692  0.8675  0.2267
  100SAPE  H11R10090   5.920   5.021   5.598  0.8301 -1.2491 -1.6641
  100SAPE  C21210091   5.836   5.056   5.410  0.3821 -0.0541 -0.3679
  100SAPE  H12R10092   5.929   5.103   5.375 -0.0885  2.0918  1.0682
  100SAPE  C21310093   5.727   5.061   5.299 -0.8279 -0.4541 -0.0979
  100SAPE  H13R10094   5.714   5.167   5.269  3.6961  0.3278 -0.1141
  100SAPE  H13S10095   5.632   5.017   5.334 -0.9122  0.3930  0.8000
  100SAPE  C21410096   5.777   4.980   5.187 -0.5325  0.5985 -0.5035
  100SAPE  H14R10097   5.744   4.875   5.197  1.0578  0.1504  0.3629
  100SAPE  C21510098   5.838   5.024   5.077 -0.1059 -0.3946  0.5586
  100SAPE  H15R10099   5.878   4.955   5.002 -0.9688  1.1463 -1.4015
  100SAPE  C21610100   5.871   5.176   5.052  0.1673  1.2572 -0.3386
  100SAPE  H16R10101   5.881   5.237   5.144 -4.6159  0.5864  0.8781
  100SAPE  H16S10102   5.788   5.231   5.003 -1.1406  0.3947  0.8335
  100SAPE  C21710103   5.988   5.179   4.952  0.9898 -0.0664 -0.1625
  100SAPE  H17R10104   6.067   5.119   5.002 -0.6959 -0.4667  2.1890
  100SAPE  H17S10105   6.035   5.279   4.948 -1.2233  1.0811  0.7777
  100SAPE  C21810106   5.946   5.129   4.809 -0.6432 -0.4215 -0.8753
  100SAPE  H18R10107   5.852   5.176   4.772 -0.8745 -0.3928 -0.2580
  100SAPE  H18S10108   5.914   5.023   4.824 -2.8241  0.4551  1.2144
  100SAPE  C21910109   6.058   5.150   4.703 -0.1685 -0.2443 -0.8490
  100SAPE  H19R10110   6.053   5.079   4.618 -2.1616 -0.8133 -0.2854
  100SAPE  H19S10111   6.154   5.125   4.754 -1.2695 -1.0930  0.8917
  100SAPE  C22010112   6.068   5.292   4.655  0.5704  0.5170 -0.6934
  100SAPE  H20R10113   5.971   5.327   4.614  0.2403  1.5299  0.8449
  100SAPE  H20S10114   6.152   5.288   4.582  1.0237 -1.4188 -0.1200
  100SAPE  H20T10115   6.103   5.349   4.744 -0.0800 -0.7966  0.4351
  100SAPE   C3310116   5.567   4.601   5.898 -0.1907 -0.4276  0.4482
  100SAPE   H3X10117   5.676   4.598   5.875 -0.7336  1.3274 -3.0255
  100SAPE   H3Y10118   5.545   4.709   5.888  4.4874  0.6105 -1.1238
  100SAPE   C3410119   5.497   4.526   5.789  0.4713 -0.1819 -0.0701
  100SAPE   H4X10120   5.389   4.520   5.816  0.6584 -0.4132  0.6474
  100SAPE   H4Y10121   5.526   4.419   5.790 -0.6913 -0.5445  2.4412
  100SAPE   C3510122   5.497   4.605   5.653  0.0222  0.5772  0.4757
  100SAPE   H5X10123   5.483   4.714   5.668 -0.4403  0.5088  0.5702
  100SAPE   H5Y10124   5.410   4.576   5.589  1.1632 -0.8998 -0.4744
  100SAPE   C3610125   5.602   4.575   5.544 -0.5242  0.5165  0.1070
  100SAPE   H6X10126   5.602   4.464   5.538  2.4602  0.3851  0.7186
  100SAPE   H6Y10127   5.696   4.610   5.593 -0.2697  0.5367 -0.3894
  100SAPE   C3710128   5.571   4.630   5.409  0.1084 -0.5942  1.0207
  100SAPE   H7X10129   5.571   4.740   5.423 -2.0634 -0.4414  0.1324
  100SAPE   H7Y10130   5.471   4.605   5.369  0.0383  2.7705 -1.2968
  100SAPE   C3810131   5.682   4.618   5.300  0.0202 -0.0620 -0.4495
  100SAPE   H8X10132   5.722   4.515   5.317  0.4834 -0.0804 -1.5659
  100SAPE   H8Y10133   5.770   4.682   5.322 -0.0150  1.1667 -3.4372
  100SAPE   C3910134   5.629   4.629   5.155  0.3324 -0.2903  0.3660
  100SAPE   H9X10135   5.586   4.731   5.149  0.4637 -0.1714  1.2403
  100SAPE   H9Y10136   5.547   4.556   5.134 -0.6750  0.3607  1.8764
  100SAPE  C31010137   5.751   4.606   5.054  0.0843 -0.2365 -0.4258
  100SAPE  H10X10138   5.794   4.504   5.066 -0.4465 -0.5064 -0.7771
  100SAPE  H10Y10139   5.833   4.673   5.087 -1.1406  0.3197  1.7421
  100SAPE  C31110140   5.717   4.611   4.907 -0.4049  0.2103  0.3278
  100SAPE  H11X10141   5.693   4.715   4.877 -0.6434  0.2363  0.6048
  100SAPE  H11Y10142   5.619   4.566   4.881 -0.4792  1.5489 -1.9461
  100SAPE  C31210143   5.845   4.577   4.818  0.0766 -0.7399 -0.3813
  100SAPE  H12X10144   5.816   4.586   4.711 -0.2588  2.3557 -0.1096
  100SAPE  H12Y10145   5.875   4.475   4.852 -0.8856 -0.1983  2.3369
  100SAPE  C31310146   5.972   4.659   4.854 -0.1377 -0.4132  0.2917
  100SAPE  H13X10147   6.019   4.616   4.945  0.4228 -0.5866 -0.0712
  100SAPE  H13Y10148   5.937   4.762   4.871 -1.8438 -0.1917 -3.4702
  100SAPE  C31410149   6.069   4.654   4.739 -0.3458  0.2380  0.6204
  100SAPE  H14X10150   6.033   4.701   4.645  0.4948  2.8860  1.5308
  100SAPE  H14Y10151   6.091   4.551   4.703  1.5898  0.9706 -0.3961
  100SAPE  C31510152   6.206   4.718   4.776  0.8613 -0.2453 -0.0064
  100SAPE  H15X10153   6.231   4.674   4.875 -1.0052 -0.0260  0.6057
  100SAPE  H15Y10154   6.195   4.826   4.799 -2.3748 -0.6594  0.8575
  100SAPE  C31610155   6.326   4.677   4.683  0.5790  0.5019  0.0120
  100SAPE  H16X10156   6.314   4.566   4.679 -0.4345  0.5918  0.3008
  100SAPE  H16Y10157   6.424   4.700   4.728  0.6526 -0.1235  0.1835
  100SAPE  C31710158   6.325   4.751   4.555 -0.1363  0.0889 -0.0374
  100SAPE  H17X10159   6.219   4.756   4.522 -0.2729  4.6753  0.4810
  100SAPE  H17Y10160   6.388   4.693   4.485 -1.1974 -1.4920  0.2634
  100SAPE  C31810161   6.367   4.901   4.577 -0.4069 -0.0342  0.6664
  100SAPE  H18X10162   6.473   4.921   4.601 -0.7041  0.7129  1.4135
  100SAPE  H18Y10163   6.311   4.955   4.657 -0.1131  3.2781 -1.2065
  100SAPE  H18Z10164   6.344   4.970   4.493 -1.6667 -1.0084  0.1802
  101SAPE     N10165   5.627   0.797   6.465  0.2323  0.0320  0.1399
  101SAPE   HN110166   5.532   0.792   6.424 -0.8077  1.0467  2.2547
  101SAPE   HN210167   5.675   0.888   6.448  2.3929 -0.8400  1.0774
  101SAPE   HN310168   5.693   0.722   6.436 -1.2004 -0.5639 -1.7667
  101SAPE   C1210169   5.613   0.797   6.616 -0.0017  0.3280  0.4753
  101SAPE  H12A10170   5.568   0.698   6.638  0.9490 -0.4809 -1.0398
  101SAPE  H12B10171   5.540   0.878   6.641  2.0483  2.1082  1.0556
  101SAPE   C1110172   5.739   0.814   6.706 -0.1488 -0.2863 -0.2578
  101SAPE  H11A10173   5.700   0.833   6.808 -0.5047 -0.1847 -0.4132
  101SAPE  H11B10174   5.790   0.909   6.680  0.1062 -0.8991 -2.1461
  101SAPE     P10175   5.968   0.707   6.678 -0.2682  0.3767  0.4133
  101SAPE   O1310176   6.012   0.824   6.605  0.2774 -0.1337  0.4411
  101SAPE   O1410177   6.036   0.685   6.807 -0.5877 -0.2250 -0.4079
  101SAPE   O1210178   5.815   0.700   6.705  0.3757  0.5290  0.2879
  101SAPE   O1110179   5.972   0.575   6.589  0.3255  0.0808 -0.9693
  101SAPE    C110180   6.083   0.538   6.503 -0.0272  0.5550 -0.4519
  101SAPE    HA10181   6.181   0.565   6.547  0.1012  2.0990 -1.6134
  101SAPE    HB10182   6.087   0.429   6.485 -0.4386  0.5301 -0.4086
  101SAPE    C210183   6.079   0.597   6.363 -0.3220 -0.2410  0.3430
  101SAPE    HS10184   6.061   0.707   6.360 -0.3236 -0.2565 -0.5907
  101SAPE   O2110185   5.985   0.533   6.281  0.1153  0.1783  0.1136
  101SAPE   C2110186   5.866   0.564   6.292  1.0471 -0.8944 -0.1614
  101SAPE   O2210187   5.817   0.655   6.354  0.5314  0.1873 -0.4513
  101SAPE   C2210188   5.795   0.452   6.205  0.5353 -0.1112 -0.5254
  101SAPE   H2R10189   5.854   0.441   6.112 -2.3423  0.5160 -2.5409
  101SAPE   H2S10190   5.788   0.353   6.255 -3.6812 -1.0279 -2.4559
  101SAPE    C310191   6.226   0.576   6.310  0.3558 -0.1486 -0.8831
  101SAPE    HX10192   6.256   0.470   6.326 -0.7524 -0.2336  0.9219
  101SAPE    HY10193   6.296   0.642   6.366  0.4358 -0.9828  0.0383
  101SAPE   O3110194   6.227   0.604   6.168 -0.1204  0.0963  0.0989
  101SAPE   C3110195   6.272   0.723   6.130  0.0098  0.2812  0.1229
  101SAPE   O3210196   6.305   0.813   6.208  0.3709 -0.3531 -0.0949
  101SAPE   C3210197   6.253   0.730   5.973  0.1958  0.1416  0.2573
  101SAPE   H2X10198   6.258   0.835   5.937  1.6314  1.2176  3.2984
  101SAPE   H2Y10199   6.146   0.700   5.962  0.4818 -1.2174  0.8786
  101SAPE   C2310200   5.645   0.479   6.168 -0.8746 -0.3277 -0.3133
  101SAPE   H3R10201   5.588   0.508   6.259  0.9350  1.0046  0.4501
  101SAPE   H3S10202   5.616   0.379   6.129 -1.5707 -1.0721  2.0066
  101SAPE   C2410203   5.620   0.578   6.049  0.2916  0.5530 -1.1206
  101SAPE   H4R10204   5.519   0.549   6.013  0.2177 -0.4743 -0.1586
  101SAPE   H4S10205   5.690   0.556   5.967  1.6069  0.3840  0.0122
  101SAPE   C2510206   5.623   0.726   6.076 -0.6735 -0.4264  0.2391
  101SAPE   H5R10207   5.551   0.767   6.147  0.2052  1.0406  0.3233
  101SAPE   C2610208   5.722   0.815   6.048  0.4895  0.2290 -0.5354
  101SAPE   H6R10209   5.716   0.920   6.083  1.6234 -0.0769  0.6621
  101SAPE   C2710210   5.844   0.789   5.965  0.1869  0.1725 -0.0946
  101SAPE   H7R10211   5.798   0.759   5.868  0.9651 -1.4399  0.0054
  101SAPE   H7S10212   5.902   0.701   6.000 -0.9441 -0.2812  0.7466
  101SAPE   C2810213   5.938   0.909   5.950 -1.0853  0.2178  0.0134
  101SAPE   H8R10214   5.962   0.971   6.038  0.0235  1.1170 -0.8893
  101SAPE   C2910215   5.990   0.954   5.834 -0.4380 -0.1457 -0.0057
  101SAPE   H9R10216   6.038   1.053   5.831 -1.7881  0.5094 -0.8930
  101SAPE  C21010217   5.989   0.889   5.704  0.7460  0.1331  0.4352
  101SAPE  H10R10218   5.973   0.780   5.717  0.5475  0.0663 -0.3354
  101SAPE  H10S10219   6.091   0.896   5.660 -0.3573 -1.0892 -2.5838
  101SAPE  C21110220   5.889   0.954   5.612 -0.2556  0.1537 -0.2142
  101SAPE  H11R10221   5.842   1.048   5.644 -0.8576 -0.7308  1.6228
  101SAPE  C21210222   5.851   0.908   5.489 -0.8678 -0.1582  0.7668
  101SAPE  H12R10223   5.794   0.975   5.423  1.2248  1.4449  0.4479
  101SAPE  C21310224   5.890   0.778   5.420 -0.1922 -0.0699  0.7383
  101SAPE  H13R10225   5.944   0.708   5.487  0.9719  0.3178  0.2209
  101SAPE  H13S10226   5.967   0.798   5.343 -1.8271 -2.0332 -1.5500
  101SAPE  C21410227   5.775   0.711   5.360 -0.1235 -0.0786 -0.2826
  101SAPE  H14R10228   5.755   0.736   5.255 -0.1679  0.8252 -0.0637
  101SAPE  C21510229   5.704   0.611   5.411  0.3116  0.4531 -0.1610
  101SAPE  H15R10230   5.625   0.563   5.352 -1.4688  0.7506  1.8269
  101SAPE  C21610231   5.722   0.562   5.553 -0.1694 -0.1647  0.2245
  101SAPE  H16R10232   5.623   0.589   5.596  1.3193  1.9916  2.5737
  101SAPE  H16S10233   5.794   0.610   5.622 -0.7810  1.4225 -0.1845
  101SAPE  C21710234   5.727   0.406   5.569  0.0676 -0.3348  0.4257
  101SAPE  H17R10235   5.819   0.374   5.516  0.5656  1.0957  0.3809
  101SAPE  H17S10236   5.647   0.352   5.514 -1.1831  1.1649  0.6895
  101SAPE  C21810237   5.724   0.356   5.712 -0.0050  0.3662 -0.4448
  101SAPE  H18R10238   5.650   0.408   5.777  1.3339  1.8845 -0.0594
  101SAPE  H18S10239   5.820   0.373   5.766  0.0444 -0.6971 -0.1858
  101SAPE  C21910240   5.710   0.202   5.715  0.4968 -0.0886  0.8129
  101SAPE  H19R10241   5.772   0.142   5.646  2.2550  0.9031  1.4786
  101SAPE  H19S10242   5.606   0.197   5.675  1.3192 -1.8671 -1.2657
  101SAPE  C22010243   5.697   0.132   5.851  0.2439 -0.1146  0.7746
  101SAPE  H20R10244   5.797   0.114   5.897  0.2827 -1.6142  0.1587
  101SAPE  H20S10245   5.646   0.034   5.842  3.0650 -1.5475 -1.5881
  101SAPE  H20T10246   5.641   0.203   5.915 -1.8076 -1.7259  0.8769
  101SAPE   C3310247   6.351   0.637   5.897  0.2171  0.0367  0.6059
  101SAPE   H3X10248   6.284   0.604   5.815 -1.7427 -0.8619  2.4627
  101SAPE   H3Y10249   6.375   0.545   5.955 -0.6964 -0.4673  0.2029
  101SAPE   C3410250   6.476   0.707   5.835  0.4914  0.1222 -0.5133
  101SAPE   H4X10251   6.570   0.688   5.892 -1.4383 -0.7716  2.6267
  101SAPE   H4Y10252   6.464   0.817   5.838 -1.5186 -0.0571 -0.8497
  101SAPE   C3510253   6.510   0.658   5.693 -0.0345  0.0539 -0.0666
  101SAPE   H5X10254   6.480   0.552   5.681  0.8514 -0.3813  1.3200
  101SAPE   H5Y10255   6.617   0.676   5.670 -0.3154  1.5166 -0.3174
  101SAPE   C3610256   6.437   0.737   5.581 -0.3907 -0.5262 -0.5754
  101SAPE   H6X10257   6.449   0.846   5.597 -1.5657 -0.2676 -1.2962
  101SAPE   H6Y10258   6.329   0.712   5.593 -0.3067 -0.6582 -0.0674
  101SAPE   C3710259   6.485   0.697   5.444 -0.2862  0.5767  0.4072
  101SAPE   H7X10260   6.419   0.757   5.378 -1.5420 -1.9605 -0.7877
  101SAPE   H7Y10261   6.456   0.591   5.429  0.1660  0.3907  0.8479
  101SAPE   C3810262   6.632   0.721   5.418  0.0382 -0.4177 -1.2926
  101SAPE   H8X10263   6.702   0.670   5.487  0.4374 -0.3311 -1.6265
  101SAPE   H8Y10264   6.649   0.829   5.438 -0.3344 -0.5118 -0.4380
  101SAPE   C3910265   6.678   0.679   5.282 -0.5435  0.1512  0.3746
  101SAPE   H9X10266   6.695   0.569   5.283  1.9886  0.4950  0.7963
  101SAPE   H9Y10267   6.769   0.738   5.261 -1.2476  1.4331  0.7574
  101SAPE  C31010268   6.578   0.706   5.165  1.1301  0.0402 -0.2066
  101SAPE  H10X10269   6.511   0.794   5.177  1.3226  0.3677 -1.4085
  101SAPE  H10Y10270   6.507   0.621   5.160 -0.2253  1.0125  1.2713
  101SAPE  C31110271   6.645   0.706   5.031 -0.4951 -0.5537  0.6259
  101SAPE  H11X10272   6.564   0.733   4.959  0.1422 -1.7507 -0.6055
  101SAPE  H11Y10273   6.674   0.603   5.001  0.3591  0.0004 -0.5460
  101SAPE  C31210274   6.765   0.798   4.995  0.2020 -0.1842  0.5383
  101SAPE  H12X10275   6.856   0.751   5.038 -0.4038 -1.7835  0.1439
  101SAPE  H12Y10276   6.738   0.896   5.040 -2.0248 -0.6397  0.3503
  101SAPE  C31310277   6.769   0.803   4.844 -0.4718 -0.0776  1.0937
  101SAPE  H13X10278   6.824   0.896   4.816  0.1506 -1.0487 -1.1167
  101SAPE  H13Y10279   6.672   0.805   4.790  0.7383  0.2562 -1.1724
  101SAPE  C31410280   6.844   0.687   4.776  0.0233 -0.0242  0.3664
  101SAPE  H14X10281   6.784   0.594   4.770 -1.3848  0.9561 -1.7506
  101SAPE  H14Y10282   6.929   0.664   4.845 -0.7306 -0.4521  1.1654
  101SAPE  C31510283   6.897   0.722   4.639  0.6266 -0.5186 -0.8354
  101SAPE  H15X10284   6.947   0.822   4.640  2.6825 -1.4926  0.4775
  101SAPE  H15Y10285   6.805   0.724   4.577  0.4661 -1.7525 -0.6561
  101SAPE  C31610286   6.982   0.602   4.582 -0.2291  0.3353  0.0960
  101SAPE  H16X10287   6.971   0.616   4.472  0.5084  0.8880  0.0862
  101SAPE  H16Y10288   6.935   0.505   4.609 -1.5398  0.7627 -0.5094
  101SAPE  C31710289   7.127   0.613   4.627  0.0786  0.3640 -0.4246
  101SAPE  H17X10290   7.192   0.532   4.588  1.9823  2.1932 -1.1955
  101SAPE  H17Y10291   7.129   0.599   4.738 -2.0304 -0.7046 -0.4679
  101SAPE  C31810292   7.196   0.748   4.598 -0.9437 -0.0020  0.1276
  101SAPE  H18X10293   7.184   0.816   4.685 -0.1839 -0.3300  0.5030
  101SAPE  H18Y10294   7.155   0.798   4.508  1.1230  0.0195 -0.8566
  101SAPE  H18Z10295   7.305   0.731   4.582  0.0260  3.4549  1.9757
  102SAPE     N10296   0.125   1.742   6.633  0.5614 -0.2055 -0.3588
  102SAPE   HN110297   0.136   1.798   6.546  1.5844  1.0886  0.5680
  102SAPE   HN210298   0.072   1.654   6.612 -3.4534  1.5211  1.4230
  102SAPE   HN310299   0.063   1.796   6.697  2.0427  0.6313  0.4108
  102SAPE   C1210300   0.262   1.726   6.692  0.2420  0.2735  0.7069
  102SAPE  H12A10301   0.250   1.682   6.793  1.8481  0.1313  0.8708
  102SAPE  H12B10302   0.321   1.820   6.697  1.4278 -0.4222  0.1791
  102SAPE   C1110303   0.351   1.636   6.602 -0.3151 -0.9690 -0.3507
  102SAPE  H11A10304   0.368   1.688   6.505  1.2683 -0.5088  0.1493
  102SAPE  H11B10305   0.298   1.539   6.585  0.3028 -2.0112  3.0452
  102SAPE     P10306   0.600   1.528   6.614 -0.1830  0.3732  0.2576
  102SAPE   O1310307   0.719   1.601   6.665 -0.1857  0.2024 -0.0619
  102SAPE   O1410308   0.574   1.397   6.670  0.5101 -0.5940 -0.1648
  102SAPE   O1210309   0.479   1.621   6.657  0.3310  0.1884  0.2999
  102SAPE   O1110310   0.594   1.508   6.457 -0.6429  0.5492  0.1308
  102SAPE    C110311   0.714   1.462   6.385 -0.1244 -0.5727  0.1646
  102SAPE    HA10312   0.780   1.396   6.444  0.3317 -0.8897 -0.6885
  102SAPE    HB10313   0.684   1.403   6.296  0.4701 -0.4022 -0.1497
  102SAPE    C210314   0.781   1.591   6.324  0.6520  0.4172 -0.4710
  102SAPE    HS10315   0.788   1.664   6.407  1.0323 -0.3679  0.2045
  102SAPE   O2110316   0.692   1.644   6.226  0.4811  0.3489 -0.4528
  102SAPE   C2110317   0.697   1.775   6.200 -0.5939  0.6096 -0.0299
  102SAPE   O2210318   0.768   1.856   6.260 -0.2270 -0.4329  0.5562
  102SAPE   C2210319   0.601   1.806   6.083 -0.4529 -0.2109 -0.3034
  102SAPE   H2R10320   0.636   1.737   6.004 -0.9396  0.6353 -1.2797
  102SAPE   H2S10321   0.500   1.770   6.112 -1.4468  1.9274 -0.8743
  102SAPE    C310322   0.920   1.566   6.259  0.7120 -0.6642  0.3002
  102SAPE    HX10323   0.985   1.526   6.340  0.4825 -2.1051 -0.1919
  102SAPE    HY10324   0.963   1.664   6.229 -0.0725 -0.0076  1.2374
  102SAPE   O3110325   0.907   1.469   6.156 -0.3155  0.3267 -0.3959
  102SAPE   C3110326   0.893   1.504   6.031 -1.1216 -0.6861  0.5462
  102SAPE   O3210327   0.896   1.622   5.990  0.4159  0.1490 -0.1545
  102SAPE   C3210328   0.848   1.380   5.948  0.3858 -0.6825  0.0628
  102SAPE   H2X10329   0.918   1.299   5.979  2.2435  0.8196 -0.0219
  102SAPE   H2Y10330   0.867   1.420   5.846  0.2251  1.2549  0.7530
  102SAPE   C2310331   0.599   1.950   6.039 -0.2930 -0.8945 -0.3315
  102SAPE   H3R10332   0.699   1.976   5.998 -0.3615 -1.2454 -0.7265
  102SAPE   H3S10333   0.587   2.006   6.134 -0.0013 -0.2806 -0.6513
  102SAPE   C2410334   0.483   1.984   5.943  0.2869  0.3225  0.3741
  102SAPE   H4R10335   0.462   2.093   5.952 -0.0823  0.2316  0.6550
  102SAPE   H4S10336   0.387   1.948   5.986 -0.2116  2.8673  1.5561
  102SAPE   C2510337   0.498   1.938   5.798  0.5665  0.7685 -0.5079
  102SAPE   H5R10338   0.534   1.834   5.785 -2.7345 -0.3933 -1.3256
  102SAPE   C2610339   0.457   2.004   5.690 -0.5000  0.4385 -0.0925
  102SAPE   H6R10340   0.477   1.967   5.588 -2.2653  1.3036 -0.8095
  102SAPE   C2710341   0.385   2.137   5.696  0.0467  1.1234 -0.8795
  102SAPE   H7R10342   0.424   2.197   5.611 -1.7199 -0.8278 -3.2394
  102SAPE   H7S10343   0.392   2.189   5.794  4.5767  0.6473 -0.7526
  102SAPE   C2810344   0.243   2.096   5.665 -0.1285  0.0180  0.6015
  102SAPE   H8R10345   0.200   2.025   5.738  2.1012 -0.4067  1.5895
  102SAPE   C2910346   0.162   2.131   5.561  0.1026 -0.1224  0.7170
  102SAPE   H9R10347   0.057   2.098   5.567  0.7313 -2.4813 -0.2975
  102SAPE  C21010348   0.207   2.210   5.437 -0.4074 -0.0142 -0.0522
  102SAPE  H10R10349   0.248   2.310   5.464 -2.0224  0.3647  1.1616
  102SAPE  H10S10350   0.128   2.246   5.368 -0.2777 -0.6619 -0.5507
  102SAPE  C21110351   0.303   2.121   5.364  0.2798 -1.0648 -0.0146
  102SAPE  H11R10352   0.325   2.029   5.420 -0.6256 -0.8898  0.6384
  102SAPE  C21210353   0.361   2.152   5.248 -0.4535  0.1449  0.4150
  102SAPE  H12R10354   0.434   2.077   5.215 -1.5849 -0.5906 -0.5160
  102SAPE  C21310355   0.357   2.282   5.168  0.3218  0.2100 -0.4424
  102SAPE  H13R10356   0.455   2.331   5.186  1.3065 -2.2210  1.5490
  102SAPE  H13S10357   0.275   2.347   5.205 -0.2318 -1.1569  0.8237
  102SAPE  C21410358   0.345   2.274   5.018 -0.9527 -0.0566  0.1975
  102SAPE  H14R10359   0.287   2.188   4.982 -2.2019  0.7838  0.1399
  102SAPE  C21510360   0.406   2.352   4.929  0.4035 -0.0062  0.2730
  102SAPE  H15R10361   0.393   2.321   4.824  2.6018  1.3567 -0.4684
  102SAPE  C21610362   0.505   2.475   4.946  0.7530 -0.5089  0.2675
  102SAPE  H16R10363   0.540   2.496   5.049 -0.4915 -1.3958  0.9026
  102SAPE  H16S10364   0.457   2.568   4.910  2.2012 -1.0564 -3.6229
  102SAPE  C21710365   0.624   2.455   4.852 -0.2281 -0.5353 -0.3902
  102SAPE  H17R10366   0.700   2.531   4.884  1.4000 -2.0370 -0.5178
  102SAPE  H17S10367   0.609   2.467   4.743 -0.3196 -1.5098 -0.4873
  102SAPE  C21810368   0.719   2.336   4.879 -0.2278 -0.2636  0.0431
  102SAPE  H18R10369   0.665   2.239   4.884 -0.5242 -0.2001 -1.5389
  102SAPE  H18S10370   0.761   2.356   4.980 -0.2517  2.0897 -0.3581
  102SAPE  C21910371   0.838   2.337   4.777  0.4723 -0.4554 -0.0118
  102SAPE  H19R10372   0.880   2.439   4.775  1.2294 -0.7481  0.3762
  102SAPE  H19S10373   0.798   2.316   4.675  0.4578 -1.4474  0.1821
  102SAPE  C22010374   0.944   2.238   4.813  0.4294  0.1838  0.6145
  102SAPE  H20R10375   0.993   2.242   4.913 -0.0062 -1.6181  0.9392
  102SAPE  H20S10376   1.025   2.226   4.737  0.3444 -1.0344  0.6911
  102SAPE  H20T10377   0.890   2.141   4.817 -0.0147  0.4022  0.0458
  102SAPE   C3310378   0.709   1.334   5.971 -0.2415 -0.0067 -0.2488
  102SAPE   H3X10379   0.681   1.321   6.077  0.2118  0.5382 -0.0599
  102SAPE   H3Y10380   0.697   1.235   5.922  0.2992 -1.4558  2.3758
  102SAPE   C3410381   0.606   1.422   5.901 -0.5150  0.0872 -0.2168
  102SAPE   H4X10382   0.646   1.442   5.799 -0.2357 -1.5688 -0.4651
  102SAPE   H4Y10383   0.597   1.519   5.953  1.1136  1.0259 -1.5904
  102SAPE   C3510384   0.469   1.351   5.891 -0.3549 -0.3392 -0.2457
  102SAPE   H5X10385   0.424   1.364   5.991 -1.8144  1.3993 -1.0748
  102SAPE   H5Y10386   0.468   1.242   5.870 -0.0155 -0.4597  0.3438
  102SAPE   C3610387   0.379   1.409   5.782 -0.6830 -0.0861  0.7770
  102SAPE   H6X10388   0.283   1.353   5.789 -0.0909 -0.9614  2.5947
  102SAPE   H6Y10389   0.422   1.394   5.681  0.0519 -0.1278  1.0893
  102SAPE   C3710390   0.336   1.555   5.811 -0.5553 -0.0537  0.2022
  102SAPE   H7X10391   0.427   1.618   5.822 -0.0302 -0.6234 -0.7747
  102SAPE   H7Y10392   0.278   1.549   5.906 -1.3226  0.4024 -0.2335
  102SAPE   C3810393   0.247   1.608   5.698  0.2711 -0.1711 -0.0496
  102SAPE   H8X10394   0.211   1.708   5.733 -0.7075 -0.6930  0.4673
  102SAPE   H8Y10395   0.160   1.540   5.683 -0.7706  0.3788  2.7836
  102SAPE   C3910396   0.331   1.624   5.563 -0.1185  0.5684  0.5299
  102SAPE   H9X10397   0.347   1.522   5.521  0.8495  0.7662  0.3978
  102SAPE   H9Y10398   0.438   1.652   5.567 -0.3100  1.4161  0.0192
  102SAPE  C31010399   0.263   1.717   5.457 -0.2822  0.3686 -0.0720
  102SAPE  H10X10400   0.252   1.815   5.509 -0.5371  0.4078 -0.2008
  102SAPE  H10Y10401   0.158   1.693   5.431 -0.1412  0.1156 -0.4124
  102SAPE  C31110402   0.342   1.746   5.335 -0.6088 -0.3205 -0.8010
  102SAPE  H11X10403   0.444   1.770   5.372 -0.7156 -1.2598  0.1290
  102SAPE  H11Y10404   0.291   1.836   5.294  1.5890  0.6600 -1.5247
  102SAPE  C31210405   0.342   1.641   5.223 -0.3486 -0.3992 -0.7486
  102SAPE  H12X10406   0.368   1.547   5.277 -2.3507 -0.2837  0.5490
  102SAPE  H12Y10407   0.419   1.665   5.147  0.0718  1.8505  0.3267
  102SAPE  C31310408   0.210   1.647   5.147 -0.3882 -0.2793  0.0589
  102SAPE  H13X10409   0.129   1.674   5.219 -0.0185  2.5092 -0.4738
  102SAPE  H13Y10410   0.180   1.546   5.112 -0.2789 -0.1081 -0.5467
  102SAPE  C31410411   0.217   1.757   5.043 -0.2254  0.2612 -0.0022
  102SAPE  H14X10412   0.286   1.724   4.962 -1.1119  2.0552 -1.5815
  102SAPE  H14Y10413   0.264   1.851   5.079  2.8476 -1.7087  1.5744
  102SAPE  C31510414   0.088   1.782   4.971  0.6188 -0.0816  0.5014
  102SAPE  H15X10415   0.004   1.801   5.041  0.2760 -1.1068  0.3915
  102SAPE  H15Y10416   0.060   1.691   4.913  0.3156 -0.7660  1.6770
  102SAPE  C31610417   0.087   1.886   4.857 -0.7262 -0.3666 -0.6493
  102SAPE  H16X10418   0.175   1.870   4.791 -0.9513  1.2944 -1.4170
  102SAPE  H16Y10419   0.104   1.988   4.898 -0.1852 -1.1795  1.2699
  102SAPE  C31710420  -0.042   1.869   4.773 -1.1045 -0.4814 -0.5141
  102SAPE  H17X10421  -0.036   1.778   4.710 -0.1102 -2.4755  2.2234
  102SAPE  H17Y10422  -0.039   1.955   4.703  1.3464  1.3507  1.6390
  102SAPE  C31810423  -0.170   1.874   4.849 -0.1486 -0.5050 -0.0272
  102SAPE  H18X10424  -0.191   1.978   4.881 -1.1512 -0.4035 -0.9812
  102SAPE  H18Y10425  -0.177   1.803   4.935 -1.6217 -0.6154 -0.2108
  102SAPE  H18Z10426  -0.250   1.822   4.792 -0.1230 -1.6878  0.9554
  103SAPE     N10427   5.195   0.356   2.177 -0.9095  0.3807  0.3639
  103SAPE   HN110428   5.164   0.260   2.204  1.5915 -1.1592 -1.7074
  103SAPE   HN210429   5.270   0.392   2.239 -2.3227  1.2215  1.6423
  103SAPE   HN310430   5.120   0.427   2.173 -0.4250  0.8788 -3.4811
  103SAPE   C1210431   5.247   0.327   2.040 -0.1907 -0.3784 -0.1500
  103SAPE  H12A10432   5.298   0.229   2.042 -0.9640 -0.7904 -0.1163
  103SAPE  H12B10433   5.318   0.402   1.999 -1.3389  1.0971  0.4781
  103SAPE   C1110434   5.121   0.319   1.946  0.2296 -0.3701 -0.2216
  103SAPE  H11A10435   5.050   0.256   2.003  0.8756  0.2440  1.3060
  103SAPE  H11B10436   5.155   0.266   1.854 -0.9581 -0.5538 -0.5637
  103SAPE     P10437   4.931   0.493   1.973  0.1096 -0.1724 -0.3021
  103SAPE   O1310438   4.918   0.640   1.949  0.2813  0.5652 -0.2905
  103SAPE   O1410439   4.829   0.402   1.929  0.5081 -0.6072 -0.0804
  103SAPE   O1210440   5.071   0.449   1.918  0.0457 -1.3780  0.4786
  103SAPE   O1110441   4.958   0.471   2.130  0.3324 -0.0848 -0.2699
  103SAPE    C110442   4.906   0.569   2.228 -0.4960  0.4703  1.0551
  103SAPE    HA10443   4.957   0.667   2.226 -0.2029  0.3307  1.5870
  103SAPE    HB10444   4.796   0.585   2.223 -0.4800  0.2507 -2.0685
  103SAPE    C210445   4.923   0.509   2.373 -0.3348  0.1204 -0.7316
  103SAPE    HS10446   4.853   0.561   2.441 -1.8413  0.6637 -2.6287
  103SAPE   O2110447   5.057   0.506   2.426  0.5339 -0.1567  0.5494
  103SAPE   C2110448   5.082   0.634   2.473 -0.2336  0.1535  0.1885
  103SAPE   O2210449   5.000   0.725   2.477 -0.1127 -0.4565 -0.0560
  103SAPE   C2210450   5.223   0.636   2.538 -0.4641  0.5716  0.2015
  103SAPE   H2R10451   5.269   0.535   2.527  0.1604  0.9112 -0.3735
  103SAPE   H2S10452   5.287   0.696   2.469 -0.4418  0.8097  0.4305
  103SAPE    C310453   4.867   0.369   2.365 -0.4006  0.7630  0.7352
  103SAPE    HX10454   4.918   0.318   2.280 -3.1741 -0.2862 -0.4080
  103SAPE    HY10455   4.765   0.380   2.323  0.0569  1.3919 -0.2139
  103SAPE   O3110456   4.885   0.287   2.481  1.1337 -0.7113 -0.6720
  103SAPE   C3110457   4.796   0.315   2.576 -0.1861  0.6691 -0.0370
  103SAPE   O3210458   4.692   0.380   2.553 -0.3093 -0.0270 -0.1131
  103SAPE   C3210459   4.825   0.254   2.714  0.2092  0.5656 -0.5670
  103SAPE   H2X10460   4.936   0.255   2.727  0.1562 -0.5639  0.1017
  103SAPE   H2Y10461   4.793   0.149   2.705 -0.0853  0.7391 -1.7035
  103SAPE   C2310462   5.222   0.684   2.686 -0.2178 -0.1724  0.1161
  103SAPE   H3R10463   5.186   0.788   2.676 -0.9315 -0.1455  2.3896
  103SAPE   H3S10464   5.326   0.694   2.723 -0.2396  1.2002 -0.1392
  103SAPE   C2410465   5.138   0.604   2.789 -0.4066  0.0588 -0.1383
  103SAPE   H4R10466   5.038   0.585   2.745  0.0645  0.6887 -1.5671
  103SAPE   H4S10467   5.130   0.662   2.883 -1.0248  0.1297 -0.2319
  103SAPE   C2510468   5.210   0.471   2.798 -0.5260 -0.0571  0.3203
  103SAPE   H5R10469   5.206   0.405   2.710 -0.3502 -1.1639  1.1219
  103SAPE   C2610470   5.276   0.423   2.903 -0.6058  0.7446 -0.7406
  103SAPE   H6R10471   5.330   0.328   2.891 -1.6619  0.2974 -2.1748
  103SAPE   C2710472   5.295   0.492   3.037 -0.4557  0.5075 -0.0582
  103SAPE   H7R10473   5.299   0.602   3.030  0.8682  0.5035  0.3903
  103SAPE   H7S10474   5.393   0.467   3.084 -1.0083  1.9065  2.0115
  103SAPE   C2810475   5.186   0.477   3.141  0.0777  0.0882 -0.3021
  103SAPE   H8R10476   5.084   0.510   3.116  0.1154 -1.3108 -2.4918
  103SAPE   C2910477   5.186   0.409   3.258 -0.5787  0.0051 -0.1295
  103SAPE   H9R10478   5.092   0.414   3.314 -0.6066 -0.4566 -0.1329
  103SAPE  C21010479   5.303   0.337   3.317 -0.1458  0.1235  0.1034
  103SAPE  H10R10480   5.366   0.390   3.391  1.1485  1.1695 -1.6639
  103SAPE  H10S10481   5.372   0.317   3.232 -0.1231  0.8546 -0.0566
  103SAPE  C21110482   5.271   0.207   3.390  0.5416  0.5869  0.2434
  103SAPE  H11R10483   5.227   0.123   3.335  0.9117  0.5044  0.0726
  103SAPE  C21210484   5.275   0.179   3.523 -0.1063 -0.1886  0.0960
  103SAPE  H12R10485   5.252   0.073   3.543 -2.2272 -0.2596 -2.1546
  103SAPE  C21310486   5.327   0.267   3.636 -0.4353  0.7659 -0.1881
  103SAPE  H13R10487   5.248   0.343   3.652 -0.0432  1.3112 -0.7747
  103SAPE  H13S10488   5.409   0.333   3.601  0.0670 -0.5757 -1.6724
  103SAPE  C21410489   5.371   0.202   3.765 -0.0301  0.3540  0.0574
  103SAPE  H14R10490   5.457   0.136   3.752 -1.7411 -1.5896 -2.5133
  103SAPE  C21510491   5.306   0.208   3.890 -0.7189  0.7871 -0.2272
  103SAPE  H15R10492   5.360   0.152   3.967 -2.1507 -1.5794 -0.8327
  103SAPE  C21610493   5.180   0.274   3.924  0.3442  0.2104 -0.4984
  103SAPE  H16R10494   5.094   0.207   3.904  1.1059 -0.8629 -0.2837
  103SAPE  H16S10495   5.172   0.370   3.869 -0.6364  1.2264  1.3120
  103SAPE  C21710496   5.172   0.303   4.078  0.2506 -0.8463 -0.5747
  103SAPE  H17R10497   5.200   0.208   4.128 -0.1164  0.5110  2.4694
  103SAPE  H17S10498   5.071   0.329   4.117  0.5717 -1.1827  0.5137
  103SAPE  C21810499   5.274   0.415   4.110  1.1154  0.5118  0.5302
  103SAPE  H18R10500   5.258   0.504   4.047  1.1557  0.1668  0.0264
  103SAPE  H18S10501   5.374   0.374   4.084  1.0790  0.8377 -0.1214
  103SAPE  C21910502   5.282   0.451   4.261  0.1974 -0.5175 -0.0018
  103SAPE  H19R10503   5.350   0.537   4.273  0.8622 -0.8922 -0.9641
  103SAPE  H19S10504   5.333   0.369   4.315 -1.4506 -0.9626  0.9657
  103SAPE  C22010505   5.153   0.486   4.343 -0.1456 -0.5235 -0.2932
  103SAPE  H20R10506   5.080   0.403   4.336  0.3036 -1.3857  3.4072
  103SAPE  H20S10507   5.095   0.571   4.300 -2.6153 -1.4594  0.9653
  103SAPE  H20T10508   5.171   0.500   4.451 -0.4383 -0.0105 -0.3047
  103SAPE   C3310509   4.746   0.317   2.829 -0.3779 -0.2790 -0.2494
  103SAPE   H3X10510   4.735   0.232   2.900 -0.6417  0.4724  0.6358
  103SAPE   H3Y10511   4.649   0.355   2.790 -0.3562 -0.2598 -0.2845
  103SAPE   C3410512   4.823   0.434   2.891 -0.2266 -0.5445  0.1568
  103SAPE   H4X10513   4.816   0.531   2.838 -3.2455  0.0436  1.4216
  103SAPE   H4Y10514   4.931   0.409   2.902  0.8198  1.6202 -3.4418
  103SAPE   C3510515   4.772   0.463   3.031  0.1389  0.1786  0.7219
  103SAPE   H5X10516   4.666   0.486   3.007 -0.2547 -0.3788  1.8189
  103SAPE   H5Y10517   4.831   0.553   3.060  1.3265 -0.3121 -0.0725
  103SAPE   C3610518   4.791   0.348   3.133  0.0407  0.1434 -0.4919
  103SAPE   H6X10519   4.890   0.298   3.124 -0.1069  0.0417 -1.7070
  103SAPE   H6Y10520   4.711   0.272   3.118  0.8308 -1.2437  1.8070
  103SAPE   C3710521   4.778   0.400   3.277 -1.2222  0.2360  0.6993
  103SAPE   H7X10522   4.681   0.453   3.286 -1.0217  0.9565 -1.1142
  103SAPE   H7Y10523   4.853   0.478   3.303 -2.0141  1.1843  0.1620
  103SAPE   C3810524   4.805   0.284   3.377 -0.1164 -0.7100  0.2840
  103SAPE   H8X10525   4.911   0.253   3.368  0.4041  1.4628 -1.8998
  103SAPE   H8Y10526   4.749   0.191   3.353  0.6981 -1.5865  1.6753
  103SAPE   C3910527   4.771   0.331   3.516 -0.3787  0.7600  0.2120
  103SAPE   H9X10528   4.663   0.358   3.515 -0.3581  0.9862 -2.3396
  103SAPE   H9Y10529   4.825   0.424   3.545 -1.0765  0.7336  1.7058
  103SAPE  C31010530   4.798   0.221   3.630 -0.1763  0.1167  0.4298
  103SAPE  H10X10531   4.905   0.192   3.622 -0.4693 -1.1095  0.7261
  103SAPE  H10Y10532   4.736   0.129   3.622  0.1707 -0.1822  1.1007
  103SAPE  C31110533   4.772   0.284   3.771 -0.2428 -0.3865 -0.1905
  103SAPE  H11X10534   4.669   0.326   3.776 -0.8375 -1.9163  1.7933
  103SAPE  H11Y10535   4.847   0.365   3.782 -1.5011  0.8632 -0.5956
  103SAPE  C31210536   4.774   0.169   3.881 -0.2331 -0.9159 -0.5716
  103SAPE  H12X10537   4.871   0.114   3.882 -0.3399 -1.2489  2.9561
  103SAPE  H12Y10538   4.691   0.097   3.866  0.2383 -1.6499  0.2757
  103SAPE  C31310539   4.749   0.239   4.018  0.3298 -0.0841  0.9779
  103SAPE  H13X10540   4.669   0.315   4.003  1.0908  0.3316 -1.4466
  103SAPE  H13Y10541   4.841   0.294   4.047  0.4008 -0.5311  1.6239
  103SAPE  C31410542   4.710   0.148   4.134  0.1060  0.7965 -0.3880
  103SAPE  H14X10543   4.621   0.085   4.114  2.4017 -2.3351 -1.7502
  103SAPE  H14Y10544   4.691   0.208   4.225  2.1253  1.8489 -0.5949
  103SAPE  C31510545   4.823   0.049   4.178  0.4024 -0.3241  0.0957
  103SAPE  H15X10546   4.911   0.107   4.212 -1.1690  1.0014  2.0520
  103SAPE  H15Y10547   4.857  -0.008   4.088 -1.6557 -0.7698 -0.4553
  103SAPE  C31610548   4.789  -0.058   4.286 -0.0221  0.6880  0.2276
  103SAPE  H16X10549   4.755  -0.001   4.375 -1.3450  1.0008 -0.4429
  103SAPE  H16Y10550   4.880  -0.118   4.304 -0.6511 -0.5957 -0.6666
  103SAPE  C31710551   4.673  -0.148   4.245  0.1370 -0.0868  0.5312
  103SAPE  H17X10552   4.687  -0.188   4.142 -3.0279  1.9537 -0.8453
  103SAPE  H17Y10553   4.570  -0.106   4.241  1.1034  2.3548 -1.8222
  103SAPE  C31810554   4.679  -0.279   4.319 -0.0663 -0.5274 -0.4458
  103SAPE  H18X10555   4.602  -0.353   4.288  0.4330 -1.6931  0.9582
  103SAPE  H18Y10556   4.654  -0.256   4.425 -2.5417 -0.6512 -0.9561
  103SAPE  H18Z10557   4.772  -0.338   4.331  0.1551 -0.2576 -0.8375
  104SAPE     N10558   6.103   4.562   2.212  0.6467  0.3645 -0.1325
  104SAPE   HN110559   6.193   4.548   2.262  1.5373  1.5525 -1.3287
  104SAPE   HN210560   6.078   4.471   2.168  1.6255 -0.9629  1.9296
  104SAPE   HN310561   6.119   4.640   2.145 -1.2961  1.3304  0.4499
  104SAPE   C1210562   5.997   4.599   2.314  0.0337 -0.0202  0.5966
  104SAPE  H12A10563   5.992   4.518   2.390  1.3648  2.2023  3.2328
  104SAPE  H12B10564   5.905   4.621   2.255  1.4933 -0.7456 -2.1132
  104SAPE   C1110565   6.032   4.732   2.383 -0.0786  1.1668  0.1869
  104SAPE  H11A10566   6.127   4.717   2.439 -0.0380  0.0258 -0.1722
  104SAPE  H11B10567   5.954   4.746   2.460  0.8955 -2.5525  2.0876
  104SAPE     P10568   5.923   4.931   2.249  0.4428 -0.1193 -0.2707
  104SAPE   O1310569   5.961   5.027   2.145 -0.4370 -0.3411 -0.1471
  104SAPE   O1410570   5.811   4.844   2.212  0.8857 -0.3718 -0.4528
  104SAPE   O1210571   6.047   4.839   2.290  0.1506 -0.2066 -0.1049
  104SAPE   O1110572   5.881   5.007   2.382  0.9662 -0.6223  0.1581
  104SAPE    C110573   5.970   5.084   2.462 -0.9730 -0.4021 -0.3848
  104SAPE    HA10574   6.057   5.018   2.485  1.3772  2.4788 -0.4458
  104SAPE    HB10575   6.013   5.168   2.403 -0.1214 -0.6348 -0.1091
  104SAPE    C210576   5.902   5.119   2.598  0.1890  0.6553  1.0035
  104SAPE    HS10577   5.976   5.167   2.665 -1.8423  0.2042  3.7237
  104SAPE   O2110578   5.847   4.994   2.652 -0.1002  0.3200  0.1305
  104SAPE   C2110579   5.934   4.910   2.704 -0.0443 -0.3095  0.0485
  104SAPE   O2210580   6.054   4.925   2.722 -0.0365  0.3398  0.4602
  104SAPE   C2210581   5.865   4.777   2.747 -0.6138  0.0091 -0.0033
  104SAPE   H2R10582   5.774   4.811   2.801 -1.0465  0.9258 -1.2563
  104SAPE   H2S10583   5.843   4.719   2.655 -0.6031  1.6269 -1.0594
  104SAPE    C310584   5.788   5.227   2.582 -0.2035 -0.5021  0.4686
  104SAPE    HX10585   5.720   5.195   2.501 -0.5338 -0.7269  0.8354
  104SAPE    HY10586   5.833   5.321   2.542  0.9297 -1.0323  0.4467
  104SAPE   O3110587   5.723   5.238   2.706 -0.5606 -0.7194 -0.0801
  104SAPE   C3110588   5.755   5.338   2.789 -0.1063 -0.0126 -0.6433
  104SAPE   O3210589   5.810   5.442   2.756 -0.1883 -0.6514 -0.1145
  104SAPE   C3210590   5.695   5.303   2.930 -0.2688 -0.0541  1.6325
  104SAPE   H2X10591   5.752   5.216   2.967  1.0701 -0.0215 -0.2286
  104SAPE   H2Y10592   5.596   5.256   2.909 -0.1783  0.7264 -0.8700
  104SAPE   C2310593   5.961   4.692   2.834 -0.2456  0.0447 -0.2959
  104SAPE   H3R10594   6.022   4.750   2.907 -0.1097 -1.7715  1.1164
  104SAPE   H3S10595   6.040   4.641   2.775  0.8934 -1.2903  2.2051
  104SAPE   C2410596   5.883   4.566   2.899 -0.6269 -0.0499  0.2319
  104SAPE   H4R10597   5.958   4.501   2.950  0.3392  1.8174  1.3056
  104SAPE   H4S10598   5.833   4.510   2.817 -2.0526  2.2199 -0.5325
  104SAPE   C2510599   5.776   4.611   2.995  0.1348  0.1355  0.0128
  104SAPE   H5R10600   5.687   4.650   2.943  1.4273  0.5536 -1.9962
  104SAPE   C2610601   5.770   4.588   3.129 -0.1294 -0.2982 -0.1563
  104SAPE   H6R10602   5.671   4.618   3.167 -0.5937 -0.8455 -0.9018
  104SAPE   C2710603   5.874   4.530   3.222 -0.3027 -0.0140  0.4078
  104SAPE   H7R10604   5.980   4.539   3.192 -0.0615  0.7121  1.4080
  104SAPE   H7S10605   5.864   4.420   3.223  0.5802 -0.1032  0.1715
  104SAPE   C2810606   5.891   4.554   3.372 -0.4948 -0.1620 -0.5171
  104SAPE   H8R10607   5.994   4.578   3.400 -1.2689  0.7442  1.7741
  104SAPE   C2910608   5.790   4.536   3.461  0.5009 -0.5870 -0.3820
  104SAPE   H9R10609   5.811   4.554   3.567  1.0913  3.5365 -1.0412
  104SAPE  C21010610   5.641   4.504   3.430 -0.8124  0.4463 -0.3676
  104SAPE  H10R10611   5.624   4.397   3.408  1.8697  0.1293 -1.3150
  104SAPE  H10S10612   5.613   4.562   3.339 -0.4216  0.1112 -0.7064
  104SAPE  C21110613   5.551   4.531   3.550  0.0669  0.1102 -0.4326
  104SAPE  H11R10614   5.530   4.441   3.609 -1.6461  1.5835  1.3441
  104SAPE  C21210615   5.509   4.656   3.588  1.1442  0.1438  0.0504
  104SAPE  H12R10616   5.436   4.661   3.670  0.4724 -2.9562 -0.2297
  104SAPE  C21310617   5.528   4.780   3.506 -0.2785 -0.2342 -0.6883
  104SAPE  H13R10618   5.574   4.768   3.406  0.3868  0.4049 -0.4652
  104SAPE  H13S10619   5.594   4.852   3.559 -0.7562  0.3307 -0.8541
  104SAPE  C21410620   5.411   4.868   3.494 -0.0526  0.2770  0.3172
  104SAPE  H14R10621   5.373   4.909   3.589 -0.1655  0.4345  0.2047
  104SAPE  C21510622   5.361   4.913   3.372 -0.6082 -0.8134 -0.1573
  104SAPE  H15R10623   5.281   4.986   3.384  0.5867  0.4901  0.1121
  104SAPE  C21610624   5.405   4.870   3.235 -0.5263  0.4206 -0.0097
  104SAPE  H16R10625   5.318   4.872   3.166 -0.3545  0.7196 -0.2231
  104SAPE  H16S10626   5.442   4.765   3.234  1.7016  1.1314  1.0644
  104SAPE  C21710627   5.507   4.967   3.167  0.0468 -0.3506 -0.1096
  104SAPE  H17R10628   5.602   4.971   3.225  1.4544 -2.0319 -2.1520
  104SAPE  H17S10629   5.454   5.065   3.169  1.1213  0.2479  0.0980
  104SAPE  C21810630   5.542   4.928   3.025 -0.5779 -0.4395  0.1680
  104SAPE  H18R10631   5.583   4.824   3.022 -0.9396 -0.5618 -1.2270
  104SAPE  H18S10632   5.616   5.003   2.991 -0.7229  0.8736  2.5712
  104SAPE  C21910633   5.431   4.936   2.921 -0.2071  0.3254  0.5113
  104SAPE  H19R10634   5.370   5.028   2.928  0.3494  0.8477 -0.9714
  104SAPE  H19S10635   5.364   4.848   2.931  0.0742  0.0266 -0.1515
  104SAPE  C22010636   5.486   4.937   2.774  0.4558  0.2603 -0.0890
  104SAPE  H20R10637   5.566   5.013   2.758  0.4598  0.0070 -1.4053
  104SAPE  H20S10638   5.407   4.970   2.703  0.2176  0.7249  0.3846
  104SAPE  H20T10639   5.519   4.834   2.749 -0.9817 -0.0537 -0.8349
  104SAPE   C3310640   5.682   5.430   3.021 -0.1408 -0.3268  0.4118
  104SAPE   H3X10641   5.629   5.506   2.959 -0.4097  0.4101  1.5089
  104SAPE   H3Y10642   5.783   5.466   3.049  0.6377 -0.5683 -1.9023
  104SAPE   C3410643   5.578   5.415   3.139 -0.3025 -0.9549 -0.0701
  104SAPE   H4X10644   5.486   5.361   3.106 -1.0478  1.1136 -1.5099
  104SAPE   H4Y10645   5.542   5.515   3.171 -0.0321 -0.3573 -1.5905
  104SAPE   C3510646   5.645   5.336   3.253 -0.2248 -0.3396  0.6675
  104SAPE   H5X10647   5.725   5.407   3.283  0.2012  0.2342 -1.6586
  104SAPE   H5Y10648   5.691   5.236   3.237  0.0295 -0.2620  0.9060
  104SAPE   C3610649   5.547   5.316   3.373 -0.0456  0.1476  0.3893
  104SAPE   H6X10650   5.469   5.243   3.343  0.7159 -0.1634 -0.9184
  104SAPE   H6Y10651   5.495   5.410   3.398 -0.6493 -0.5636  1.9460
  104SAPE   C3710652   5.609   5.250   3.497  0.3751 -0.0286  0.2614
  104SAPE   H7X10653   5.692   5.312   3.538  0.4265  0.6831 -0.8750
  104SAPE   H7Y10654   5.644   5.154   3.455  1.0594 -0.2824  1.3789
  104SAPE   C3810655   5.498   5.235   3.602  0.1157  0.2798 -0.3954
  104SAPE   H8X10656   5.431   5.146   3.591 -1.0106  0.9398  0.9240
  104SAPE   H8Y10657   5.428   5.319   3.586 -1.1035 -0.4069  1.1209
  104SAPE   C3910658   5.552   5.265   3.741 -0.3497  0.1594 -0.3101
  104SAPE   H9X10659   5.573   5.374   3.741  4.5462 -0.5092 -2.0160
  104SAPE   H9Y10660   5.645   5.209   3.767 -0.0151  0.7763 -0.1402
  104SAPE  C31010661   5.448   5.233   3.843 -0.1116 -0.0154 -0.8150
  104SAPE  H10X10662   5.416   5.128   3.825  3.4166 -0.9256 -2.7746
  104SAPE  H10Y10663   5.360   5.295   3.816 -1.5691 -1.2437  0.8944
  104SAPE  C31110664   5.475   5.252   3.999  0.1389 -0.2035 -0.7558
  104SAPE  H11X10665   5.538   5.343   4.008 -1.1702  0.7027 -0.5746
  104SAPE  H11Y10666   5.537   5.170   4.040  0.1054 -0.4645 -1.2220
  104SAPE  C31210667   5.343   5.263   4.084  0.0200 -0.5799  0.8345
  104SAPE  H12X10668   5.283   5.170   4.072  1.6526 -1.5080 -0.6993
  104SAPE  H12Y10669   5.277   5.335   4.032  0.4285 -1.1170 -0.4640
  104SAPE  C31310670   5.361   5.306   4.233  0.5850  0.5001 -0.0419
  104SAPE  H13X10671   5.261   5.341   4.267 -0.0903 -1.5179  0.1822
  104SAPE  H13Y10672   5.432   5.390   4.242 -2.1867  3.2104 -1.4214
  104SAPE  C31410673   5.396   5.181   4.318  0.4576  0.6410  0.2973
  104SAPE  H14X10674   5.497   5.140   4.294  0.2233 -0.9394  1.8748
  104SAPE  H14Y10675   5.315   5.106   4.311 -0.5313  1.6094  1.0706
  104SAPE  C31510676   5.404   5.212   4.466 -0.1937  0.1340 -0.3971
  104SAPE  H15X10677   5.311   5.255   4.508 -0.4080  0.2259 -0.9526
  104SAPE  H15Y10678   5.481   5.289   4.489  0.3533 -0.6746  0.5761
  104SAPE  C31610679   5.438   5.092   4.558  0.0865  0.1004 -0.0007
  104SAPE  H16X10680   5.528   5.041   4.517 -0.1804  1.7521 -2.9348
  104SAPE  H16Y10681   5.353   5.020   4.544 -0.1407  0.5374 -0.9653
  104SAPE  C31710682   5.462   5.130   4.705  0.6582  0.0044  0.2186
  104SAPE  H17X10683   5.365   5.169   4.743  1.4035  0.6362  1.5520
  104SAPE  H17Y10684   5.540   5.209   4.715 -0.7723  1.4859  0.2363
  104SAPE  C31810685   5.491   5.017   4.804  0.1298  0.2076 -0.6941
  104SAPE  H18X10686   5.581   4.955   4.786  1.5248  2.1384 -0.7071
  104SAPE  H18Y10687   5.402   4.951   4.807 -0.7335  1.3639  0.1326
  104SAPE  H18Z10688   5.505   5.068   4.902  0.7979  1.8623 -1.6005
  105SAPE     N10689   4.939   3.876   2.224  0.5750 -0.3549 -0.0944
  105SAPE   HN110690   4.848   3.896   2.270 -1.7307  1.5378 -4.7768
  105SAPE   HN210691   4.924   3.891   2.122 -2.1935 -0.2069  0.2443
  105SAPE   HN310692   4.963   3.775   2.227 -1.9607 -1.0682 -0.9110
  105SAPE   C1210693   5.053   3.952   2.277  0.5831 -0.7196 -0.0471
  105SAPE  H12A10694   5.061   3.930   2.385 -1.8537  2.3907  0.9031
  105SAPE  H12B10695   5.040   4.062   2.279  0.8690 -0.6888  0.2880
  105SAPE   C1110696   5.180   3.914   2.197 -0.5946 -0.5651  0.6060
  105SAPE  H11A10697   5.263   3.955   2.258  1.4601 -0.2463 -2.2287
  105SAPE  H11B10698   5.164   3.962   2.099  0.3944 -1.2847  0.0773
  105SAPE     P10699   5.258   3.709   2.057  0.1047 -0.1690 -0.0093
  105SAPE   O1310700   5.146   3.664   1.965  0.1371  0.4614  0.3985
  105SAPE   O1410701   5.358   3.798   1.994 -0.2827 -0.0638  0.4523
  105SAPE   O1210702   5.190   3.776   2.187  0.4412  0.2377  0.1516
  105SAPE   O1110703   5.322   3.580   2.114 -0.2874  0.2734 -0.1728
  105SAPE    C110704   5.355   3.570   2.251  0.3968  0.6558  0.0490
  105SAPE    HA10705   5.262   3.553   2.309  0.4929  0.6449  0.2001
  105SAPE    HB10706   5.420   3.483   2.274 -0.8043 -0.0568  0.8427
  105SAPE    C210707   5.438   3.679   2.326 -0.2933 -0.1169 -0.1039
  105SAPE    HS10708   5.384   3.776   2.318 -0.2815 -0.0895  0.1492
  105SAPE   O2110709   5.566   3.690   2.251  0.0843  0.3496 -0.8212
  105SAPE   C2110710   5.640   3.798   2.273  0.1568 -0.8902  0.5790
  105SAPE   O2210711   5.594   3.895   2.332  0.1493  0.8198  0.0041
  105SAPE   C2210712   5.774   3.788   2.191  0.9858 -0.8091  0.2404
  105SAPE   H2R10713   5.756   3.792   2.082  1.0278 -0.7870  0.2339
  105SAPE   H2S10714   5.818   3.888   2.211 -0.9697  1.0918 -3.7708
  105SAPE    C310715   5.463   3.647   2.480 -0.1960  0.3456  0.3854
  105SAPE    HX10716   5.516   3.732   2.527 -1.3629  1.7468 -0.7296
  105SAPE    HY10717   5.529   3.558   2.473  0.9465  1.2022  0.0671
  105SAPE   O3110718   5.343   3.605   2.542 -0.2152 -0.1613 -0.1347
  105SAPE   C3110719   5.274   3.711   2.567  0.2452 -0.1531 -0.3162
  105SAPE   O3210720   5.310   3.826   2.547  0.0965  0.2610 -0.0258
  105SAPE   C3210721   5.135   3.671   2.605  0.3006 -0.1965  0.7326
  105SAPE   H2X10722   5.118   3.565   2.577 -0.1142  0.3106 -1.0243
  105SAPE   H2Y10723   5.068   3.732   2.543  2.3140  1.3196 -0.0510
  105SAPE   C2310724   5.861   3.682   2.248 -0.3470 -0.2092 -1.0834
  105SAPE   H3R10725   5.946   3.661   2.180  0.1394 -1.7284 -0.0624
  105SAPE   H3S10726   5.790   3.597   2.253 -2.6906  1.7175  0.9238
  105SAPE   C2410727   5.922   3.716   2.385  0.3692 -0.6457  0.6346
  105SAPE   H4R10728   5.890   3.822   2.395 -1.0756 -1.1829  2.2418
  105SAPE   H4S10729   6.032   3.708   2.369  0.3240 -3.2193  1.2118
  105SAPE   C2510730   5.877   3.616   2.486 -0.3019  0.4181  0.1377
  105SAPE   H5R10731   5.864   3.513   2.449  1.0778  0.1690  0.3075
  105SAPE   C2610732   5.831   3.655   2.610  0.5054 -0.2452  0.6527
  105SAPE   H6R10733   5.802   3.571   2.675  1.6809 -0.1089  1.3845
  105SAPE   C2710734   5.828   3.794   2.665 -0.9737  0.0493 -0.0512
  105SAPE   H7R10735   5.876   3.873   2.604  1.7964 -1.3466  0.1755
  105SAPE   H7S10736   5.893   3.785   2.755 -3.3087  0.0787  1.7634
  105SAPE   C2810737   5.697   3.840   2.726 -0.0255  0.6981 -0.7113
  105SAPE   H8R10738   5.640   3.891   2.647  0.3985 -1.1404 -2.2859
  105SAPE   C2910739   5.640   3.802   2.843  0.2953  0.4148  0.0975
  105SAPE   H9R10740   5.544   3.848   2.870 -0.2210 -1.4366  1.6324
  105SAPE  C21010741   5.704   3.715   2.948  0.1915 -0.2482  0.1275
  105SAPE  H10R10742   5.810   3.746   2.952 -0.1750  0.9821  2.3322
  105SAPE  H10S10743   5.681   3.609   2.927  0.8597 -0.7031  1.5853
  105SAPE  C21110744   5.664   3.722   3.097 -0.3777  0.0213  0.2414
  105SAPE  H11R10745   5.615   3.817   3.121 -0.3986  0.3855 -1.1176
  105SAPE  C21210746   5.714   3.643   3.197 -0.4963 -0.1624  0.2967
  105SAPE  H12R10747   5.667   3.645   3.296 -1.7619  1.5297 -0.2970
  105SAPE  C21310748   5.805   3.522   3.178 -0.5287  0.7265  0.4683
  105SAPE  H13R10749   5.888   3.513   3.251 -0.6793 -0.2885  0.5251
  105SAPE  H13S10750   5.859   3.531   3.081 -0.8834 -1.0277  0.0881
  105SAPE  C21410751   5.724   3.399   3.175 -0.0977 -0.5676 -0.1721
  105SAPE  H14R10752   5.688   3.360   3.271  0.3541 -0.1305  0.1771
  105SAPE  C21510753   5.674   3.334   3.068 -0.4532  0.1167 -0.0288
  105SAPE  H15R10754   5.614   3.245   3.089  0.3785 -0.0355  1.9494
  105SAPE  C21610755   5.693   3.361   2.919 -0.2127  0.2551  1.1003
  105SAPE  H16R10756   5.784   3.423   2.900 -0.2470 -0.1433 -0.4931
  105SAPE  H16S10757   5.610   3.425   2.883 -0.9819 -0.3496  1.7811
  105SAPE  C21710758   5.701   3.230   2.846  0.3686  0.2323 -0.0753
  105SAPE  H17R10759   5.606   3.172   2.848  0.5520 -0.0960 -0.5665
  105SAPE  H17S10760   5.788   3.170   2.879  0.3766 -0.4433 -1.2911
  105SAPE  C21810761   5.714   3.262   2.689  0.5837 -0.0724 -0.2505
  105SAPE  H18R10762   5.705   3.168   2.631 -0.2712 -0.0928 -0.0926
  105SAPE  H18S10763   5.814   3.304   2.665  0.2042  1.2147  0.3028
  105SAPE  C21910764   5.602   3.351   2.636  0.4615 -0.6294  0.0542
  105SAPE  H19R10765   5.613   3.372   2.528  2.1674  0.5192  0.3988
  105SAPE  H19S10766   5.611   3.447   2.692  1.5815  0.8382 -2.4708
  105SAPE  C22010767   5.463   3.299   2.655 -0.6307  0.6322  0.3638
  105SAPE  H20R10768   5.427   3.296   2.760  1.3446  0.0495  1.0525
  105SAPE  H20S10769   5.458   3.201   2.602  2.6262 -0.0861  1.2086
  105SAPE  H20T10770   5.389   3.367   2.606 -0.7202  1.7890  2.0424
  105SAPE   C3310771   5.108   3.683   2.755 -0.2975  0.5567  0.0452
  105SAPE   H3X10772   5.012   3.627   2.764 -0.1277  0.3936  0.9920
  105SAPE   H3Y10773   5.099   3.789   2.785  1.6206 -0.1502  3.6547
  105SAPE   C3410774   5.213   3.608   2.843 -0.2084 -0.1132 -0.2708
  105SAPE   H4X10775   5.309   3.663   2.856  0.1827 -0.7403 -0.4585
  105SAPE   H4Y10776   5.237   3.512   2.792  0.3243  0.4953 -1.2117
  105SAPE   C3510777   5.169   3.596   2.987 -0.5187  0.3511 -0.1596
  105SAPE   H5X10778   5.074   3.539   2.998  1.1766 -2.7115 -0.2588
  105SAPE   H5Y10779   5.153   3.696   3.033  2.1025  1.1266 -0.8047
  105SAPE   C3610780   5.276   3.521   3.067  0.8817  0.1241 -0.3255
  105SAPE   H6X10781   5.382   3.554   3.064  1.8049 -2.6610 -0.9448
  105SAPE   H6Y10782   5.277   3.417   3.029 -3.0317 -0.8671  1.6591
  105SAPE   C3710783   5.256   3.509   3.216  0.6322 -0.1012 -0.1947
  105SAPE   H7X10784   5.148   3.485   3.224  0.8172 -1.1864 -0.7091
  105SAPE   H7Y10785   5.277   3.608   3.261  0.8211 -0.8216  1.3578
  105SAPE   C3810786   5.329   3.387   3.280  0.3748  0.0287 -0.1070
  105SAPE   H8X10787   5.437   3.408   3.268  0.5150 -0.5684  0.1094
  105SAPE   H8Y10788   5.300   3.290   3.234 -1.0588 -1.5037  3.6286
  105SAPE   C3910789   5.298   3.375   3.430 -0.2121  0.1633  0.5584
  105SAPE   H9X10790   5.369   3.296   3.462 -0.3205  0.9220  2.8265
  105SAPE   H9Y10791   5.196   3.335   3.449 -0.3776  0.0242 -0.5660
  105SAPE  C31010792   5.321   3.492   3.520  0.2105  0.0323 -0.2491
  105SAPE  H10X10793   5.292   3.473   3.626  1.4481 -0.8508 -0.0433
  105SAPE  H10Y10794   5.263   3.582   3.490  0.2303  0.6307  1.3709
  105SAPE  C31110795   5.470   3.538   3.525  0.0092  0.0995  0.1093
  105SAPE  H11X10796   5.458   3.631   3.584 -0.5680 -0.9396  1.6951
  105SAPE  H11Y10797   5.495   3.564   3.420 -3.1615  1.5815 -0.4047
  105SAPE  C31210798   5.559   3.432   3.600 -0.6829  0.2575 -0.1482
  105SAPE  H12X10799   5.560   3.328   3.562  1.6184 -0.1411  0.8394
  105SAPE  H12Y10800   5.522   3.435   3.705 -3.7513  1.1259 -1.1510
  105SAPE  C31310801   5.709   3.472   3.604 -0.9983 -0.7908 -0.1477
  105SAPE  H13X10802   5.710   3.566   3.663 -0.7457  0.2439 -1.7439
  105SAPE  H13Y10803   5.761   3.486   3.506 -0.1743  0.2920  0.4190
  105SAPE  C31410804   5.804   3.364   3.661  0.7584  0.2908 -0.9218
  105SAPE  H14X10805   5.902   3.408   3.688 -0.2072  0.8503  1.9887
  105SAPE  H14Y10806   5.821   3.286   3.583 -2.1580 -2.2727  0.7716
  105SAPE  C31510807   5.745   3.291   3.779  0.1262 -0.0843  0.1474
  105SAPE  H15X10808   5.651   3.240   3.751 -0.5062  0.8848  0.4636
  105SAPE  H15Y10809   5.710   3.365   3.854 -0.3644 -0.1477 -0.0168
  105SAPE  C31610810   5.850   3.197   3.826  0.4918  0.8824 -0.1531
  105SAPE  H16X10811   5.937   3.248   3.873  0.1837  0.9145  0.3897
  105SAPE  H16Y10812   5.879   3.131   3.741  0.0098  0.5271 -0.0453
  105SAPE  C31710813   5.806   3.114   3.943 -0.0824 -0.7176 -0.5391
  105SAPE  H17X10814   5.708   3.067   3.922 -0.8211  1.1107 -1.3488
  105SAPE  H17Y10815   5.783   3.181   4.028 -0.9819  1.2738 -2.2741
  105SAPE  C31810816   5.908   3.001   3.977  0.2214 -0.3682 -0.1681
  105SAPE  H18X10817   5.923   2.930   3.893  1.8721  0.1612 -0.3482
  105SAPE  H18Y10818   5.866   2.955   4.070  1.3246 -1.1475 -0.0420
  105SAPE  H18Z10819   6.000   3.059   4.000  0.4314 -1.0561  0.7875
  106SAPE     N10820   2.003   5.231   2.228  0.5116  0.5606  0.1571
  106SAPE   HN110821   1.964   5.222   2.324  0.2726  0.1174  0.0214
  106SAPE   HN210822   2.040   5.139   2.198  0.3342  1.3532 -2.8091
  106SAPE   HN310823   2.076   5.306   2.223  0.4232  0.5786 -1.1322
  106SAPE   C1210824   1.888   5.243   2.128 -0.2423  0.4952  0.1418
  106SAPE  H12A10825   1.829   5.149   2.129  0.0144  0.2745 -1.7145
  106SAPE  H12B10826   1.926   5.255   2.024 -0.9376  0.6663 -0.0932
  106SAPE   C1110827   1.805   5.356   2.176  0.1218  0.4849  0.1923
  106SAPE  H11A10828   1.780   5.348   2.284 -0.5297 -0.0536  0.0076
  106SAPE  H11B10829   1.707   5.351   2.125 -0.1386 -0.5433  0.7698
  106SAPE     P10830   1.806   5.619   2.183 -0.4675 -0.2717  0.3342
  106SAPE   O1310831   1.865   5.711   2.082 -0.1961  0.1479  0.2177
  106SAPE   O1410832   1.657   5.611   2.191  0.4784 -0.4455 -0.0309
  106SAPE   O1210833   1.870   5.477   2.155 -0.4979  0.3628 -0.2692
  106SAPE   O1110834   1.860   5.655   2.333 -0.1955  0.0072  0.4153
  106SAPE    C110835   2.004   5.638   2.354  0.1770 -0.3957 -0.1633
  106SAPE    HA10836   2.030   5.530   2.364 -0.9589 -0.5453  1.5463
  106SAPE    HB10837   2.065   5.684   2.274 -2.4755  0.7097 -1.6607
  106SAPE    C210838   2.049   5.715   2.478  0.0541  0.5588  0.2393
  106SAPE    HS10839   2.159   5.703   2.487  0.0251  0.0475 -0.0882
  106SAPE   O2110840   1.989   5.670   2.602  0.3720 -0.3159  0.3812
  106SAPE   C2110841   2.042   5.558   2.651  0.4683 -0.2358 -0.7821
  106SAPE   O2210842   2.111   5.477   2.591  0.1172 -0.2627 -0.4399
  106SAPE   C2210843   2.011   5.550   2.801  0.4181  0.1788 -0.3799
  106SAPE   H2R10844   1.993   5.652   2.842 -0.6595 -0.4272  0.7001
  106SAPE   H2S10845   1.918   5.490   2.808 -0.1514  1.1900  1.3142
  106SAPE    C310846   2.025   5.871   2.454  0.1012  0.4609  0.8167
  106SAPE    HX10847   1.916   5.884   2.436  0.2215  0.7553  0.2611
  106SAPE    HY10848   2.066   5.906   2.357 -1.0294  1.3201  0.6201
  106SAPE   O3110849   2.055   5.946   2.572  0.2938 -0.2599 -0.2431
  106SAPE   C3110850   2.177   6.000   2.586 -0.0396 -0.3009 -0.3024
  106SAPE   O3210851   2.273   5.975   2.508 -0.0090  0.4148 -0.6338
  106SAPE   C3210852   2.183   6.094   2.708  0.7448 -0.3668  0.1893
  106SAPE   H2X10853   2.109   6.054   2.780  0.1516 -1.6622 -1.0866
  106SAPE   H2Y10854   2.140   6.194   2.683 -2.7075 -1.6143  0.6131
  106SAPE   C2310855   2.105   5.465   2.886 -0.2971  0.9534  0.2886
  106SAPE   H3R10856   2.188   5.423   2.826 -0.8215 -1.3926  1.0748
  106SAPE   H3S10857   2.051   5.385   2.941 -0.8159  1.8474  1.1160
  106SAPE   C2410858   2.169   5.555   3.000 -0.1332  0.0644 -0.5706
  106SAPE   H4R10859   2.091   5.595   3.068  0.4276  0.2255 -0.0151
  106SAPE   H4S10860   2.213   5.648   2.959  2.8773 -1.2335 -0.5110
  106SAPE   C2510861   2.274   5.471   3.068 -0.2928  0.1315  0.0451
  106SAPE   H5R10862   2.344   5.423   2.999 -0.6154 -1.2811  0.6637
  106SAPE   C2610863   2.275   5.443   3.193  0.1090 -0.4809 -0.1840
  106SAPE   H6R10864   2.356   5.379   3.232 -0.7381 -2.1199 -1.0060
  106SAPE   C2710865   2.177   5.483   3.298  0.7139 -0.4321 -0.2349
  106SAPE   H7R10866   2.150   5.591   3.294 -0.2386 -0.6736 -0.7362
  106SAPE   H7S10867   2.235   5.472   3.392 -2.4132 -0.1766  1.8994
  106SAPE   C2810868   2.049   5.408   3.312 -0.3314  0.1104 -0.1198
  106SAPE   H8R10869   1.996   5.380   3.219 -2.2429  1.2570  0.5673
  106SAPE   C2910870   1.987   5.377   3.438  0.0966  0.2596  0.2189
  106SAPE   H9R10871   1.899   5.311   3.447  2.0463 -2.3002  1.9421
  106SAPE  C21010872   2.049   5.417   3.566  0.3590 -0.3858 -0.1923
  106SAPE  H10R10873   2.158   5.397   3.563  0.3198 -0.5495 -0.8582
  106SAPE  H10S10874   2.017   5.354   3.652 -0.3741 -0.3255 -0.4122
  106SAPE  C21110875   2.037   5.567   3.599  0.5762  1.1437  0.8607
  106SAPE  H11R10876   2.084   5.635   3.526 -0.2426  1.7790  0.9162
  106SAPE  C21210877   1.971   5.621   3.701  0.7098 -0.3999 -0.3736
  106SAPE  H12R10878   1.966   5.731   3.708  0.5228 -0.4691  0.7682
  106SAPE  C21310879   1.904   5.534   3.806 -0.4838  0.0721  0.1247
  106SAPE  H13R10880   1.980   5.518   3.885  0.7193  2.0096 -0.5559
  106SAPE  H13S10881   1.872   5.436   3.765 -0.4704  0.8645 -1.9314
  106SAPE  C21410882   1.780   5.600   3.855  0.3517 -1.0161  0.2209
  106SAPE  H14R10883   1.716   5.656   3.785  1.0842 -2.3780 -1.6111
  106SAPE  C21510884   1.752   5.595   3.991  0.5894 -0.2491  0.1082
  106SAPE  H15R10885   1.655   5.635   4.026  1.6323  0.8509  1.8610
  106SAPE  C21610886   1.836   5.530   4.098 -0.4800 -0.2485  0.4833
  106SAPE  H16R10887   1.897   5.607   4.149  1.8140 -1.9774  0.5275
  106SAPE  H16S10888   1.897   5.449   4.053 -1.7298 -0.2130 -1.3880
  106SAPE  C21710889   1.736   5.475   4.200 -0.2223  0.5316  0.1377
  106SAPE  H17R10890   1.659   5.408   4.156 -1.1533  1.4561  0.3299
  106SAPE  H17S10891   1.678   5.554   4.252 -1.8045 -0.6059  0.1865
  106SAPE  C21810892   1.805   5.385   4.309  0.3130 -0.3608  0.4460
  106SAPE  H18R10893   1.841   5.303   4.243  0.1024  0.8022 -1.1685
  106SAPE  H18S10894   1.720   5.342   4.367  0.6957 -4.1779 -1.4954
  106SAPE  C21910895   1.908   5.457   4.399  0.1837  0.2315  0.4095
  106SAPE  H19R10896   1.862   5.548   4.443 -1.7017  0.0676 -1.0869
  106SAPE  H19S10897   1.999   5.487   4.343 -1.2730  0.8007 -1.8052
  106SAPE  C22010898   1.950   5.358   4.513  0.4941  0.1737  0.7538
  106SAPE  H20R10899   2.027   5.395   4.584  2.0403  0.1827 -0.8751
  106SAPE  H20S10900   1.990   5.265   4.466 -1.8937 -1.1281  1.1085
  106SAPE  H20T10901   1.860   5.332   4.574 -0.9037  1.8525 -0.4706
  106SAPE   C3310902   2.316   6.105   2.785 -0.0790  1.0042 -0.8013
  106SAPE   H3X10903   2.393   6.128   2.708  1.5990 -0.2440  0.4366
  106SAPE   H3Y10904   2.346   6.006   2.825  2.0180  0.7828 -2.6827
  106SAPE   C3410905   2.319   6.209   2.897 -0.4157  0.9368  0.2340
  106SAPE   H4X10906   2.301   6.315   2.868 -2.5179  0.7202  0.5351
  106SAPE   H4Y10907   2.418   6.206   2.947  0.7211 -1.7659 -1.9583
  106SAPE   C3510908   2.209   6.178   3.007 -0.1860 -0.2927 -0.1733
  106SAPE   H5X10909   2.211   6.069   3.027 -0.4999 -0.7918 -2.5844
  106SAPE   H5Y10910   2.110   6.219   2.979  0.9274  2.3520 -0.5648
  106SAPE   C3610911   2.246   6.256   3.136 -0.2041  0.7550  0.3853
  106SAPE   H6X10912   2.221   6.362   3.116  0.9902  0.8383 -0.8047
  106SAPE   H6Y10913   2.356   6.244   3.150 -0.0991 -2.0172 -1.8979
  106SAPE   C3710914   2.165   6.215   3.251  0.0734 -0.2591  0.3008
  106SAPE   H7X10915   2.154   6.104   3.247  1.9871 -0.4542 -0.7311
  106SAPE   H7Y10916   2.064   6.258   3.235  0.1078 -0.3881 -0.3027
  106SAPE   C3810917   2.224   6.245   3.394 -0.1483  0.4129 -0.2421
  106SAPE   H8X10918   2.256   6.352   3.394 -1.1318  0.7283  0.0999
  106SAPE   H8Y10919   2.311   6.178   3.404  0.4172  0.9972 -1.1076
  106SAPE   C3910920   2.123   6.223   3.502 -0.5062  0.3083  0.2007
  106SAPE   H9X10921   2.084   6.122   3.477  1.0259 -0.5387  1.0278
  106SAPE   H9Y10922   2.051   6.307   3.492  2.3412  2.7771 -1.2881
  106SAPE  C31010923   2.200   6.219   3.634 -0.1108 -0.2563 -0.2489
  106SAPE  H10X10924   2.270   6.304   3.650 -1.0873  0.3159  1.3029
  106SAPE  H10Y10925   2.270   6.132   3.632 -0.9812 -0.9535 -2.0451
  106SAPE  C31110926   2.120   6.216   3.761  1.1998 -0.0618 -0.2053
  106SAPE  H11X10927   2.079   6.113   3.768 -1.0955  0.6646 -1.9822
  106SAPE  H11Y10928   2.047   6.299   3.764  0.5446 -0.5072 -2.2757
  106SAPE  C31210929   2.210   6.245   3.890  0.7177 -0.1557 -0.4366
  106SAPE  H12X10930   2.254   6.346   3.874 -0.6139  0.5618  0.2790
  106SAPE  H12Y10931   2.291   6.170   3.882  1.1661  0.4037 -1.4487
  106SAPE  C31310932   2.134   6.233   4.025  0.5966  0.0022 -0.1228
  106SAPE  H13X10933   2.151   6.135   4.073 -0.8914 -0.7933 -1.1488
  106SAPE  H13Y10934   2.024   6.233   4.012  0.2431 -1.8681  2.2282
  106SAPE  C31410935   2.166   6.351   4.123 -0.4316 -0.0073 -0.4616
  106SAPE  H14X10936   2.100   6.343   4.212 -2.9020  0.0829 -2.1569
  106SAPE  H14Y10937   2.121   6.437   4.068  0.4741 -0.2610 -1.6416
  106SAPE  C31510938   2.315   6.386   4.143 -0.5647 -0.3170  0.0954
  106SAPE  H15X10939   2.328   6.491   4.178 -0.9076 -0.3375  0.2876
  106SAPE  H15Y10940   2.374   6.390   4.049  0.3982 -2.1895  0.5672
  106SAPE  C31610941   2.402   6.293   4.234  0.5052  0.5125 -0.1588
  106SAPE  H16X10942   2.351   6.194   4.241  0.6883  0.3294 -1.2707
  106SAPE  H16Y10943   2.409   6.342   4.333 -0.1271  0.7510 -0.2274
  106SAPE  C31710944   2.543   6.275   4.187 -0.0664  0.0637  0.0010
  106SAPE  H17X10945   2.603   6.368   4.196  0.1537  0.2173 -2.3532
  106SAPE  H17Y10946   2.539   6.252   4.078  0.8156 -1.3814  0.2604
  106SAPE  C31810947   2.616   6.152   4.257  0.4621  0.6097  0.2606
  106SAPE  H18X10948   2.576   6.056   4.218 -0.8877  2.0267 -2.0889
  106SAPE  H18Y10949   2.608   6.153   4.368  1.8935 -0.7485  0.4108
  106SAPE  H18Z10950   2.725   6.159   4.235  1.1773 -2.0135  2.3393
  107SAPE     N10951   5.774   4.412   2.002 -0.2260  0.0523  0.2558
  107SAPE   HN110952   5.772   4.487   2.075  2.4326  0.7055 -0.2133
  107SAPE   HN210953   5.864   4.398   1.951  0.0081 -0.7042  0.8495
  107SAPE   HN310954   5.715   4.451   1.926 -2.7421 -0.2509  1.9469
  107SAPE   C1210955   5.709   4.288   2.045 -0.9545 -0.3454  0.3087
  107SAPE  H12A10956   5.664   4.240   1.955  0.2443  0.7000 -0.8961
  107SAPE  H12B10957   5.620   4.302   2.110 -0.1826  0.7221  1.1632
  107SAPE   C1110958   5.804   4.195   2.121  0.0531 -0.1037 -0.0337
  107SAPE  H11A10959   5.748   4.116   2.176  0.2096 -0.1170  0.1069
  107SAPE  H11B10960   5.852   4.249   2.205 -1.0127  0.2222  0.3866
  107SAPE     P10961   6.047   4.197   2.034 -0.0559  0.1759 -0.3204
  107SAPE   O1310962   6.120   4.189   1.906  0.4797  0.8787 -0.0774
  107SAPE   O1410963   6.040   4.328   2.103 -0.1771  0.1646  0.0516
  107SAPE   O1210964   5.895   4.135   2.028 -0.0501 -0.8229  0.3528
  107SAPE   O1110965   6.118   4.091   2.129 -0.1812  0.4387 -0.0132
  107SAPE    C110966   6.219   4.133   2.221  0.5268  0.0937  0.4923
  107SAPE    HA10967   6.283   4.044   2.239 -0.8416 -1.0686 -0.2132
  107SAPE    HB10968   6.292   4.206   2.180 -0.2428 -0.2218 -1.5388
  107SAPE    C210969   6.166   4.159   2.363 -0.3334  0.4239  0.0481
  107SAPE    HS10970   6.099   4.247   2.354  1.5938  2.0632  1.2036
  107SAPE   O2110971   6.276   4.180   2.448  0.7581 -0.1519 -0.0842
  107SAPE   C2110972   6.328   4.305   2.430 -0.2165  0.5140  0.2384
  107SAPE   O2210973   6.281   4.401   2.372  0.2354  0.1129  0.0340
  107SAPE   C2210974   6.459   4.313   2.507  0.2518 -0.3754 -0.4002
  107SAPE   H2R10975   6.493   4.215   2.548  1.1488 -0.6261 -1.6925
  107SAPE   H2S10976   6.542   4.354   2.446  0.7756  0.5501  0.9052
  107SAPE    C310977   6.074   4.040   2.413  0.3455  0.4669 -0.2581
  107SAPE    HX10978   6.127   3.942   2.412 -0.6266 -0.0772  0.0626
  107SAPE    HY10979   5.990   4.035   2.340 -0.5670  0.0892  0.7888
  107SAPE   O3110980   6.028   4.062   2.552  0.5468  0.6334  0.3705
  107SAPE   C3110981   5.939   4.155   2.578  0.3602 -0.3000  0.0407
  107SAPE   O3210982   5.888   4.228   2.494 -0.1680  0.1672 -0.3100
  107SAPE   C3210983   5.943   4.175   2.722  0.2094 -0.0300 -0.2456
  107SAPE   H2X10984   5.997   4.270   2.740  2.6731 -1.4338  0.1876
  107SAPE   H2Y10985   5.992   4.094   2.780 -1.2978 -1.3338 -0.7184
  107SAPE   C2310986   6.429   4.404   2.624 -0.2856  0.0697  0.1087
  107SAPE   H3R10987   6.380   4.498   2.590 -0.5177 -0.4642 -1.1060
  107SAPE   H3S10988   6.526   4.443   2.662 -1.5008  1.8712  1.4843
  107SAPE   C2410989   6.343   4.342   2.745  0.1307  0.3722 -0.4607
  107SAPE   H4R10990   6.395   4.247   2.768 -0.2526  0.8214  2.7142
  107SAPE   H4S10991   6.240   4.321   2.709  0.4658 -2.5819  0.0816
  107SAPE   C2510992   6.350   4.428   2.869  0.0688  0.3945 -0.4335
  107SAPE   H5R10993   6.412   4.519   2.873 -0.2346  0.5785  0.0389
  107SAPE   C2610994   6.299   4.398   2.989 -0.5116  0.2818  0.2734
  107SAPE   H6R10995   6.299   4.475   3.067 -0.1818  1.7584 -1.1343
  107SAPE   C2710996   6.203   4.283   3.004  0.3182  0.9185 -0.6565
  107SAPE   H7R10997   6.170   4.253   2.903  2.1446 -1.7079 -0.5661
  107SAPE   H7S10998   6.101   4.297   3.046 -0.4617 -0.3943 -2.0478
  107SAPE   C2810999   6.276   4.167   3.072 -0.4111  0.4668 -0.1627
  107SAPE   H8R11000   6.353   4.120   3.009  2.2562  1.9594  1.7812
  107SAPE   C2911001   6.257   4.144   3.203 -0.0276 -0.1541 -0.8844
  107SAPE   H9R11002   6.320   4.061   3.240 -1.3488 -2.2175 -2.9664
  107SAPE  C21011003   6.181   4.218   3.305 -0.5813  0.3782  0.1376
  107SAPE  H10R11004   6.091   4.272   3.268 -1.3905 -0.2195  1.1624
  107SAPE  H10S11005   6.253   4.290   3.350 -0.2489  0.3397 -0.3265
  107SAPE  C21111006   6.138   4.120   3.412  0.6090 -0.0438 -0.4459
  107SAPE  H11R11007   6.114   4.019   3.374  3.7701 -0.8468 -0.6048
  107SAPE  C21211008   6.146   4.151   3.542 -0.1650  0.6351 -0.4768
  107SAPE  H12R11009   6.121   4.073   3.615 -0.4827  2.1784  1.1376
  107SAPE  C21311010   6.169   4.283   3.615  0.3239 -0.2725  0.3824
  107SAPE  H13R11011   6.090   4.353   3.580 -0.7295 -2.4232 -1.7954
  107SAPE  H13S11012   6.266   4.328   3.585 -0.2005 -0.7723 -2.2649
  107SAPE  C21411013   6.154   4.277   3.766 -0.0795 -0.3113 -0.1484
  107SAPE  H14R11014   6.251   4.257   3.814  0.2743  1.6190  0.0327
  107SAPE  C21511015   6.050   4.290   3.845  0.2984 -0.0258  0.0081
  107SAPE  H15R11016   6.063   4.285   3.954 -3.0949 -1.0893  0.4733
  107SAPE  C21611017   5.913   4.330   3.813 -0.2413 -0.1985  0.4772
  107SAPE  H16R11018   5.855   4.237   3.795 -1.0620  0.0600  1.6658
  107SAPE  H16S11019   5.910   4.390   3.720  1.9433  1.1919  1.2262
  107SAPE  C21711020   5.843   4.411   3.927 -0.7959  1.1918 -0.4731
  107SAPE  H17R11021   5.764   4.472   3.879 -2.0612 -0.7914 -1.0313
  107SAPE  H17S11022   5.912   4.490   3.964  0.7031 -1.0740  1.9191
  107SAPE  C21811023   5.794   4.327   4.054 -0.4951 -0.4679 -0.2066
  107SAPE  H18R11024   5.774   4.397   4.138 -0.2305 -1.2596  0.5442
  107SAPE  H18S11025   5.865   4.250   4.092 -2.1124 -2.0721 -0.2695
  107SAPE  C21911026   5.667   4.247   4.009 -0.4737 -0.1513 -0.4502
  107SAPE  H19R11027   5.643   4.178   4.093 -0.5634 -0.9009 -1.0801
  107SAPE  H19S11028   5.695   4.176   3.929 -2.8664 -0.9120 -0.6875
  107SAPE  C22011029   5.546   4.331   3.963 -0.2397  0.3873 -0.2007
  107SAPE  H20R11030   5.558   4.343   3.853  0.6596 -0.5081 -0.2165
  107SAPE  H20S11031   5.526   4.427   4.017  0.8084  1.1358 -1.1008
  107SAPE  H20T11032   5.461   4.263   3.981  0.8323 -1.5210 -1.9619
  107SAPE   C3311033   5.804   4.207   2.777 -0.1722  0.2219  0.0212
  107SAPE   H3X11034   5.741   4.124   2.738 -1.1066  0.5875  0.7073
  107SAPE   H3Y11035   5.780   4.305   2.730 -1.4077  0.1920  0.5534
  107SAPE   C3411036   5.805   4.223   2.934  0.7812  0.2024 -0.3379
  107SAPE   H4X11037   5.703   4.256   2.963  0.7878 -0.8614  0.9807
  107SAPE   H4Y11038   5.875   4.303   2.965  1.7678 -1.2920  1.4753
  107SAPE   C3511039   5.828   4.087   3.005  0.1835  0.3514  0.6525
  107SAPE   H5X11040   5.937   4.077   3.024  0.0261 -0.5150  1.1339
  107SAPE   H5Y11041   5.783   4.004   2.947 -1.2538  2.0340 -0.7672
  107SAPE   C3611042   5.766   4.093   3.143  0.3904  0.1243 -0.3871
  107SAPE   H6X11043   5.658   4.066   3.144  0.1768  0.9331 -0.7703
  107SAPE   H6Y11044   5.776   4.194   3.187 -1.3786  0.6931 -1.2111
  107SAPE   C3711045   5.830   4.006   3.247 -0.2273  1.0390 -0.3966
  107SAPE   H7X11046   5.928   4.047   3.279  0.6718 -0.1408 -1.4942
  107SAPE   H7Y11047   5.846   3.908   3.197 -1.2477  1.2677 -1.1935
  107SAPE   C3811048   5.747   3.988   3.374  0.0999  0.7161 -0.0766
  107SAPE   H8X11049   5.651   3.936   3.356  0.0213  1.2733 -1.4241
  107SAPE   H8Y11050   5.720   4.090   3.407  1.3258  0.6571  1.1966
  107SAPE   C3911051   5.825   3.913   3.483  0.5109 -0.0084 -0.0224
  107SAPE   H9X11052   5.935   3.913   3.465  0.7600 -1.2808  1.3442
  107SAPE   H9Y11053   5.795   3.806   3.476  3.5823 -0.8564 -2.0867
  107SAPE  C31011054   5.802   3.962   3.626 -0.1207 -1.2651  0.6263
  107SAPE  H10X11055   5.692   3.972   3.644 -0.1387 -0.1968  0.0384
  107SAPE  H10Y11056   5.837   4.066   3.644 -2.0819 -0.3753 -0.3227
  107SAPE  C31111057   5.857   3.868   3.733  0.0741 -0.1290  0.4988
  107SAPE  H11X11058   5.951   3.821   3.698  0.8444  2.0777 -0.5252
  107SAPE  H11Y11059   5.782   3.787   3.748 -0.4468  0.0534 -0.9264
  107SAPE  C31211060   5.868   3.934   3.863 -0.2411 -0.4982  0.3210
  107SAPE  H12X11061   5.765   3.975   3.873  0.4352  2.3361 -2.5566
  107SAPE  H12Y11062   5.935   4.023   3.861 -0.6192 -0.1885 -2.3333
  107SAPE  C31311063   5.906   3.838   3.978  0.1963  0.4971 -0.3479
  107SAPE  H13X11064   6.003   3.786   3.965  0.9094  1.7260 -0.0723
  107SAPE  H13Y11065   5.824   3.765   3.997  0.9469 -0.2309  0.1135
  107SAPE  C31411066   5.926   3.905   4.114  0.0507 -0.4037  0.1277
  107SAPE  H14X11067   5.924   3.837   4.201 -0.2457  0.3571  0.7241
  107SAPE  H14Y11068   5.837   3.970   4.128 -1.5060 -2.9128  2.9798
  107SAPE  C31511069   6.071   3.968   4.143  0.5011  0.0680 -0.3195
  107SAPE  H15X11070   6.057   4.060   4.204 -2.0139 -0.7716  0.5105
  107SAPE  H15Y11071   6.107   3.989   4.040 -2.6531  0.0207 -1.5414
  107SAPE  C31611072   6.156   3.873   4.225 -0.6326  0.0364  0.7379
  107SAPE  H16X11073   6.145   3.774   4.175 -0.6488  0.7205 -0.6732
  107SAPE  H16Y11074   6.107   3.872   4.325 -0.3079  1.1620  0.9158
  107SAPE  C31711075   6.306   3.911   4.239  0.3377  0.1569  0.1308
  107SAPE  H17X11076   6.358   3.848   4.313  1.2381  1.3436  0.5395
  107SAPE  H17Y11077   6.324   4.020   4.251  0.5030  0.1197  0.2264
  107SAPE  C31811078   6.385   3.870   4.113 -0.5041 -0.2617  0.3311
  107SAPE  H18X11079   6.371   3.761   4.099  1.3111 -0.2509 -2.0121
  107SAPE  H18Y11080   6.491   3.902   4.110 -0.1085 -1.3545  1.4399
  107SAPE  H18Z11081   6.335   3.916   4.025  0.1128  0.4633  0.3463
  108SAPE     N11082   2.704   5.461   1.981  0.1679 -0.1833 -0.0262
  108SAPE   HN111083   2.636   5.384   1.969  0.0963  0.1320 -1.8326
  108SAPE   HN211084   2.784   5.437   1.920 -0.7241  0.1608 -1.3656
  108SAPE   HN311085   2.739   5.475   2.078 -1.8202  1.3824  0.5368
  108SAPE   C1211086   2.626   5.586   1.930  0.5645 -0.9319  0.2364
  108SAPE  H12A11087   2.619   5.669   2.003 -3.9688 -0.9269  0.0568
  108SAPE  H12B11088   2.526   5.538   1.922 -0.4462  0.7151  2.2162
  108SAPE   C1111089   2.674   5.625   1.790  0.3271 -0.0060  0.0985
  108SAPE  H11A11090   2.602   5.692   1.738 -0.7012 -0.3452  1.0367
  108SAPE  H11B11091   2.679   5.533   1.727  0.9645  0.3808 -0.4203
  108SAPE     P11092   2.932   5.609   1.770 -0.1090  0.4393 -0.0632
  108SAPE   O1311093   2.912   5.469   1.814  0.2332 -0.2416 -0.0050
  108SAPE   O1411094   2.972   5.633   1.631  0.1858  0.0772  0.0538
  108SAPE   O1211095   2.799   5.692   1.802 -0.5643  0.2519  0.0752
  108SAPE   O1111096   3.041   5.674   1.867 -0.1482 -0.7834 -0.1095
  108SAPE    C111097   3.069   5.815   1.866 -0.7133  0.0622  0.2249
  108SAPE    HA11098   3.155   5.835   1.800  1.6312 -0.6213  2.8738
  108SAPE    HB11099   2.984   5.872   1.824 -0.8453 -0.5372 -0.3258
  108SAPE    C211100   3.099   5.857   2.015  0.4458  0.3657  0.0742
  108SAPE    HS11101   3.124   5.965   2.007 -0.9929  0.5978 -2.1689
  108SAPE   O2111102   3.215   5.785   2.052  0.0973  0.5668  0.0428
  108SAPE   C2111103   3.310   5.849   2.119 -0.8263  0.2429  0.1229
  108SAPE   O2211104   3.308   5.962   2.156 -0.5813 -0.2335 -0.0958
  108SAPE   C2211105   3.428   5.755   2.157 -0.4328  0.9458 -0.8812
  108SAPE   H2R11106   3.399   5.652   2.128  1.5883  1.1408 -4.1137
  108SAPE   H2S11107   3.514   5.777   2.089  1.5598 -1.8350  0.5110
  108SAPE    C311108   2.983   5.834   2.103  0.2413  0.4655  0.7251
  108SAPE    HX11109   2.946   5.730   2.085  0.3348  0.3789  1.0262
  108SAPE    HY11110   2.901   5.889   2.052 -1.2109 -1.9184  0.2899
  108SAPE   O3111111   2.995   5.891   2.230 -0.0184  0.0255 -0.0653
  108SAPE   C3111112   3.014   5.793   2.322 -0.3042  0.6567  0.1148
  108SAPE   O3211113   3.017   5.673   2.296 -0.0579  0.1317 -0.2919
  108SAPE   C3211114   3.040   5.851   2.461  0.3015 -0.1374 -0.2140
  108SAPE   H2X11115   2.970   5.937   2.468  0.0951 -0.1889 -1.3668
  108SAPE   H2Y11116   3.145   5.884   2.473  0.4471 -0.8667  0.5295
  108SAPE   C2311117   3.471   5.757   2.307 -0.3376 -0.2156 -0.5625
  108SAPE   H3R11118   3.384   5.761   2.376  0.1493  0.9106  0.0086
  108SAPE   H3S11119   3.527   5.851   2.327 -0.2829 -0.6916  1.8120
  108SAPE   C2411120   3.558   5.639   2.364  0.1090  0.2835  0.3879
  108SAPE   H4R11121   3.601   5.674   2.461  0.1411  1.2357  0.0425
  108SAPE   H4S11122   3.643   5.630   2.293 -1.0403  0.7514 -1.0947
  108SAPE   C2511123   3.494   5.501   2.378 -0.1047 -0.5580  0.2106
  108SAPE   H5R11124   3.520   5.431   2.298  3.8672  0.0813  0.6815
  108SAPE   C2611125   3.432   5.464   2.488 -0.2075  0.3595  0.1064
  108SAPE   H6R11126   3.398   5.360   2.481  0.8783  0.0809 -1.5986
  108SAPE   C2711127   3.384   5.544   2.610  0.0351 -0.6370  0.2069
  108SAPE   H7R11128   3.288   5.591   2.580  0.9971  1.2665 -0.0429
  108SAPE   H7S11129   3.447   5.635   2.622  0.8924 -1.5583  4.8173
  108SAPE   C2811130   3.378   5.469   2.745  0.1943  0.3096 -0.1965
  108SAPE   H8R11131   3.313   5.381   2.754  2.5107 -1.2499  2.9147
  108SAPE   C2911132   3.435   5.511   2.857  0.4721 -0.7754 -0.0668
  108SAPE   H9R11133   3.414   5.459   2.952  0.4843 -0.6593 -0.0011
  108SAPE  C21011134   3.535   5.627   2.854  0.4745  0.5514  0.0666
  108SAPE  H10R11135   3.485   5.719   2.891  0.6669  0.6866 -0.0042
  108SAPE  H10S11136   3.571   5.652   2.752 -2.2223  1.2593 -0.7896
  108SAPE  C21111137   3.650   5.597   2.942  0.3478  0.1984 -0.2740
  108SAPE  H11R11138   3.747   5.584   2.892 -0.2758  0.5632 -1.6046
  108SAPE  C21211139   3.654   5.603   3.076 -0.0206  0.4553  0.6621
  108SAPE  H12R11140   3.748   5.582   3.129  0.6581  2.8736  0.5363
  108SAPE  C21311141   3.533   5.611   3.161  0.1482  0.6383 -0.0430
  108SAPE  H13R11142   3.442   5.643   3.108  0.1016  0.0741 -0.3061
  108SAPE  H13S11143   3.551   5.693   3.234 -0.2580 -0.2751  1.1100
  108SAPE  C21411144   3.519   5.485   3.241 -0.8560  0.8008 -0.2493
  108SAPE  H14R11145   3.501   5.397   3.178 -1.9986 -0.4307  1.7202
  108SAPE  C21511146   3.508   5.468   3.372  0.6051 -0.0533 -0.2546
  108SAPE  H15R11147   3.473   5.370   3.407  2.5023 -1.2861 -1.6553
  108SAPE  C21611148   3.515   5.568   3.486  0.1894  0.4677 -0.1117
  108SAPE  H16R11149   3.413   5.601   3.514 -0.7200 -1.5383 -0.8547
  108SAPE  H16S11150   3.566   5.662   3.457 -0.5075  0.2590 -2.2057
  108SAPE  C21711151   3.574   5.507   3.611  0.3546 -0.3384 -0.5532
  108SAPE  H17R11152   3.630   5.585   3.666  0.0681  0.0567 -0.8238
  108SAPE  H17S11153   3.658   5.438   3.588  1.7302  0.6659  1.2013
  108SAPE  C21811154   3.482   5.448   3.719 -0.2624  0.2978 -0.0112
  108SAPE  H18R11155   3.549   5.404   3.796  0.6714 -0.1895 -1.0668
  108SAPE  H18S11156   3.438   5.360   3.667 -2.1990  1.9747 -1.3745
  108SAPE  C21911157   3.381   5.543   3.782 -0.0354 -0.2428 -0.7380
  108SAPE  H19R11158   3.307   5.490   3.847  1.6394 -1.0073  0.6175
  108SAPE  H19S11159   3.321   5.587   3.700  0.6801 -0.8108 -1.5778
  108SAPE  C22011160   3.451   5.649   3.871 -0.6002  0.0921  0.1290
  108SAPE  H20R11161   3.505   5.716   3.802 -1.0942 -0.3379 -0.6958
  108SAPE  H20S11162   3.523   5.599   3.939  0.3998  1.8367  0.3937
  108SAPE  H20T11163   3.383   5.717   3.926 -0.1567  0.5081  0.1625
  108SAPE   C3311164   3.007   5.740   2.562  0.2781  0.4932 -0.0393
  108SAPE   H3X11165   3.076   5.656   2.541 -0.1415 -0.3505  1.7201
  108SAPE   H3Y11166   2.903   5.703   2.550 -0.0779  0.3138  2.9023
  108SAPE   C3411167   3.025   5.780   2.713  0.4021 -0.3440 -0.1074
  108SAPE   H4X11168   2.998   5.883   2.745  0.9679 -0.4907  0.8654
  108SAPE   H4Y11169   3.135   5.793   2.727  0.3659  1.8782 -1.2764
  108SAPE   C3511170   2.967   5.668   2.798  0.8211  0.1652 -0.1442
  108SAPE   H5X11171   2.860   5.688   2.818  0.6324  1.5081 -2.1523
  108SAPE   H5Y11172   2.970   5.570   2.747  0.3760 -1.4869  2.7897
  108SAPE   C3611173   3.046   5.664   2.921  0.2816 -0.2392 -0.3289
  108SAPE   H6X11174   3.071   5.766   2.959 -4.2331  1.2233 -0.7016
  108SAPE   H6Y11175   3.144   5.621   2.890  0.2091 -2.4069  2.1772
  108SAPE   C3711176   2.976   5.599   3.034  0.6735 -0.0829 -0.5098
  108SAPE   H7X11177   2.962   5.491   3.012  1.3079 -0.3204  0.2207
  108SAPE   H7Y11178   2.874   5.641   3.049  0.2565 -1.3627  0.4884
  108SAPE   C3811179   3.054   5.594   3.164  0.1341 -0.4121 -0.0534
  108SAPE   H8X11180   3.159   5.564   3.143 -0.0083 -1.2574  0.3848
  108SAPE   H8Y11181   3.003   5.510   3.216 -1.7257  0.8586  0.2910
  108SAPE   C3911182   3.042   5.714   3.259 -0.0144  0.3525 -0.3448
  108SAPE   H9X11183   3.086   5.809   3.222  1.6501 -1.0239 -2.0645
  108SAPE   H9Y11184   3.104   5.680   3.344  0.7164  0.9716 -0.6256
  108SAPE  C31011185   2.898   5.739   3.303  0.2530 -0.1642  0.1527
  108SAPE  H10X11186   2.857   5.636   3.313  1.9461 -0.8638  0.3066
  108SAPE  H10Y11187   2.836   5.787   3.224  0.9743 -1.2395 -1.1151
  108SAPE  C31111188   2.876   5.825   3.422 -0.4858 -0.7267 -0.0630
  108SAPE  H11X11189   2.768   5.847   3.428 -0.4261 -0.2478 -0.6188
  108SAPE  H11Y11190   2.928   5.921   3.400  0.1666 -0.7188  1.3611
  108SAPE  C31211191   2.925   5.768   3.556  0.2912 -0.3378 -0.0745
  108SAPE  H12X11192   2.901   5.840   3.637 -0.1187  0.6356 -1.0386
  108SAPE  H12Y11193   3.035   5.757   3.544  0.4846  2.2179 -1.3616
  108SAPE  C31311194   2.860   5.634   3.596 -0.2081 -0.0601  0.2465
  108SAPE  H13X11195   2.906   5.624   3.696  0.6167  2.2857  0.1490
  108SAPE  H13Y11196   2.908   5.566   3.523  1.3780  1.5146 -0.2294
  108SAPE  C31411197   2.712   5.640   3.598 -0.7584 -0.3850  0.6230
  108SAPE  H14X11198   2.673   5.651   3.495 -0.8302  1.0722  0.7933
  108SAPE  H14Y11199   2.684   5.722   3.668  0.1595  0.5550 -0.0945
  108SAPE  C31511200   2.648   5.518   3.656 -0.5877 -0.0486 -1.1216
  108SAPE  H15X11201   2.548   5.540   3.701 -0.2942 -1.6006  0.3469
  108SAPE  H15Y11202   2.717   5.472   3.729  0.6390  0.6693 -1.7868
  108SAPE  C31611203   2.639   5.402   3.558 -0.3343  0.6253  0.0995
  108SAPE  H16X11204   2.737   5.380   3.509  0.7916  2.3035  1.4731
  108SAPE  H16Y11205   2.585   5.436   3.468 -2.4201 -1.1167  0.6022
  108SAPE  C31711206   2.568   5.274   3.609 -0.6737 -0.3951  0.3760
  108SAPE  H17X11207   2.582   5.279   3.719 -1.5770  0.8575  0.4709
  108SAPE  H17Y11208   2.609   5.177   3.575  1.7090  0.9672 -0.8750
  108SAPE  C31811209   2.420   5.277   3.571 -0.4779  0.1466 -0.1354
  108SAPE  H18X11210   2.401   5.274   3.461 -1.3615  1.1158 -0.0284
  108SAPE  H18Y11211   2.374   5.375   3.600 -1.8985 -0.4916 -0.1320
  108SAPE  H18Z11212   2.365   5.197   3.624 -0.8598 -0.3838 -1.3003
  109SAPE     N11213   2.196   2.225   2.123 -0.4261  0.9049 -0.5128
  109SAPE   HN111214   2.120   2.158   2.100  0.2551  0.1464 -0.5659
  109SAPE   HN211215   2.267   2.209   2.049  0.8877  1.2367  0.6266
  109SAPE   HN311216   2.242   2.187   2.208 -0.2606 -0.6508 -1.2569
  109SAPE   C1211217   2.148   2.367   2.127 -0.3855  0.2688  0.4209
  109SAPE  H12A11218   2.050   2.361   2.179 -0.5618 -2.0298 -0.0672
  109SAPE  H12B11219   2.131   2.405   2.024  0.2491  1.4917  0.7525
  109SAPE   C1111220   2.248   2.465   2.195  0.3627 -0.8080 -0.8984
  109SAPE  H11A11221   2.265   2.428   2.299 -0.1012 -0.5824 -0.7447
  109SAPE  H11B11222   2.219   2.571   2.205  1.6984 -0.6156  2.1138
  109SAPE     P11223   2.411   2.594   2.025  0.1170  0.6395 -0.4067
  109SAPE   O1311224   2.546   2.582   1.979  0.5175 -0.1726  0.1071
  109SAPE   O1411225   2.304   2.608   1.921  0.3171  0.4799 -0.4720
  109SAPE   O1211226   2.373   2.464   2.115  0.5443 -0.3210 -1.1247
  109SAPE   O1111227   2.400   2.710   2.130  0.0894 -0.5359 -0.2187
  109SAPE    C111228   2.473   2.707   2.256 -0.0734  0.4161  0.3894
  109SAPE    HA11229   2.462   2.615   2.318  0.6742  0.6946  0.9499
  109SAPE    HB11230   2.578   2.734   2.235 -0.3771 -0.8484 -3.5831
  109SAPE    C211231   2.431   2.826   2.346 -0.1217  0.0771  0.3237
  109SAPE    HS11232   2.456   2.917   2.287  2.7736 -1.3748 -0.8538
  109SAPE   O2111233   2.508   2.827   2.462 -0.1342 -0.2185 -0.1889
  109SAPE   C2111234   2.524   2.951   2.513 -0.0441 -0.4897 -0.1204
  109SAPE   O2211235   2.479   3.056   2.469 -1.0868  0.1072  0.3608
  109SAPE   C2211236   2.618   2.947   2.629  0.2925  0.2170  0.2496
  109SAPE   H2R11237   2.707   2.886   2.601 -0.1016 -0.3199  0.1398
  109SAPE   H2S11238   2.641   3.055   2.641 -2.5834  0.9588 -0.3166
  109SAPE    C311239   2.281   2.819   2.382 -0.0962  0.6576  0.0913
  109SAPE    HX11240   2.240   2.718   2.404  0.3586 -0.1456 -2.3513
  109SAPE    HY11241   2.226   2.833   2.286 -0.4730  2.5422  0.5432
  109SAPE   O3111242   2.223   2.908   2.478  0.0971 -0.2930  0.0431
  109SAPE   C3111243   2.183   3.032   2.441  0.0625 -0.6248 -0.3079
  109SAPE   O3211244   2.177   3.066   2.323 -0.1237 -0.3685 -0.0780
  109SAPE   C3211245   2.157   3.120   2.560 -0.8115 -0.3557  0.7220
  109SAPE   H2X11246   2.246   3.127   2.627  0.8183 -0.2515 -1.3737
  109SAPE   H2Y11247   2.065   3.079   2.608 -0.0158 -0.1455  2.4972
  109SAPE   C2311248   2.542   2.893   2.757 -0.5296  0.0148  0.0256
  109SAPE   H3R11249   2.482   2.802   2.735  0.3027 -0.4940 -0.1992
  109SAPE   H3S11250   2.464   2.970   2.774 -0.4394  0.4135 -1.3020
  109SAPE   C2411251   2.632   2.873   2.883  0.4940 -0.2025  0.1415
  109SAPE   H4R11252   2.694   2.965   2.885  0.4727 -0.1898  0.2167
  109SAPE   H4S11253   2.699   2.788   2.861  1.9071  1.0428 -0.5482
  109SAPE   C2511254   2.559   2.847   3.014  1.0059  0.1429  0.0441
  109SAPE   H5R11255   2.494   2.759   3.001 -0.4733  1.4631 -2.1357
  109SAPE   C2611256   2.556   2.920   3.130 -0.7249  0.4347 -0.1134
  109SAPE   H6R11257   2.508   2.873   3.217  1.3249 -2.3951 -0.3419
  109SAPE   C2711258   2.621   3.058   3.153 -0.3292 -0.8582 -0.0881
  109SAPE   H7R11259   2.687   3.093   3.071 -0.2220 -1.4581 -0.2636
  109SAPE   H7S11260   2.676   3.062   3.250  0.8868  1.3879 -0.7900
  109SAPE   C2811261   2.518   3.172   3.154 -0.2442 -0.4420 -0.2627
  109SAPE   H8R11262   2.521   3.223   3.056  0.2261  1.2575  0.6047
  109SAPE   C2911263   2.423   3.219   3.242  0.9227 -0.2417  0.0642
  109SAPE   H9R11264   2.372   3.313   3.215 -1.2169 -1.5999 -0.8462
  109SAPE  C21011265   2.391   3.161   3.378  0.2862  0.2727  0.4989
  109SAPE  H10R11266   2.425   3.241   3.448 -0.4406  0.3816  0.7453
  109SAPE  H10S11267   2.449   3.069   3.396 -1.2063 -0.6584  0.7508
  109SAPE  C21111268   2.249   3.135   3.390  0.3299  0.7101 -0.0952
  109SAPE  H11R11269   2.190   3.199   3.322  0.7193 -0.3296 -1.4590
  109SAPE  C21211270   2.185   3.053   3.479  0.0266  0.1679 -0.3136
  109SAPE  H12R11271   2.075   3.053   3.485  0.0839 -0.4832  1.5454
  109SAPE  C21311272   2.253   2.970   3.585  0.1482 -0.2653  0.3563
  109SAPE  H13R11273   2.314   2.889   3.540 -0.9349 -2.3486  2.4152
  109SAPE  H13S11274   2.174   2.919   3.645  0.8905  1.2391  2.7698
  109SAPE  C21411275   2.322   3.042   3.697  0.4684  0.5331  0.6104
  109SAPE  H14R11276   2.279   3.139   3.725 -1.8739 -0.1129 -0.5282
  109SAPE  C21511277   2.424   2.985   3.762  0.1306  0.4124 -0.6730
  109SAPE  H15R11278   2.479   3.041   3.840  0.7695 -1.6809  0.4602
  109SAPE  C21611279   2.478   2.840   3.753 -0.1313  0.2152 -0.6167
  109SAPE  H16R11280   2.401   2.772   3.709 -0.0030 -0.4376  0.1506
  109SAPE  H16S11281   2.529   2.805   3.845 -1.2845  0.4552  0.1336
  109SAPE  C21711282   2.586   2.845   3.644  0.1544 -0.7330 -0.4053
  109SAPE  H17R11283   2.657   2.928   3.667 -1.2568  1.1110 -2.2588
  109SAPE  H17S11284   2.546   2.862   3.542 -0.8728  0.3264  0.1495
  109SAPE  C21811285   2.664   2.708   3.631 -0.2075  0.8759  0.3584
  109SAPE  H18R11286   2.610   2.630   3.573 -0.0505  1.6703 -0.8866
  109SAPE  H18S11287   2.677   2.660   3.730 -0.7543 -0.1124 -0.0242
  109SAPE  C21911288   2.793   2.719   3.550 -0.1100  0.6769 -0.3171
  109SAPE  H19R11289   2.829   2.614   3.538 -0.9595  0.3487 -0.0692
  109SAPE  H19S11290   2.864   2.781   3.608 -1.0679 -0.6739  2.4666
  109SAPE  C22011291   2.778   2.784   3.414  0.2589 -0.4315  0.2883
  109SAPE  H20R11292   2.710   2.872   3.421  1.1796  0.2758  0.6222
  109SAPE  H20S11293   2.727   2.709   3.351 -0.7555 -0.6265  1.3135
  109SAPE  H20T11294   2.877   2.812   3.372  0.0254  0.8527  0.5384
  109SAPE   C3311295   2.127   3.264   2.514 -0.5823  0.1230 -0.0342
  109SAPE   H3X11296   2.064   3.262   2.422  1.3560  3.5015 -1.6163
  109SAPE   H3Y11297   2.216   3.325   2.487 -0.4987  0.7580  1.5515
  109SAPE   C3411298   2.053   3.336   2.626  0.1814 -0.2597 -0.4094
  109SAPE   H4X11299   1.950   3.297   2.643 -0.3931  0.5126 -1.9444
  109SAPE   H4Y11300   2.043   3.445   2.608 -1.9558 -0.1720  0.9329
  109SAPE   C3511301   2.117   3.331   2.764  0.0276  0.3920 -0.1406
  109SAPE   H5X11302   2.214   3.382   2.783 -0.0030  0.4622 -0.1698
  109SAPE   H5Y11303   2.144   3.229   2.798  1.8891  0.2505 -1.8877
  109SAPE   C3611304   2.016   3.389   2.869 -0.2289 -0.6109  0.1433
  109SAPE   H6X11305   1.916   3.343   2.858 -0.0430 -0.8810 -0.4276
  109SAPE   H6Y11306   1.985   3.490   2.837  3.1308  0.8580  1.0251
  109SAPE   C3711307   2.062   3.387   3.012  0.0618 -0.9468 -0.7581
  109SAPE   H7X11308   2.131   3.467   3.044 -2.4678  1.1554 -0.2500
  109SAPE   H7Y11309   2.096   3.286   3.045 -1.6011 -1.7754 -1.4940
  109SAPE   C3811310   1.948   3.419   3.113  0.2296 -0.2294  0.5554
  109SAPE   H8X11311   1.865   3.352   3.083  2.1553 -1.5588 -2.1646
  109SAPE   H8Y11312   1.917   3.522   3.084 -0.9108 -0.9635 -0.9453
  109SAPE   C3911313   1.997   3.409   3.256 -0.0588 -0.2336 -0.8167
  109SAPE   H9X11314   2.091   3.464   3.274 -0.4567  0.8217 -1.8355
  109SAPE   H9Y11315   2.017   3.300   3.267  0.3863 -0.1248 -0.5535
  109SAPE  C31011316   1.899   3.457   3.358  0.3552  0.5540 -0.5148
  109SAPE  H10X11317   1.799   3.416   3.329  1.4066 -1.2746 -1.8095
  109SAPE  H10Y11318   1.885   3.567   3.356  1.7541  0.9198  2.7936
  109SAPE  C31111319   1.949   3.412   3.498 -0.3014 -0.7551 -0.2675
  109SAPE  H11X11320   2.054   3.445   3.509 -0.5702  0.0353  0.0090
  109SAPE  H11Y11321   1.937   3.302   3.511  0.6471 -0.8264  0.0770
  109SAPE  C31211322   1.879   3.471   3.616  0.2795  0.3888  0.6690
  109SAPE  H12X11323   1.771   3.448   3.625  0.0119  1.7028  1.0276
  109SAPE  H12Y11324   1.882   3.580   3.597  0.8447  0.1749 -0.6095
  109SAPE  C31311325   1.950   3.440   3.741  0.5727  0.2668  0.2603
  109SAPE  H13X11326   2.054   3.479   3.747  1.6206 -2.3117  0.0992
  109SAPE  H13Y11327   1.954   3.331   3.762  1.9388 -0.4789 -3.2668
  109SAPE  C31411328   1.875   3.499   3.866 -0.0706  0.0653  0.9178
  109SAPE  H14X11329   1.768   3.469   3.866  0.4120 -2.1160 -2.2106
  109SAPE  H14Y11330   1.874   3.609   3.859 -0.3966 -0.0719 -2.6492
  109SAPE  C31511331   1.954   3.474   3.998 -0.9121  0.4072 -0.4052
  109SAPE  H15X11332   2.046   3.536   3.993  0.2238 -1.2162 -0.5806
  109SAPE  H15Y11333   1.993   3.370   3.988 -1.5688  0.2144 -1.0369
  109SAPE  C31611334   1.866   3.486   4.125  0.1893  0.4388 -0.1649
  109SAPE  H16X11335   1.924   3.446   4.211 -0.0383 -1.6719 -0.9153
  109SAPE  H16Y11336   1.778   3.419   4.117  0.9843 -0.9895  2.1529
  109SAPE  C31711337   1.805   3.618   4.160  0.5449  0.9406 -0.3531
  109SAPE  H17X11338   1.767   3.653   4.062 -1.9453  0.5041  0.3964
  109SAPE  H17Y11339   1.897   3.671   4.191  0.9930 -0.4594  0.7826
  109SAPE  C31811340   1.708   3.622   4.275  0.1860  0.4536 -0.0530
  109SAPE  H18X11341   1.621   3.558   4.245 -0.8246  1.0348  1.5269
  109SAPE  H18Y11342   1.665   3.724   4.285 -1.4616 -0.3466  1.5545
  109SAPE  H18Z11343   1.743   3.590   4.375  0.9207  0.1729 -0.3901
  110SAPE     N11344   1.341   5.109   1.905  0.1031 -0.1820 -1.4957
  110SAPE   HN111345   1.265   5.065   1.962  0.0179 -0.6789 -1.9792
  110SAPE   HN211346   1.314   5.127   1.806 -0.5630  4.0771 -0.7100
  110SAPE   HN311347   1.412   5.033   1.892 -1.6837 -2.7324  1.9445
  110SAPE   C1211348   1.395   5.235   1.959 -0.2728  0.5150  0.0970
  110SAPE  H12A11349   1.428   5.303   1.877  2.7761 -0.9016  0.0374
  110SAPE  H12B11350   1.488   5.212   2.015  0.8629  1.3972 -1.3359
  110SAPE   C1111351   1.282   5.302   2.038  0.0271  0.0893  0.2464
  110SAPE  H11A11352   1.324   5.395   2.083 -0.3347  1.4417 -2.0256
  110SAPE  H11B11353   1.240   5.244   2.123  2.4977 -0.0936  1.4245
  110SAPE     P11354   1.065   5.421   1.964  0.1121  0.3275 -0.2235
  110SAPE   O1311355   1.075   5.539   1.881  0.4341 -0.2797 -0.5606
  110SAPE   O1411356   0.936   5.347   1.967  0.0845 -0.3102 -0.3156
  110SAPE   O1211357   1.184   5.327   1.935  0.2271  0.3108 -0.1429
  110SAPE   O1111358   1.101   5.476   2.111 -0.0299 -0.2166 -0.1776
  110SAPE    C111359   1.044   5.434   2.230  0.6436  0.1739 -0.0335
  110SAPE    HA11360   1.019   5.326   2.229 -1.6081  0.5998 -2.3391
  110SAPE    HB11361   1.111   5.452   2.317 -2.5154 -0.6707  2.8399
  110SAPE    C211362   0.924   5.529   2.266 -0.4563  0.3771  1.3594
  110SAPE    HS11363   0.840   5.527   2.194 -1.5002  3.2647  2.3801
  110SAPE   O2111364   0.980   5.661   2.268  0.3283  0.2624  0.2690
  110SAPE   C2111365   0.898   5.765   2.258 -0.2014  0.5644  0.9603
  110SAPE   O2211366   0.778   5.756   2.222  0.2747 -0.0445 -0.0899
  110SAPE   C2211367   0.976   5.895   2.287  0.8352 -0.2175 -1.0113
  110SAPE   H2R11368   1.084   5.870   2.275  0.7952 -0.3290 -1.1329
  110SAPE   H2S11369   0.951   5.965   2.205 -0.1662 -1.0946 -1.4714
  110SAPE    C311370   0.863   5.506   2.405  0.3622  0.4124 -0.1979
  110SAPE    HX11371   0.797   5.592   2.430  0.6597  1.0141 -1.3751
  110SAPE    HY11372   0.797   5.417   2.404 -0.4132  0.8845 -3.2600
  110SAPE   O3111373   0.968   5.473   2.496  0.5494 -0.1866  0.7529
  110SAPE   C3111374   1.010   5.580   2.582  0.0144 -0.0440 -0.0453
  110SAPE   O3211375   0.953   5.689   2.589  0.0939  0.8602 -0.0936
  110SAPE   C3211376   1.117   5.521   2.669  0.0961 -0.4181 -0.3349
  110SAPE   H2X11377   1.205   5.514   2.602 -0.8960 -1.5977 -1.5909
  110SAPE   H2Y11378   1.084   5.417   2.691 -1.2473 -0.4478 -2.2357
  110SAPE   C2311379   0.935   5.956   2.426 -0.3934  0.1131  0.3688
  110SAPE   H3R11380   1.003   5.931   2.511 -0.4788 -0.4977  0.2635
  110SAPE   H3S11381   0.834   5.917   2.452 -0.4638 -0.5508 -0.8640
  110SAPE   C2411382   0.929   6.111   2.424  0.6708 -0.2571  0.2615
  110SAPE   H4R11383   0.849   6.148   2.492 -1.3766  0.2193 -2.2523
  110SAPE   H4S11384   0.903   6.143   2.321  2.1257 -2.4985 -0.8876
  110SAPE   C2511385   1.046   6.183   2.451 -0.5880  0.4467 -0.5717
  110SAPE   H5R11386   1.115   6.199   2.367  1.9275 -0.9407  1.1194
  110SAPE   C2611387   1.094   6.206   2.577 -0.7090  0.3649 -0.1612
  110SAPE   H6R11388   1.186   6.267   2.578 -1.1119  0.9814  0.9110
  110SAPE   C2711389   1.043   6.165   2.710 -0.2285  0.8448  0.2863
  110SAPE   H7R11390   0.933   6.154   2.710  0.0046 -4.8995  2.1557
  110SAPE   H7S11391   1.056   6.244   2.788  0.4880  1.3344 -0.3114
  110SAPE   C2811392   1.096   6.032   2.761  1.2524 -0.5143 -0.0543
  110SAPE   H8R11393   1.099   5.951   2.686 -0.0043 -0.4362 -0.2194
  110SAPE   C2911394   1.137   5.999   2.888  0.5560 -0.2418  0.6088
  110SAPE   H9R11395   1.150   5.891   2.900 -0.6444 -0.4148  0.5501
  110SAPE  C21011396   1.140   6.085   3.013  0.5435  0.4304 -0.0740
  110SAPE  H10R11397   1.140   6.194   2.992 -0.5101  0.0628 -2.2633
  110SAPE  H10S11398   1.234   6.063   3.068 -0.2867 -3.5535  0.0955
  110SAPE  C21111399   1.031   6.041   3.105  0.4205  0.5560 -0.1548
  110SAPE  H11R11400   0.934   6.014   3.060 -1.0095  1.5169  2.1680
  110SAPE  C21211401   1.042   6.015   3.241  0.8436  0.6465 -1.2147
  110SAPE  H12R11402   0.953   5.984   3.298 -0.3899  0.9698 -2.8835
  110SAPE  C21311403   1.156   6.048   3.337  0.3861 -0.6877  0.2030
  110SAPE  H13R11404   1.117   6.104   3.424  1.6334  1.7678 -0.7102
  110SAPE  H13S11405   1.216   6.131   3.295  0.5224 -1.4674 -1.2183
  110SAPE  C21411406   1.227   5.923   3.377 -0.2677 -0.1630  0.1993
  110SAPE  H14R11407   1.271   5.875   3.289  0.1522 -1.0302  0.8745
  110SAPE  C21511408   1.258   5.883   3.500  0.3364 -0.6876  0.4828
  110SAPE  H15R11409   1.301   5.782   3.503  2.2789  0.0418 -0.6743
  110SAPE  C21611410   1.205   5.942   3.625 -0.0829 -0.4587 -0.0487
  110SAPE  H16R11411   1.121   6.011   3.598  1.3243  0.6329 -1.8765
  110SAPE  H16S11412   1.273   6.023   3.659  0.2739 -0.3088 -1.0750
  110SAPE  C21711413   1.162   5.842   3.733  0.5703  0.0132  0.1189
  110SAPE  H17R11414   1.251   5.783   3.763  1.2750  0.3148 -1.2800
  110SAPE  H17S11415   1.090   5.774   3.682 -2.4947  3.7188 -1.0409
  110SAPE  C21811416   1.105   5.923   3.847 -0.0920  0.6481  0.3938
  110SAPE  H18R11417   1.007   5.969   3.820 -1.6466 -1.1708  2.5585
  110SAPE  H18S11418   1.178   6.007   3.858  2.9018 -1.0563 -3.7000
  110SAPE  C21911419   1.071   5.831   3.966 -0.5838 -0.3206  0.1466
  110SAPE  H19R11420   1.162   5.798   4.021  1.8305  2.9824 -1.5275
  110SAPE  H19S11421   1.006   5.748   3.929 -1.5472  1.2589 -1.8814
  110SAPE  C22011422   0.986   5.907   4.074 -0.1685 -0.1518  0.3259
  110SAPE  H20R11423   0.906   5.970   4.031 -1.1550 -0.0776  2.1677
  110SAPE  H20S11424   1.058   5.976   4.125  0.5406 -0.4299 -0.2845
  110SAPE  H20T11425   0.955   5.838   4.155  1.4560 -0.8840  0.3605
  110SAPE   C3311426   1.146   5.595   2.800  0.3876 -0.2376 -0.3080
  110SAPE   H3X11427   1.204   5.690   2.796  0.0015  0.0172  0.1216
  110SAPE   H3Y11428   1.217   5.534   2.859  0.7179 -0.1183 -0.5771
  110SAPE   C3411429   1.030   5.606   2.894  0.1714  0.2843  0.6882
  110SAPE   H4X11430   0.965   5.517   2.885 -0.6118  0.9088 -0.0301
  110SAPE   H4Y11431   0.970   5.693   2.858  0.9862 -0.1408 -1.8869
  110SAPE   C3511432   1.066   5.627   3.042 -0.4295 -0.1005 -0.0498
  110SAPE   H5X11433   1.118   5.722   3.066  0.3724 -0.7359  0.8008
  110SAPE   H5Y11434   1.118   5.535   3.077 -0.9874 -0.3187  0.2206
  110SAPE   C3611435   0.939   5.626   3.126  0.1975  0.2157  0.4277
  110SAPE   H6X11436   0.887   5.529   3.108  2.0457 -0.7965  0.3567
  110SAPE   H6Y11437   0.876   5.703   3.076  1.6905  0.3293 -1.3794
  110SAPE   C3711438   0.952   5.649   3.275  0.1760 -0.0750  0.5180
  110SAPE   H7X11439   1.020   5.737   3.280  0.7214 -0.5332  2.1754
  110SAPE   H7Y11440   1.000   5.560   3.322  0.4541  0.1447  0.6549
  110SAPE   C3811441   0.813   5.675   3.340  0.1683 -0.5524 -0.0824
  110SAPE   H8X11442   0.741   5.595   3.312 -0.8822 -0.0022  0.9485
  110SAPE   H8Y11443   0.775   5.767   3.291  1.2610 -0.4691 -0.8086
  110SAPE   C3911444   0.822   5.700   3.493 -0.2824 -0.6159  0.1092
  110SAPE   H9X11445   0.864   5.802   3.508  0.2076 -0.3102 -2.7367
  110SAPE   H9Y11446   0.880   5.614   3.533  2.2631 -0.1299 -2.2314
  110SAPE  C31011447   0.688   5.720   3.561  0.1580 -0.3481  0.1210
  110SAPE  H10X11448   0.633   5.624   3.550  0.7882 -0.8930  1.4485
  110SAPE  H10Y11449   0.638   5.809   3.519  1.5035  0.8246  0.9032
  110SAPE  C31111450   0.712   5.731   3.716  0.4913 -0.0116  0.2220
  110SAPE  H11X11451   0.608   5.756   3.745  1.1337  1.5033  1.3117
  110SAPE  H11Y11452   0.790   5.807   3.739 -0.4560  2.3641 -3.4109
  110SAPE  C31211453   0.729   5.596   3.781 -0.4643 -0.1938  0.0311
  110SAPE  H12X11454   0.832   5.558   3.762  0.2539  1.0177  1.3409
  110SAPE  H12Y11455   0.663   5.520   3.734  1.1149 -0.2932 -2.1799
  110SAPE  C31311456   0.712   5.605   3.932 -0.7032  0.1652 -0.2856
  110SAPE  H13X11457   0.610   5.647   3.947 -0.5446  1.1082 -1.6543
  110SAPE  H13Y11458   0.780   5.668   3.993  1.3925 -1.7212 -0.5361
  110SAPE  C31411459   0.727   5.471   4.007  0.5437  0.0516  0.0110
  110SAPE  H14X11460   0.832   5.435   4.016  1.0127  1.8308  2.6953
  110SAPE  H14Y11461   0.662   5.394   3.959  0.5915  0.4919 -0.7830
  110SAPE  C31511462   0.669   5.480   4.145  0.2800 -0.1903 -0.1792
  110SAPE  H15X11463   0.696   5.578   4.190 -0.8689  0.2316 -0.3767
  110SAPE  H15Y11464   0.717   5.403   4.210  0.2894  1.3576  1.7370
  110SAPE  C31611465   0.520   5.489   4.150 -0.1782  0.3826  0.3678
  110SAPE  H16X11466   0.474   5.395   4.111  0.0494  0.3655  0.1400
  110SAPE  H16Y11467   0.487   5.567   4.078  1.6804 -0.1333 -1.1076
  110SAPE  C31711468   0.451   5.525   4.284 -0.2083  0.0052  0.6497
  110SAPE  H17X11469   0.351   5.571   4.272 -0.0930 -0.0540 -0.6700
  110SAPE  H17Y11470   0.518   5.600   4.331  1.5183 -2.4269  2.3548
  110SAPE  C31811471   0.455   5.408   4.386 -0.7038 -0.3656  0.1220
  110SAPE  H18X11472   0.413   5.311   4.351 -1.8183 -0.0412  0.5185
  110SAPE  H18Y11473   0.394   5.424   4.478 -1.5602 -2.2677 -0.0727
  110SAPE  H18Z11474   0.557   5.389   4.426 -0.3376 -0.5620 -0.8822
  111SAPE     N11475   1.184   0.430   2.191  0.2705  0.1915  0.0195
  111SAPE   HN111476   1.264   0.445   2.127  0.3257  0.6939  0.1993
  111SAPE   HN211477   1.223   0.422   2.287 -1.1795  1.3537  0.7466
  111SAPE   HN311478   1.128   0.348   2.160 -1.7776  0.7534  1.9229
  111SAPE   C1211479   1.090   0.552   2.203 -0.0316  0.0752 -0.1076
  111SAPE  H12A11480   1.051   0.564   2.099  1.9038 -0.2012 -0.9115
  111SAPE  H12B11481   1.153   0.634   2.242  1.0342 -0.8181  0.0824
  111SAPE   C1111482   0.971   0.535   2.303  0.3086 -0.0902 -0.2073
  111SAPE  H11A11483   0.929   0.636   2.321 -0.6395  0.0112 -2.5923
  111SAPE  H11B11484   1.006   0.488   2.398 -1.8460  1.9007  1.6899
  111SAPE     P11485   0.732   0.489   2.199 -0.0810 -0.3809 -0.5086
  111SAPE   O1311486   0.736   0.575   2.083 -0.3276  0.2863  0.0594
  111SAPE   O1411487   0.664   0.358   2.183  0.0113  0.5422 -0.1797
  111SAPE   O1211488   0.873   0.450   2.252 -0.0002 -0.5225 -0.0418
  111SAPE   O1111489   0.669   0.581   2.326 -0.1619  0.4032 -0.3003
  111SAPE    C111490   0.619   0.513   2.437  0.0913  0.6284 -0.7865
  111SAPE    HA11491   0.514   0.546   2.451 -0.9582 -3.0413  1.7615
  111SAPE    HB11492   0.605   0.403   2.424  1.7399  0.4826 -1.5632
  111SAPE    C211493   0.705   0.543   2.563 -0.1115 -0.0167  0.2412
  111SAPE    HS11494   0.810   0.511   2.546  0.2865  1.9069 -1.4022
  111SAPE   O2111495   0.650   0.473   2.676  0.4274 -0.3872  0.6897
  111SAPE   C2111496   0.728   0.469   2.782 -0.7628 -0.2736  1.4577
  111SAPE   O2211497   0.843   0.510   2.793  0.4055 -0.0201  0.6055
  111SAPE   C2211498   0.654   0.400   2.890 -0.2282 -0.2612  0.1988
  111SAPE   H2R11499   0.550   0.434   2.870  0.4635  1.3319 -0.9543
  111SAPE   H2S11500   0.655   0.291   2.866 -3.8706 -0.6274  1.0618
  111SAPE    C311501   0.700   0.698   2.581  0.0050 -0.3210  0.2460
  111SAPE    HX11502   0.593   0.720   2.603  0.5375  0.3879  2.3558
  111SAPE    HY11503   0.720   0.745   2.483 -0.8293  0.2912  0.3531
  111SAPE   O3111504   0.772   0.759   2.690  0.5699  0.0161  0.0349
  111SAPE   C3111505   0.904   0.776   2.679 -0.0660 -0.0368 -0.8342
  111SAPE   O3211506   0.975   0.763   2.579 -0.3119 -0.6796 -0.7367
  111SAPE   C3211507   0.956   0.818   2.817  0.3116 -0.7026 -0.3210
  111SAPE   H2X11508   1.067   0.817   2.815  0.4767  3.1805 -0.4934
  111SAPE   H2Y11509   0.926   0.736   2.886  0.9530 -1.5423 -0.9991
  111SAPE   C2311510   0.707   0.424   3.039 -0.4193 -0.1860  0.3189
  111SAPE   H3R11511   0.795   0.357   3.052 -0.5595 -0.3026  0.6611
  111SAPE   H3S11512   0.631   0.382   3.108  0.0833 -0.7979  0.5157
  111SAPE   C2411513   0.756   0.564   3.077  0.0582  0.3355  0.6665
  111SAPE   H4R11514   0.850   0.591   3.024  0.4668 -0.9969  0.6654
  111SAPE   H4S11515   0.786   0.544   3.182  0.1930 -1.2190  0.3640
  111SAPE   C2511516   0.649   0.671   3.064 -0.0742  0.5171 -0.5357
  111SAPE   H5R11517   0.599   0.686   2.967 -2.2683 -0.1705  0.4347
  111SAPE   C2611518   0.596   0.749   3.163 -0.8032  0.2479 -0.6816
  111SAPE   H6R11519   0.511   0.817   3.145 -1.2385  0.4809  1.9238
  111SAPE   C2711520   0.643   0.741   3.305  0.8300 -0.3135 -0.6763
  111SAPE   H7R11521   0.641   0.638   3.347 -0.6529 -0.1680 -0.3367
  111SAPE   H7S11522   0.559   0.781   3.366  0.9000 -0.8928 -0.1903
  111SAPE   C2811523   0.774   0.812   3.337  0.6946  0.3586  0.6206
  111SAPE   H8R11524   0.809   0.875   3.254 -1.9443 -1.9593 -2.4954
  111SAPE   C2911525   0.845   0.794   3.446 -0.0980 -0.7901 -0.0382
  111SAPE   H9R11526   0.945   0.840   3.447 -0.6074  0.4112 -0.9842
  111SAPE  C21011527   0.809   0.709   3.565 -0.4433  0.1437  0.5501
  111SAPE  H10R11528   0.880   0.624   3.574 -1.0638 -0.9218 -2.9752
  111SAPE  H10S11529   0.711   0.660   3.546 -0.9647  1.9621 -1.9199
  111SAPE  C21111530   0.788   0.778   3.701  0.4613 -0.2635  0.4436
  111SAPE  H11R11531   0.681   0.782   3.729  0.5967 -3.1936  1.7812
  111SAPE  C21211532   0.880   0.830   3.780 -0.1740 -0.3094  0.2399
  111SAPE  H12R11533   0.829   0.882   3.863 -0.2119  3.2695 -1.7887
  111SAPE  C21311534   1.030   0.839   3.764  0.1272 -0.2691  0.4480
  111SAPE  H13R11535   1.063   0.797   3.666 -0.5949 -2.5308  1.1053
  111SAPE  H13S11536   1.065   0.774   3.847  0.4671  1.7202  1.9154
  111SAPE  C21411537   1.106   0.966   3.790 -0.6793 -0.4312 -0.1058
  111SAPE  H14R11538   1.139   1.019   3.700 -0.7837  0.6946  0.5058
  111SAPE  C21511539   1.155   1.006   3.905 -0.5235  0.2148  0.1405
  111SAPE  H15R11540   1.229   1.088   3.901  0.1061 -0.4090 -2.5474
  111SAPE  C21611541   1.155   0.932   4.036  0.4798 -0.0522  0.6237
  111SAPE  H16R11542   1.069   0.865   4.057 -2.0128  3.0444  0.9833
  111SAPE  H16S11543   1.172   0.999   4.123  0.1200 -0.7011  1.2023
  111SAPE  C21711544   1.277   0.843   4.052 -1.1519  0.4540 -0.3748
  111SAPE  H17R11545   1.355   0.852   3.973 -1.0148 -1.0867 -0.4542
  111SAPE  H17S11546   1.253   0.734   4.050 -1.3814  0.4826  0.4275
  111SAPE  C21811547   1.346   0.865   4.188 -0.3798  0.4306  0.3821
  111SAPE  H18R11548   1.353   0.975   4.202 -1.4456  0.2649  2.5807
  111SAPE  H18S11549   1.444   0.813   4.199 -0.5608  0.3494  1.8382
  111SAPE  C21911550   1.265   0.824   4.307 -0.8050  0.2564  0.3126
  111SAPE  H19R11551   1.225   0.723   4.285  1.9151 -1.0658  0.9576
  111SAPE  H19S11552   1.186   0.893   4.342  2.0853  4.0864 -0.0616
  111SAPE  C22011553   1.357   0.809   4.428  0.0457  0.1207 -0.3898
  111SAPE  H20R11554   1.298   0.785   4.519 -2.7366  1.7721 -1.6424
  111SAPE  H20S11555   1.412   0.903   4.449 -2.5572  1.9876 -1.4099
  111SAPE  H20T11556   1.435   0.731   4.420 -0.1115  0.0649 -1.6079
  111SAPE   C3311557   0.887   0.946   2.861  0.2928 -0.3710  0.1859
  111SAPE   H3X11558   0.778   0.938   2.844 -0.0940 -1.7456  2.8504
  111SAPE   H3Y11559   0.910   1.040   2.805  0.5718 -2.1145 -2.8321
  111SAPE   C3411560   0.907   0.964   3.013 -0.6385  0.3950  0.2039
  111SAPE   H4X11561   0.886   0.865   3.059 -2.5164 -0.2907 -1.9229
  111SAPE   H4Y11562   0.830   1.031   3.056 -0.3280  0.0022  1.3944
  111SAPE   C3511563   1.048   1.007   3.053  1.2371  0.2083  0.2060
  111SAPE   H5X11564   1.047   1.104   2.998  0.0845 -0.7532 -1.5538
  111SAPE   H5Y11565   1.127   0.942   3.011  0.2081 -0.3260 -0.9481
  111SAPE   C3611566   1.064   1.036   3.202  0.5603  0.1081 -0.2015
  111SAPE   H6X11567   1.041   0.950   3.270  0.9414 -1.0317 -1.4687
  111SAPE   H6Y11568   0.998   1.118   3.238  0.8382  0.3054 -0.1374
  111SAPE   C3711569   1.203   1.079   3.240 -0.7678 -0.0412 -0.3328
  111SAPE   H7X11570   1.233   1.179   3.204 -3.1762  0.7096 -0.4408
  111SAPE   H7Y11571   1.281   1.015   3.194  0.2005  1.1680 -0.4131
  111SAPE   C3811572   1.218   1.093   3.393 -0.3187  0.0627  0.1846
  111SAPE   H8X11573   1.195   1.000   3.449  1.6806  0.3522  1.5860
  111SAPE   H8Y11574   1.149   1.173   3.425  0.6100  0.2811  1.7571
  111SAPE   C3911575   1.354   1.157   3.434  0.0710  0.8322 -0.2975
  111SAPE   H9X11576   1.358   1.250   3.372 -0.6762  2.0496  1.4061
  111SAPE   H9Y11577   1.434   1.090   3.396 -0.8322 -0.6412  0.3214
  111SAPE  C31011578   1.383   1.176   3.588  0.0380  0.2388 -0.3815
  111SAPE  H10X11579   1.407   1.075   3.628  0.5970  0.9072  1.0168
  111SAPE  H10Y11580   1.287   1.218   3.626 -0.5641 -0.0426 -1.5211
  111SAPE  C31111581   1.490   1.279   3.617 -0.2566 -0.2956  0.2554
  111SAPE  H11X11582   1.442   1.380   3.616 -0.2305 -0.2537  1.3127
  111SAPE  H11Y11583   1.559   1.284   3.530 -1.0814 -0.6242 -0.4295
  111SAPE  C31211584   1.556   1.255   3.746 -0.3047 -0.0840  1.1384
  111SAPE  H12X11585   1.656   1.303   3.745 -0.6275  0.6392  2.0803
  111SAPE  H12Y11586   1.587   1.148   3.752  0.6776 -0.1184 -2.3129
  111SAPE  C31311587   1.471   1.291   3.870  0.1888  0.1540  0.1369
  111SAPE  H13X11588   1.378   1.231   3.865 -0.9238  1.9343 -2.1366
  111SAPE  H13Y11589   1.447   1.399   3.858 -1.9273 -0.1356  1.2745
  111SAPE  C31411590   1.539   1.262   4.004 -0.6102  0.1480  0.0607
  111SAPE  H14X11591   1.637   1.315   3.999  0.0485 -0.9417  1.1046
  111SAPE  H14Y11592   1.567   1.155   4.013  1.4213  0.7404  1.3846
  111SAPE  C31511593   1.466   1.304   4.126  0.1362 -0.4820 -0.0496
  111SAPE  H15X11594   1.365   1.257   4.126  0.6530 -1.6637 -1.2010
  111SAPE  H15Y11595   1.447   1.413   4.118  1.3564 -0.3453 -1.3348
  111SAPE  C31611596   1.538   1.269   4.257 -0.1998  0.4055  0.9445
  111SAPE  H16X11597   1.643   1.287   4.225 -0.8126 -1.1853 -2.4143
  111SAPE  H16Y11598   1.543   1.159   4.277 -0.5939  0.6961  2.9186
  111SAPE  C31711599   1.494   1.328   4.393 -0.2478 -0.5043 -0.2938
  111SAPE  H17X11600   1.484   1.436   4.373  1.4734 -0.0346  1.1757
  111SAPE  H17Y11601   1.564   1.306   4.476 -1.7549  0.8956  1.4544
  111SAPE  C31811602   1.352   1.277   4.442 -0.1206 -0.0208  0.8260
  111SAPE  H18X11603   1.322   1.327   4.536  0.7173  0.3745  0.8920
  111SAPE  H18Y11604   1.343   1.166   4.454 -0.7192 -0.1061 -0.3002
  111SAPE  H18Z11605   1.274   1.291   4.364  0.3670 -0.9621  0.1421
  112SAPE     N11606   3.811   1.276   2.155  0.2062  0.2673  0.1182
  112SAPE   HN111607   3.802   1.273   2.052 -1.8446  0.5943  0.2435
  112SAPE   HN211608   3.789   1.369   2.196  1.6110 -0.2519  2.1754
  112SAPE   HN311609   3.912   1.255   2.168  0.5908  2.0498  0.2316
  112SAPE   C1211610   3.735   1.151   2.198 -0.0080  0.0213  0.5231
  112SAPE  H12A11611   3.770   1.072   2.128  0.0831 -0.2306  0.8499
  112SAPE  H12B11612   3.624   1.151   2.193 -0.0347 -2.1352 -0.0015
  112SAPE   C1111613   3.778   1.116   2.341  0.5948  0.8211  0.4088
  112SAPE  H11A11614   3.735   1.015   2.354  0.4369  0.3674 -2.8098
  112SAPE  H11B11615   3.738   1.187   2.417  3.1757  1.4733  1.2540
  112SAPE     P11616   4.004   1.161   2.478  0.2226  0.0555 -0.4000
  112SAPE   O1311617   4.105   1.062   2.506 -0.9337  0.2461 -0.0149
  112SAPE   O1411618   4.050   1.293   2.438  0.9528  0.0455 -0.0930
  112SAPE   O1211619   3.921   1.109   2.357  0.1815  0.5521  0.2154
  112SAPE   O1111620   3.901   1.175   2.593 -0.1157 -0.7083  0.1551
  112SAPE    C111621   3.958   1.189   2.724 -0.2621 -0.3557  0.3240
  112SAPE    HA11622   3.908   1.114   2.790  0.3033 -0.4654  0.6360
  112SAPE    HB11623   4.065   1.160   2.730 -0.4051 -1.0729 -0.5079
  112SAPE    C211624   3.934   1.330   2.792 -0.2136  0.0987  0.0635
  112SAPE    HS11625   4.034   1.378   2.786 -0.4510  0.4965 -1.0693
  112SAPE   O2111626   3.892   1.321   2.929 -0.7264  0.3591 -0.0033
  112SAPE   C2111627   3.985   1.275   3.012 -0.4659  0.8317 -0.6180
  112SAPE   O2211628   4.099   1.239   2.982  0.7734 -0.2117  0.0773
  112SAPE   C2211629   3.921   1.264   3.159 -0.1062  0.3805  0.5448
  112SAPE   H2R11630   3.922   1.365   3.205 -1.5167  1.2915 -1.2959
  112SAPE   H2S11631   3.812   1.242   3.156 -0.2005  0.7784  0.9288
  112SAPE    C311632   3.843   1.415   2.708  0.8188 -0.0707 -0.1322
  112SAPE    HX11633   3.741   1.375   2.690  0.7108 -0.4694  1.3208
  112SAPE    HY11634   3.886   1.411   2.605  1.4597 -0.2327  0.1356
  112SAPE   O3111635   3.838   1.553   2.757  0.0124 -0.3512  0.6392
  112SAPE   C3111636   3.749   1.625   2.700  0.6980  0.7104 -0.1658
  112SAPE   O3211637   3.673   1.598   2.608  0.3857  0.2569 -0.2873
  112SAPE   C3211638   3.734   1.752   2.773  0.7914  0.0992 -0.2608
  112SAPE   H2X11639   3.697   1.834   2.708 -0.8705  0.8331  1.5139
  112SAPE   H2Y11640   3.836   1.775   2.810  0.6162  1.8956 -0.7977
  112SAPE   C2311641   3.997   1.178   3.258 -0.6827 -0.8270 -0.4499
  112SAPE   H3R11642   4.097   1.218   3.284  0.0598 -3.6555  1.6059
  112SAPE   H3S11643   4.029   1.082   3.212 -1.7159 -1.4988  0.1772
  112SAPE   C2411644   3.914   1.144   3.384  0.0949  0.0392  0.1701
  112SAPE   H4R11645   3.849   1.065   3.342  0.1959  0.1799 -0.2591
  112SAPE   H4S11646   3.866   1.236   3.424 -0.6993 -0.1042 -0.4240
  112SAPE   C2511647   3.990   1.068   3.490 -0.1781 -0.6119  1.1290
  112SAPE   H5R11648   4.028   0.971   3.455 -2.4360 -0.4235 -2.3846
  112SAPE   C2611649   4.017   1.120   3.609  0.4773  0.9414  0.4442
  112SAPE   H6R11650   4.050   1.045   3.682  0.2922 -1.2181 -1.5907
  112SAPE   C2711651   3.975   1.256   3.654  0.1941 -0.2907 -0.4505
  112SAPE   H7R11652   3.864   1.256   3.652  0.1887 -0.0280 -0.1181
  112SAPE   H7S11653   4.009   1.336   3.585 -0.1946  0.8666  0.6595
  112SAPE   C2811654   4.015   1.279   3.798 -0.1390  0.2398 -0.0143
  112SAPE   H8R11655   4.122   1.302   3.813  0.1549 -1.6280  0.9808
  112SAPE   C2911656   3.947   1.271   3.912  0.0614  0.0693 -0.1440
  112SAPE   H9R11657   3.993   1.291   4.010 -0.2995  1.9118 -0.3141
  112SAPE  C21011658   3.809   1.215   3.932  1.0542 -0.4396 -0.3791
  112SAPE  H10R11659   3.733   1.282   3.885 -0.4541 -1.6194  0.2854
  112SAPE  H10S11660   3.780   1.201   4.038 -0.5667  1.2556 -0.5477
  112SAPE  C21111661   3.797   1.078   3.870  0.7421  0.4132 -0.9693
  112SAPE  H11R11662   3.781   1.078   3.761 -0.9585  2.2626 -0.7748
  112SAPE  C21211663   3.805   0.955   3.927 -0.9970 -0.0261 -0.2670
  112SAPE  H12R11664   3.799   0.869   3.859 -1.9953  0.3778 -0.7017
  112SAPE  C21311665   3.843   0.919   4.066 -0.5205 -0.4094 -0.7930
  112SAPE  H13R11666   3.851   1.013   4.126 -0.0433 -0.4276 -0.8256
  112SAPE  H13S11667   3.948   0.883   4.058 -0.3695  0.1198 -1.2363
  112SAPE  C21411668   3.764   0.808   4.125  0.0431  0.1855  0.2916
  112SAPE  H14R11669   3.784   0.708   4.085 -0.9773  0.3071 -0.5631
  112SAPE  C21511670   3.680   0.822   4.226  0.0846 -0.4839 -0.2780
  112SAPE  H15R11671   3.626   0.732   4.259  0.2128 -0.3223  0.3777
  112SAPE  C21611672   3.635   0.952   4.297  0.5759  0.5567  0.1833
  112SAPE  H16R11673   3.675   1.047   4.254  1.5806  1.1394  2.2997
  112SAPE  H16S11674   3.674   0.956   4.401  3.4648  0.8688 -0.8217
  112SAPE  C21711675   3.482   0.949   4.299  0.5773 -0.0644 -0.3429
  112SAPE  H17R11676   3.439   0.867   4.360 -1.1365  1.0892  0.0716
  112SAPE  H17S11677   3.448   0.928   4.195  0.8251  0.5531 -0.5562
  112SAPE  C21811678   3.422   1.080   4.356  0.3278  0.3026  0.1261
  112SAPE  H18R11679   3.460   1.171   4.305  1.5677 -1.0755 -1.5390
  112SAPE  H18S11680   3.473   1.078   4.454 -0.4709  1.2964  0.5912
  112SAPE  C21911681   3.270   1.065   4.386 -0.1782 -0.9618  0.3254
  112SAPE  H19R11682   3.244   0.960   4.415  1.8004 -0.8437  2.9346
  112SAPE  H19S11683   3.221   1.105   4.295 -1.9198 -0.5463  1.3837
  112SAPE  C22011684   3.217   1.149   4.502 -0.5673  0.5008 -0.1264
  112SAPE  H20R11685   3.259   1.098   4.591 -0.9824  1.0818  0.4077
  112SAPE  H20S11686   3.107   1.137   4.511 -0.4503  0.6895  2.3838
  112SAPE  H20T11687   3.254   1.254   4.493  0.7766  0.1041  0.5128
  112SAPE   C3311688   3.622   1.749   2.877 -0.3111  0.4572 -0.3104
  112SAPE   H3X11689   3.538   1.683   2.847  0.3723 -0.1671 -0.8956
  112SAPE   H3Y11690   3.581   1.847   2.909 -1.4128 -0.7095  2.1921
  112SAPE   C3411691   3.686   1.685   3.006  0.1766 -0.4668 -0.0882
  112SAPE   H4X11692   3.765   1.753   3.045  2.0437 -1.5993 -1.7053
  112SAPE   H4Y11693   3.740   1.591   2.982 -0.6904 -1.5387  1.8970
  112SAPE   C3511694   3.580   1.654   3.109  0.0664 -0.1192  0.5167
  112SAPE   H5X11695   3.504   1.589   3.061  2.8736 -1.7996 -2.0310
  112SAPE   H5Y11696   3.529   1.748   3.137  3.4713  1.9756  0.1908
  112SAPE   C3611697   3.634   1.575   3.225 -0.2440  0.3269  0.0346
  112SAPE   H6X11698   3.713   1.637   3.272  2.1309 -0.9717 -1.9685
  112SAPE   H6Y11699   3.687   1.483   3.191 -0.1225  0.3185  0.2440
  112SAPE   C3711700   3.523   1.538   3.332  0.3691  0.5264  0.3788
  112SAPE   H7X11701   3.427   1.501   3.290  1.0549  0.1265 -0.8904
  112SAPE   H7Y11702   3.490   1.634   3.377  1.7715  1.6699 -0.9466
  112SAPE   C3811703   3.573   1.457   3.452 -0.4663 -0.4402  0.5044
  112SAPE   H8X11704   3.669   1.501   3.485 -0.3120 -0.7968  0.5280
  112SAPE   H8Y11705   3.585   1.351   3.422 -0.2900 -0.1531 -0.4648
  112SAPE   C3911706   3.465   1.473   3.566 -0.1088  0.1088  0.5792
  112SAPE   H9X11707   3.367   1.442   3.524  1.0724 -1.2723 -1.3626
  112SAPE   H9Y11708   3.455   1.580   3.592  1.0207  0.2067  0.6619
  112SAPE  C31011709   3.502   1.389   3.689 -0.0667  0.4121 -0.4879
  112SAPE  H10X11710   3.611   1.396   3.711  0.6155 -5.3838 -0.6293
  112SAPE  H10Y11711   3.472   1.283   3.676 -1.4094  0.5688  0.9947
  112SAPE  C31111712   3.423   1.430   3.821 -0.3247  0.1052 -0.6985
  112SAPE  H11X11713   3.423   1.340   3.886 -1.3500  0.1911 -0.5688
  112SAPE  H11Y11714   3.317   1.456   3.800 -0.2754  0.2724 -0.7383
  112SAPE  C31211715   3.487   1.556   3.888 -0.6831 -0.0166  0.0056
  112SAPE  H12X11716   3.479   1.646   3.823 -2.3826  1.2251  1.8212
  112SAPE  H12Y11717   3.595   1.539   3.903 -0.4556  1.4487  0.1714
  112SAPE  C31311718   3.425   1.590   4.025 -0.4417 -0.5224  0.0091
  112SAPE  H13X11719   3.315   1.579   4.014 -0.7233  0.6715  1.3649
  112SAPE  H13Y11720   3.441   1.696   4.055 -0.3042  0.0733 -1.9663
  112SAPE  C31411721   3.482   1.502   4.141  0.4990  0.6631  0.7229
  112SAPE  H14X11722   3.482   1.400   4.099 -0.9226  1.1617 -0.5863
  112SAPE  H14Y11723   3.420   1.505   4.233  1.6364 -1.1100  1.5860
  112SAPE  C31511724   3.609   1.559   4.175  0.1392  0.5650  0.1936
  112SAPE  H15X11725   3.605   1.668   4.191  4.0876  1.0042 -0.6481
  112SAPE  H15Y11726   3.681   1.540   4.092  2.1655  1.8962  1.5670
  112SAPE  C31611727   3.674   1.499   4.300 -0.2819  0.2452 -0.7429
  112SAPE  H16X11728   3.602   1.502   4.385  1.0647  0.2827  0.4303
  112SAPE  H16Y11729   3.757   1.572   4.317  0.6757 -0.5222 -1.9531
  112SAPE  C31711730   3.724   1.355   4.283 -0.1620  0.0839  0.1946
  112SAPE  H17X11731   3.800   1.356   4.202  1.5720 -2.7974  1.6384
  112SAPE  H17Y11732   3.648   1.281   4.250 -0.1394  0.8681 -1.7680
  112SAPE  C31811733   3.802   1.302   4.402  0.1425  0.3387  0.7704
  112SAPE  H18X11734   3.866   1.215   4.376 -0.8175 -0.0156 -0.5114
  112SAPE  H18Y11735   3.735   1.263   4.482  0.6274 -1.3111  0.4151
  112SAPE  H18Z11736   3.858   1.387   4.447  0.3343  0.4323  0.3605
  113SAPE     N11737   4.649   0.240   1.811  0.3104 -0.1481 -0.0626
  113SAPE   HN111738   4.728   0.284   1.861  1.3608 -0.9384 -0.9712
  113SAPE   HN211739   4.689   0.146   1.792 -0.0575  0.0285 -1.8813
  113SAPE   HN311740   4.636   0.282   1.716  1.0237 -0.4584 -0.3022
  113SAPE   C1211741   4.517   0.245   1.878 -0.1184  0.7750 -0.0731
  113SAPE  H12A11742   4.465   0.156   1.837 -0.2689 -0.3917  2.4672
  113SAPE  H12B11743   4.480   0.349   1.865  0.7735  1.3554  1.6569
  113SAPE   C1111744   4.545   0.219   2.028 -0.5768  0.2113 -0.3551
  113SAPE  H11A11745   4.451   0.242   2.084 -0.1677 -0.3133  0.5666
  113SAPE  H11B11746   4.620   0.278   2.083 -1.5339  1.7656 -0.6417
  113SAPE     P11747   4.488  -0.036   2.117 -0.1106 -0.0827 -0.2013
  113SAPE   O1311748   4.345   0.004   2.111 -0.1608  0.2654 -0.3583
  113SAPE   O1411749   4.532  -0.170   2.069 -0.3688  0.4563  0.3219
  113SAPE   O1211750   4.569   0.078   2.055 -0.3412 -0.3862 -0.0117
  113SAPE   O1111751   4.536  -0.028   2.271  0.0506  0.0045  0.1656
  113SAPE    C111752   4.534   0.090   2.347 -0.9809 -0.2320 -0.0156
  113SAPE    HA11753   4.629   0.145   2.329 -0.4039 -0.3926  2.2420
  113SAPE    HB11754   4.455   0.165   2.324 -1.7069 -0.2459  2.2512
  113SAPE    C211755   4.523   0.061   2.499  0.3499  0.2940  0.2448
  113SAPE    HS11756   4.596   0.119   2.559  0.6393  0.4546 -0.2528
  113SAPE   O2111757   4.552  -0.074   2.534  0.0482 -0.2130 -0.9269
  113SAPE   C2111758   4.669  -0.118   2.508 -0.3258 -0.2651 -0.2097
  113SAPE   O2211759   4.762  -0.051   2.478 -0.0999  0.3942 -0.2188
  113SAPE   C2211760   4.681  -0.266   2.547 -0.2778 -0.0616  0.6226
  113SAPE   H2R11761   4.587  -0.302   2.595 -2.4870  0.3954 -2.9774
  113SAPE   H2S11762   4.703  -0.320   2.452  3.0383 -1.7727  2.1981
  113SAPE    C311763   4.388   0.119   2.559  0.6218  0.0297  0.3623
  113SAPE    HX11764   4.307   0.064   2.508 -1.9163  2.4164  1.5848
  113SAPE    HY11765   4.390   0.226   2.529  1.4147  0.3340  1.4120
  113SAPE   O3111766   4.386   0.105   2.703 -0.1956 -0.4501 -0.6001
  113SAPE   C3111767   4.359  -0.019   2.751  0.3385  0.5535 -0.1747
  113SAPE   O3211768   4.308  -0.105   2.686 -0.3435  0.6120 -0.0165
  113SAPE   C3211769   4.389  -0.027   2.898 -0.2871  0.0328  0.3396
  113SAPE   H2X11770   4.349   0.062   2.951  1.4259  1.6254 -0.9251
  113SAPE   H2Y11771   4.498  -0.037   2.912 -0.4158 -2.0680  0.2209
  113SAPE   C2311772   4.787  -0.283   2.660  0.2518 -0.0867  0.2617
  113SAPE   H3R11773   4.765  -0.221   2.750 -0.5793 -1.0391  0.7391
  113SAPE   H3S11774   4.882  -0.243   2.620 -0.9737  0.4171 -2.3698
  113SAPE   C2411775   4.799  -0.436   2.703  0.0351 -0.5442  0.2279
  113SAPE   H4R11776   4.836  -0.484   2.610  1.4479 -0.0885  0.5274
  113SAPE   H4S11777   4.702  -0.486   2.722  0.8441 -1.7158  1.4978
  113SAPE   C2511778   4.894  -0.458   2.817 -0.3929 -0.2874  0.0509
  113SAPE   H5R11779   4.997  -0.466   2.779 -1.3520 -1.2875 -2.5834
  113SAPE   C2611780   4.853  -0.494   2.939  0.3169  0.5887  0.1092
  113SAPE   H6R11781   4.924  -0.485   3.022  0.4043  2.0638 -0.1055
  113SAPE   C2711782   4.706  -0.482   2.989  0.7279  0.2802  0.0303
  113SAPE   H7R11783   4.680  -0.587   3.014 -0.0236 -0.7381 -4.1456
  113SAPE   H7S11784   4.632  -0.439   2.918 -1.0231 -1.6684  0.5551
  113SAPE   C2811785   4.705  -0.381   3.102 -0.3874  0.0885 -0.1956
  113SAPE   H8R11786   4.692  -0.278   3.066  0.3409 -0.2271 -1.4336
  113SAPE   C2911787   4.711  -0.405   3.233 -0.4023 -0.0412 -0.0178
  113SAPE   H9R11788   4.713  -0.307   3.284  1.3833 -0.4430  0.7627
  113SAPE  C21011789   4.730  -0.533   3.307 -0.7299  0.4907 -0.1313
  113SAPE  H10R11790   4.772  -0.607   3.236 -0.0275  0.3658  0.4035
  113SAPE  H10S11791   4.635  -0.571   3.350 -1.3479  3.2848  1.1788
  113SAPE  C21111792   4.822  -0.531   3.437  0.9039  0.1897 -0.0079
  113SAPE  H11R11793   4.930  -0.521   3.418  0.0996  3.3676 -4.2651
  113SAPE  C21211794   4.785  -0.551   3.568 -0.4995  0.7577  0.5645
  113SAPE  H12R11795   4.864  -0.557   3.644  1.4109  1.1816 -1.2637
  113SAPE  C21311796   4.647  -0.554   3.627  0.7934 -0.3232 -0.4309
  113SAPE  H13R11797   4.634  -0.612   3.720  1.0306  2.3036  1.3384
  113SAPE  H13S11798   4.570  -0.590   3.555  0.1871 -0.4133  0.2489
  113SAPE  C21411799   4.601  -0.409   3.654  0.0299 -0.4636 -0.5512
  113SAPE  H14R11800   4.540  -0.358   3.578 -0.9075  0.8556  0.9898
  113SAPE  C21511801   4.627  -0.323   3.751  0.5709  0.4129 -0.9055
  113SAPE  H15R11802   4.585  -0.221   3.752  2.7149  1.3576 -1.3017
  113SAPE  C21611803   4.707  -0.345   3.881 -0.6996 -0.0925 -0.8874
  113SAPE  H16R11804   4.737  -0.452   3.892 -0.0707 -0.0818 -2.2718
  113SAPE  H16S11805   4.629  -0.336   3.960 -1.1593  1.9562 -1.5273
  113SAPE  C21711806   4.824  -0.245   3.902 -0.0829 -0.2910 -0.4095
  113SAPE  H17R11807   4.840  -0.222   4.010 -2.0577  1.0221 -0.3594
  113SAPE  H17S11808   4.783  -0.148   3.868 -0.6277 -0.4563 -0.2313
  113SAPE  C21811809   4.959  -0.284   3.838 -0.5112  0.4263 -0.0813
  113SAPE  H18R11810   4.933  -0.304   3.732 -3.8268 -0.5265  0.7858
  113SAPE  H18S11811   4.996  -0.374   3.891  1.8094  2.2989  1.6948
  113SAPE  C21911812   5.062  -0.170   3.845 -0.3623 -0.4572  0.3945
  113SAPE  H19R11813   5.085  -0.148   3.951 -1.2348  1.8027  0.1784
  113SAPE  H19S11814   5.007  -0.076   3.818 -1.9137 -1.1100  1.1420
  113SAPE  C22011815   5.195  -0.207   3.777 -0.5252 -0.3400  0.0300
  113SAPE  H20R11816   5.245  -0.109   3.761 -0.9003 -0.1942 -0.2626
  113SAPE  H20S11817   5.179  -0.268   3.685 -0.8176 -1.5968  0.8959
  113SAPE  H20T11818   5.254  -0.255   3.857  1.0092  1.8950  0.3241
  113SAPE   C3311819   4.341  -0.155   2.968 -0.0336  0.0556  0.3087
  113SAPE   H3X11820   4.406  -0.244   2.953  1.1664  0.6881  1.5544
  113SAPE   H3Y11821   4.240  -0.191   2.938  0.3332 -0.1200 -0.7292
  113SAPE   C3411822   4.344  -0.138   3.124 -0.5461 -0.6600 -0.4475
  113SAPE   H4X11823   4.286  -0.052   3.165 -1.8337 -2.5389  2.0021
  113SAPE   H4Y11824   4.444  -0.117   3.166 -0.5862  0.1539 -0.7355
  113SAPE   C3511825   4.298  -0.264   3.202  0.4113  0.0698 -0.2891
  113SAPE   H5X11826   4.374  -0.343   3.184 -0.5361 -1.1970  1.0460
  113SAPE   H5Y11827   4.213  -0.315   3.153 -0.8008  1.9084 -0.2032
  113SAPE   C3611828   4.286  -0.250   3.353 -0.0847 -0.1063  0.8442
  113SAPE   H6X11829   4.194  -0.190   3.367 -0.6164 -0.3402 -1.3285
  113SAPE   H6Y11830   4.372  -0.193   3.395  0.5993 -1.1695  0.9275
  113SAPE   C3711831   4.278  -0.385   3.419  0.5406  0.2107 -0.0239
  113SAPE   H7X11832   4.382  -0.424   3.426  0.6957  0.6129 -0.0738
  113SAPE   H7Y11833   4.213  -0.455   3.362  0.2026 -0.3209  0.9905
  113SAPE   C3811834   4.226  -0.379   3.564  0.3903 -1.1270  0.1139
  113SAPE   H8X11835   4.291  -0.320   3.631 -2.6084 -1.0745  3.2520
  113SAPE   H8Y11836   4.123  -0.337   3.561  0.8133  0.0794  1.4347
  113SAPE   C3911837   4.205  -0.507   3.638  0.2608  0.5211  0.1997
  113SAPE   H9X11838   4.286  -0.583   3.635 -1.1285 -0.9635 -1.7578
  113SAPE   H9Y11839   4.123  -0.558   3.583  0.0764  0.4092  0.5725
  113SAPE  C31011840   4.146  -0.494   3.780  0.2141  0.8238  0.5153
  113SAPE  H10X11841   4.047  -0.446   3.763 -1.0890 -2.1441 -0.8032
  113SAPE  H10Y11842   4.209  -0.426   3.843  0.9829 -0.1567  0.8341
  113SAPE  C31111843   4.120  -0.626   3.851  0.6051  0.6384 -0.1190
  113SAPE  H11X11844   4.214  -0.685   3.854  1.0452  1.3560  1.6478
  113SAPE  H11Y11845   4.042  -0.689   3.804 -0.7170  3.0224 -1.3467
  113SAPE  C31211846   4.070  -0.612   4.001  0.1173 -0.3163 -0.2246
  113SAPE  H12X11847   3.981  -0.547   3.987  1.8422  1.7329 -2.4199
  113SAPE  H12Y11848   4.142  -0.555   4.064 -1.2530 -1.6558  2.7896
  113SAPE  C31311849   4.059  -0.735   4.088  0.7257  0.2609  0.1581
  113SAPE  H13X11850   4.073  -0.716   4.196  0.5476  1.5260 -0.0291
  113SAPE  H13Y11851   4.136  -0.809   4.058  0.9333  0.6078 -0.1756
  113SAPE  C31411852   3.912  -0.799   4.070  0.1978 -0.2261  0.1479
  113SAPE  H14X11853   3.904  -0.840   3.967  3.2639  0.3795 -0.4178
  113SAPE  H14Y11854   3.828  -0.726   4.076  0.2280 -0.3172  3.0877
  113SAPE  C31511855   3.883  -0.900   4.179  0.3866  1.1158 -0.3570
  113SAPE  H15X11856   3.945  -0.991   4.165  0.3038  1.3281 -2.3976
  113SAPE  H15Y11857   3.780  -0.933   4.154  0.7985 -0.6078  0.1267
  113SAPE  C31611858   3.900  -0.857   4.322  0.1477 -0.8197  0.2660
  113SAPE  H16X11859   3.866  -0.752   4.334  0.3584 -0.7827  0.5618
  113SAPE  H16Y11860   4.007  -0.842   4.349  0.1433  2.9605 -1.1355
  113SAPE  C31711861   3.837  -0.964   4.408 -0.1500 -0.3653 -0.3096
  113SAPE  H17X11862   3.889  -1.060   4.387  1.4801  0.3351  0.3562
  113SAPE  H17Y11863   3.729  -0.978   4.383  0.3620 -2.2623 -1.7613
  113SAPE  C31811864   3.867  -0.915   4.556 -0.3665 -0.0669  0.6580
  113SAPE  H18X11865   3.856  -0.997   4.630  0.1545 -0.8427 -0.0999
  113SAPE  H18Y11866   3.807  -0.823   4.572 -1.1164 -0.2571 -0.8734
  113SAPE  H18Z11867   3.975  -0.894   4.573 -0.1823  0.0309 -0.5447
  114SAPE     N11868   1.153   0.011   2.014  0.2633  0.0141 -0.1613
  114SAPE   HN111869   1.064   0.058   1.986  0.3123 -0.2149 -0.7179
  114SAPE   HN211870   1.177   0.034   2.113  1.6716 -1.0240 -0.2243
  114SAPE   HN311871   1.229   0.042   1.950  0.8707 -1.1231 -0.0003
  114SAPE   C1211872   1.144  -0.134   2.005 -0.1575 -0.5399  0.0920
  114SAPE  H12A11873   1.234  -0.170   2.058  0.6548  2.1713  0.7530
  114SAPE  H12B11874   1.141  -0.171   1.901 -2.5042  0.2929 -0.2112
  114SAPE   C1111875   1.018  -0.184   2.073 -1.0123  0.5834  0.6441
  114SAPE  H11A11876   1.003  -0.144   2.176  1.2715  0.9912  0.8717
  114SAPE  H11B11877   1.043  -0.290   2.093  2.5537  0.5216 -2.9294
  114SAPE     P11878   0.802  -0.043   1.996  0.2567  0.1955 -0.2653
  114SAPE   O1311879   0.877   0.074   1.952 -0.1617  0.1334 -1.2517
  114SAPE   O1411880   0.673  -0.068   1.926 -0.8620 -0.0837  0.1238
  114SAPE   O1211881   0.900  -0.168   1.990 -0.0375 -0.2829 -0.1794
  114SAPE   O1111882   0.761  -0.031   2.148 -0.2098  0.1498 -0.0606
  114SAPE    C111883   0.687  -0.131   2.215 -0.9312  0.3136  0.6273
  114SAPE    HA11884   0.668  -0.215   2.145  0.3752  2.5390 -2.6417
  114SAPE    HB11885   0.753  -0.170   2.295 -1.0062  1.1663  1.1127
  114SAPE    C211886   0.560  -0.076   2.287 -0.3601 -0.3462  0.1428
  114SAPE    HS11887   0.517   0.008   2.228  1.9431  0.1869 -0.8823
  114SAPE   O2111888   0.599  -0.026   2.416 -0.0630  0.1554  0.6996
  114SAPE   C2111889   0.523   0.066   2.466  0.8504  0.7621  0.0585
  114SAPE   O2211890   0.414   0.108   2.420 -0.0964 -0.1805 -0.2951
  114SAPE   C2211891   0.584   0.121   2.594  0.1580  0.7954 -0.1576
  114SAPE   H2R11892   0.688   0.147   2.567  0.0774 -1.5120 -3.2628
  114SAPE   H2S11893   0.519   0.207   2.624  1.3829  0.6532  3.3195
  114SAPE    C311894   0.461  -0.195   2.301  0.4807 -0.6924  0.2652
  114SAPE    HX11895   0.450  -0.233   2.197 -4.8184  2.1141 -0.5921
  114SAPE    HY11896   0.361  -0.152   2.324  0.6362  0.2321 -0.6990
  114SAPE   O3111897   0.510  -0.300   2.384 -0.0576  0.1598  0.0703
  114SAPE   C3111898   0.443  -0.318   2.493  0.0496  0.1900 -0.4601
  114SAPE   O3211899   0.347  -0.261   2.534 -0.0985  0.2028 -1.4050
  114SAPE   C3211900   0.514  -0.435   2.574 -0.0094  0.0843 -0.3089
  114SAPE   H2X11901   0.528  -0.524   2.510  1.3953 -0.2901  0.4859
  114SAPE   H2Y11902   0.443  -0.462   2.654  0.1171  0.7786  0.0468
  114SAPE   C2311903   0.573   0.012   2.701 -0.6686  0.5967 -1.0637
  114SAPE   H3R11904   0.639   0.054   2.779  1.9616 -5.3023  0.4530
  114SAPE   H3S11905   0.612  -0.087   2.669  2.1148  2.1036 -2.7085
  114SAPE   C2411906   0.434  -0.012   2.752 -0.4773  0.2264 -0.4234
  114SAPE   H4R11907   0.427  -0.092   2.829 -2.1024  1.4719  0.7988
  114SAPE   H4S11908   0.371  -0.049   2.668 -3.1649  1.3845  0.9617
  114SAPE   C2511909   0.371   0.111   2.817  0.0041 -0.7139 -0.5286
  114SAPE   H5R11910   0.305   0.171   2.753  1.3701 -0.0129 -1.3431
  114SAPE   C2611911   0.382   0.154   2.948 -0.7237 -0.3024 -0.0924
  114SAPE   H6R11912   0.320   0.238   2.984 -2.0572 -1.5450  0.6237
  114SAPE   C2711913   0.454   0.083   3.060 -0.4159  0.4205 -0.7420
  114SAPE   H7R11914   0.515   0.162   3.109 -1.7713  0.8860  0.2339
  114SAPE   H7S11915   0.533   0.012   3.025 -0.3786  1.1726 -2.2431
  114SAPE   C2811916   0.366   0.020   3.156  0.0051  0.2673  0.0348
  114SAPE   H8R11917   0.310  -0.067   3.118 -0.8886  0.1332  1.5567
  114SAPE   C2911918   0.354   0.055   3.284  0.3623  0.3961 -0.4568
  114SAPE   H9R11919   0.273   0.015   3.347  0.7420 -0.0748 -0.2614
  114SAPE  C21011920   0.423   0.167   3.355 -0.1891 -0.0901  0.3015
  114SAPE  H10R11921   0.356   0.213   3.430 -1.4581  0.7386 -1.2614
  114SAPE  H10S11922   0.435   0.250   3.282  0.6597 -1.8469 -1.6456
  114SAPE  C21111923   0.559   0.117   3.411  0.5910 -0.7634  0.7744
  114SAPE  H11R11924   0.564   0.007   3.403  0.9812 -0.6448 -1.2305
  114SAPE  C21211925   0.660   0.184   3.474 -0.7815 -0.1084 -0.2013
  114SAPE  H12R11926   0.752   0.130   3.502  0.6141  1.8247 -0.8836
  114SAPE  C21311927   0.667   0.336   3.495 -0.0931  0.2621 -0.1212
  114SAPE  H13R11928   0.589   0.383   3.432 -1.1840 -1.6871 -0.2970
  114SAPE  H13S11929   0.765   0.379   3.463 -0.5287  1.3071 -0.0956
  114SAPE  C21411930   0.636   0.399   3.626  0.3230  0.3022 -0.0424
  114SAPE  H14R11931   0.561   0.479   3.616 -0.6071 -0.5251  0.2132
  114SAPE  C21511932   0.679   0.364   3.746  0.6374  0.2782 -0.0468
  114SAPE  H15R11933   0.637   0.413   3.835 -0.3365 -1.0025  0.2241
  114SAPE  C21611934   0.770   0.249   3.785  0.3296  0.1307  0.1971
  114SAPE  H16R11935   0.805   0.206   3.689 -1.6722  0.1673 -0.5929
  114SAPE  H16S11936   0.722   0.168   3.845 -1.5876 -0.0397 -1.4874
  114SAPE  C21711937   0.887   0.307   3.864  0.3683  0.2269 -0.1990
  114SAPE  H17R11938   0.944   0.375   3.797 -1.4632  0.1625 -1.9000
  114SAPE  H17S11939   0.947   0.217   3.892 -0.3474  0.3398  1.8562
  114SAPE  C21811940   0.848   0.368   4.004 -0.0368 -0.4857  0.2953
  114SAPE  H18R11941   0.788   0.292   4.057 -0.4801 -0.1584  0.2633
  114SAPE  H18S11942   0.786   0.460   3.994  0.7588  0.2241  1.6074
  114SAPE  C21911943   0.971   0.408   4.082  0.4725  0.3477 -0.0573
  114SAPE  H19R11944   0.939   0.497   4.140 -1.7890 -0.2582 -0.2448
  114SAPE  H19S11945   1.057   0.426   4.015 -1.2696 -1.8460 -3.1312
  114SAPE  C22011946   1.019   0.296   4.176  0.1482  0.3799 -0.0108
  114SAPE  H20R11947   1.045   0.209   4.112  1.4751  0.9881 -0.3258
  114SAPE  H20S11948   0.937   0.251   4.237  1.8447  0.3215  2.3791
  114SAPE  H20T11949   1.103   0.336   4.235 -1.7406  1.2733  2.2382
  114SAPE   C3311950   0.646  -0.402   2.636 -0.3953  0.0547 -0.9063
  114SAPE   H3X11951   0.684  -0.306   2.594 -2.1609  1.6421  0.8746
  114SAPE   H3Y11952   0.714  -0.488   2.618 -1.2029 -1.0635  1.1236
  114SAPE   C3411953   0.634  -0.392   2.788 -0.4669 -0.6795 -0.2771
  114SAPE   H4X11954   0.589  -0.484   2.832  0.6807 -1.1054  0.0365
  114SAPE   H4Y11955   0.569  -0.305   2.812 -1.5985 -1.4897 -0.3276
  114SAPE   C3511956   0.764  -0.363   2.858 -0.1235  0.4794 -0.7052
  114SAPE   H5X11957   0.792  -0.256   2.849  0.1791  0.4332 -0.3584
  114SAPE   H5Y11958   0.831  -0.426   2.796  0.5064  0.2563  0.1862
  114SAPE   C3611959   0.775  -0.404   3.004  0.5171 -0.0993 -0.2724
  114SAPE   H6X11960   0.752  -0.513   3.004  0.1965 -0.0538 -1.6662
  114SAPE   H6Y11961   0.700  -0.335   3.049  2.4929  2.8986 -1.3162
  114SAPE   C3711962   0.921  -0.388   3.055  0.3047 -0.4496 -0.0904
  114SAPE   H7X11963   0.957  -0.287   3.029 -0.6657  1.2444  4.3312
  114SAPE   H7Y11964   0.980  -0.462   2.996 -1.0106 -0.5807 -1.3133
  114SAPE   C3811965   0.920  -0.413   3.205  1.1170  0.1495 -0.0348
  114SAPE   H8X11966   1.023  -0.400   3.244  0.3511  1.1402  1.7917
  114SAPE   H8Y11967   0.889  -0.519   3.220  0.5781  0.2676 -0.2751
  114SAPE   C3911968   0.821  -0.322   3.284 -0.9152 -0.0097 -0.3031
  114SAPE   H9X11969   0.715  -0.353   3.267  0.0218 -2.3604 -2.7108
  114SAPE   H9Y11970   0.832  -0.217   3.250 -0.5285 -0.0275 -0.2301
  114SAPE  C31011971   0.853  -0.330   3.437  0.1532 -0.1875  0.4303
  114SAPE  H10X11972   0.952  -0.282   3.450 -0.3434  1.4863 -1.4520
  114SAPE  H10Y11973   0.872  -0.438   3.452 -1.0147 -0.4486  0.1792
  114SAPE  C31111974   0.759  -0.272   3.533 -0.1903 -0.2356 -0.0579
  114SAPE  H11X11975   0.688  -0.354   3.555  2.4866 -3.1253 -1.3122
  114SAPE  H11Y11976   0.699  -0.193   3.483  1.4424  1.2903  0.2603
  114SAPE  C31211977   0.831  -0.209   3.649 -0.1118 -0.8117  1.3816
  114SAPE  H12X11978   0.868  -0.107   3.626 -0.2769 -1.1860 -0.7491
  114SAPE  H12Y11979   0.920  -0.274   3.663 -0.6912 -1.9907 -0.1371
  114SAPE  C31311980   0.756  -0.201   3.780  0.0698 -0.1212  0.8584
  114SAPE  H13X11981   0.720  -0.304   3.798 -2.3679  0.8062  1.7817
  114SAPE  H13Y11982   0.664  -0.139   3.775  0.5612  0.6441  1.1011
  114SAPE  C31411983   0.849  -0.152   3.887 -0.4172  0.6359 -0.2468
  114SAPE  H14X11984   0.883  -0.050   3.862  0.6727  0.4205  0.3130
  114SAPE  H14Y11985   0.947  -0.203   3.880 -0.7947 -0.0375 -0.7749
  114SAPE  C31511986   0.788  -0.160   4.026  0.1115  0.2890  0.6608
  114SAPE  H15X11987   0.745  -0.260   4.048  0.7031 -0.4209 -1.2277
  114SAPE  H15Y11988   0.708  -0.084   4.038 -0.4500 -0.3812  1.2724
  114SAPE  C31611989   0.897  -0.121   4.132  0.0584  0.0060 -0.5301
  114SAPE  H16X11990   0.954  -0.029   4.106  0.5212 -0.5143 -1.4024
  114SAPE  H16Y11991   0.959  -0.212   4.140 -1.9067 -1.6572 -2.6527
  114SAPE  C31711992   0.840  -0.081   4.262  0.4540  0.3814 -0.2875
  114SAPE  H17X11993   0.796  -0.173   4.308 -0.9951  1.5885  0.8218
  114SAPE  H17Y11994   0.769   0.004   4.254  1.7732  1.6364  0.7964
  114SAPE  C31811995   0.949  -0.028   4.359 -0.0473  0.5519  0.6827
  114SAPE  H18X11996   0.997   0.060   4.312 -0.8461  0.9345  0.5728
  114SAPE  H18Y11997   1.021  -0.110   4.381 -0.9889 -0.5554 -0.2048
  114SAPE  H18Z11998   0.903   0.004   4.455 -1.3474  0.4215  0.1299
  115SAPE     N11999   3.499   1.844   2.082  0.1433  0.9859  0.2676
  115SAPE   HN112000   3.457   1.933   2.117  0.4362  0.9122  0.8085
  115SAPE   HN212001   3.576   1.873   2.018 -1.3086  1.8539 -1.1873
  115SAPE   HN312002   3.429   1.805   2.015 -1.2757  0.1897  2.1175
  115SAPE   C1212003   3.531   1.732   2.179 -0.6753  0.5848  0.1048
  115SAPE  H12A12004   3.569   1.649   2.116  2.8652  1.0666  1.3723
  115SAPE  H12B12005   3.450   1.704   2.250 -2.3640 -1.0822 -2.3175
  115SAPE   C1112006   3.654   1.772   2.263 -0.0323 -0.4309 -0.2192
  115SAPE  H11A12007   3.661   1.711   2.356  1.5035  1.3430  0.8989
  115SAPE  H11B12008   3.625   1.870   2.306  1.5804 -0.3300  0.7094
  115SAPE     P12009   3.890   1.656   2.198  0.1925 -0.5548 -0.1176
  115SAPE   O1312010   3.817   1.526   2.213  0.0277 -0.1662 -0.0808
  115SAPE   O1412011   3.973   1.671   2.080 -0.2977 -0.1136 -0.2932
  115SAPE   O1212012   3.782   1.778   2.202 -0.1915 -0.2263  0.6488
  115SAPE   O1112013   3.984   1.685   2.322 -0.9218 -0.0294  0.4281
  115SAPE    C112014   4.053   1.810   2.345  0.1312 -0.4857 -0.8031
  115SAPE    HA12015   4.163   1.793   2.341  0.2429  0.1161 -0.5037
  115SAPE    HB12016   4.038   1.885   2.265 -2.3750  1.7480  1.5600
  115SAPE    C212017   4.018   1.886   2.482  0.0546  0.2153  0.6591
  115SAPE    HS12018   4.086   1.974   2.486  4.2842 -2.8078  1.6687
  115SAPE   O2112019   4.053   1.803   2.593  0.3054  0.0190 -0.6135
  115SAPE   C2112020   4.178   1.778   2.616  0.2471  0.0209 -0.9983
  115SAPE   O2212021   4.277   1.826   2.562 -0.0471  0.5405 -0.1853
  115SAPE   C2212022   4.181   1.686   2.742 -0.7315 -0.5715 -0.3177
  115SAPE   H2R12023   4.100   1.611   2.732 -1.6411  0.1907  1.0191
  115SAPE   H2S12024   4.279   1.632   2.738 -0.6697 -0.6218  1.1403
  115SAPE    C312025   3.870   1.933   2.477 -0.0928  0.2329 -0.3598
  115SAPE    HX12026   3.800   1.849   2.494 -0.2549 -0.0300 -2.1766
  115SAPE    HY12027   3.853   1.966   2.373  0.9141 -0.7282 -0.8478
  115SAPE   O3112028   3.840   2.036   2.584  0.8723  0.0759  0.2769
  115SAPE   C3112029   3.758   2.133   2.553  0.7146  0.2187 -0.4547
  115SAPE   O3212030   3.684   2.129   2.457  0.8398 -0.2530 -0.0113
  115SAPE   C3212031   3.754   2.250   2.640  0.3825  0.2710 -0.6265
  115SAPE   H2X12032   3.701   2.332   2.586  2.8233  0.7791 -2.3863
  115SAPE   H2Y12033   3.857   2.282   2.666  0.9306 -0.6258 -1.6568
  115SAPE   C2312034   4.181   1.772   2.872  0.0041  0.1633  0.3800
  115SAPE   H3R12035   4.127   1.868   2.860 -0.8449 -0.4585 -0.8847
  115SAPE   H3S12036   4.279   1.814   2.903 -0.6521  2.9370 -0.9711
  115SAPE   C2412037   4.118   1.706   2.997 -0.1976 -0.1971  0.3233
  115SAPE   H4R12038   4.011   1.688   2.975 -0.6519  1.5434  0.9654
  115SAPE   H4S12039   4.118   1.776   3.083  0.4440  1.1785 -0.7554
  115SAPE   C2512040   4.184   1.583   3.039  0.5073 -0.3139 -0.3860
  115SAPE   H5R12041   4.198   1.507   2.960  3.1231 -0.7559  0.4008
  115SAPE   C2612042   4.217   1.546   3.167  0.2106  0.6847 -0.4355
  115SAPE   H6R12043   4.255   1.443   3.176  0.7675  0.9823  0.7925
  115SAPE   C2712044   4.204   1.630   3.291  0.5775 -0.1692 -0.7785
  115SAPE   H7R12045   4.117   1.603   3.355 -0.7470  0.8405 -2.1039
  115SAPE   H7S12046   4.198   1.736   3.259  1.4618  0.3019  0.5005
  115SAPE   C2812047   4.334   1.634   3.369 -0.2792  0.7526  0.0833
  115SAPE   H8R12048   4.412   1.689   3.315 -0.7426  0.1710 -1.2059
  115SAPE   C2912049   4.371   1.595   3.493  0.6017 -0.0831  0.0381
  115SAPE   H9R12050   4.471   1.627   3.525  0.3404  0.1672  0.6292
  115SAPE  C21012051   4.278   1.531   3.595 -0.3810  0.1962  0.7839
  115SAPE  H10R12052   4.193   1.483   3.542  1.9776 -2.3095 -1.0662
  115SAPE  H10S12053   4.254   1.614   3.664  1.6526  1.0423  0.5509
  115SAPE  C21112054   4.355   1.423   3.660  0.2925 -0.3129 -0.3319
  115SAPE  H11R12055   4.405   1.359   3.585 -2.0011 -0.4502 -1.8612
  115SAPE  C21212056   4.367   1.392   3.786  0.2565  0.4119 -0.2740
  115SAPE  H12R12057   4.438   1.312   3.814  0.1057  0.5193  0.4426
  115SAPE  C21312058   4.313   1.463   3.911 -0.1781  0.3664  0.4543
  115SAPE  H13R12059   4.220   1.410   3.942  0.2895 -2.2662 -2.1875
  115SAPE  H13S12060   4.280   1.567   3.889 -0.8466  0.2016  0.6673
  115SAPE  C21412061   4.418   1.475   4.020 -0.1835  0.1792  0.0965
  115SAPE  H14R12062   4.511   1.529   3.998  0.9516 -1.8247 -0.3179
  115SAPE  C21512063   4.409   1.428   4.146  0.2099 -0.5643  1.0645
  115SAPE  H15R12064   4.491   1.452   4.215  0.2835 -2.1348  1.5599
  115SAPE  C21612065   4.296   1.357   4.215 -0.8123  0.5004 -0.1068
  115SAPE  H16R12066   4.201   1.355   4.157  0.3594 -1.5663 -2.1471
  115SAPE  H16S12067   4.284   1.406   4.314 -0.9718 -0.4464  0.3567
  115SAPE  C21712068   4.327   1.213   4.251 -0.2642  0.1016  0.7002
  115SAPE  H17R12069   4.233   1.184   4.304 -0.0199 -2.8575 -0.2891
  115SAPE  H17S12070   4.418   1.196   4.314  0.0124  1.0129  0.5638
  115SAPE  C21812071   4.348   1.124   4.120  0.5148 -0.0190  0.3757
  115SAPE  H18R12072   4.451   1.149   4.086  0.9137 -0.9276  0.8670
  115SAPE  H18S12073   4.277   1.165   4.045 -0.8018 -0.8518  1.1214
  115SAPE  C21912074   4.331   0.977   4.143  0.2045 -0.7742  1.1947
  115SAPE  H19R12075   4.386   0.919   4.065  0.3813  0.8206  0.0890
  115SAPE  H19S12076   4.228   0.941   4.122 -0.0233  0.4817  0.0164
  115SAPE  C22012077   4.384   0.919   4.275 -0.1209 -0.4876 -0.2901
  115SAPE  H20R12078   4.494   0.930   4.275  0.1019 -2.0424  1.8176
  115SAPE  H20S12079   4.363   0.810   4.276  0.2390 -0.6185 -2.4407
  115SAPE  H20T12080   4.349   0.967   4.369  3.7069  1.8100  0.1760
  115SAPE   C3312081   3.682   2.226   2.777 -0.7676 -0.3093  0.6258
  115SAPE   H3X12082   3.582   2.178   2.767 -0.8267  0.0207 -0.4772
  115SAPE   H3Y12083   3.656   2.325   2.819  0.6401  0.7486 -0.8876
  115SAPE   C3412084   3.772   2.160   2.877 -0.2516  0.3910  0.7906
  115SAPE   H4X12085   3.876   2.200   2.872 -0.4630  0.7907 -1.2047
  115SAPE   H4Y12086   3.780   2.053   2.849  0.4614  0.3281  1.2188
  115SAPE   C3512087   3.723   2.175   3.016  0.8698  0.2281  0.1004
  115SAPE   H5X12088   3.614   2.152   3.018  1.1988 -1.4993  0.1683
  115SAPE   H5Y12089   3.735   2.282   3.043 -0.5287 -0.2572  2.9988
  115SAPE   C3612090   3.782   2.077   3.112  0.1009  1.3743 -0.1388
  115SAPE   H6X12091   3.744   1.978   3.079 -1.0451  2.4200 -2.1520
  115SAPE   H6Y12092   3.743   2.115   3.209  0.6665  1.4243  0.0741
  115SAPE   C3712093   3.935   2.049   3.116 -0.1082  0.3888  0.7988
  115SAPE   H7X12094   3.990   2.144   3.098  2.2904 -1.2611 -1.3965
  115SAPE   H7Y12095   3.970   1.969   3.047  1.0870  0.6229  1.1140
  115SAPE   C3812096   3.985   1.998   3.250  0.5677 -0.4404 -0.4873
  115SAPE   H8X12097   3.984   2.088   3.316 -2.3703  0.0185 -1.0278
  115SAPE   H8Y12098   4.088   1.956   3.254 -0.2145 -2.3929  1.1236
  115SAPE   C3912099   3.894   1.885   3.314 -0.3907 -0.1958 -0.0512
  115SAPE   H9X12100   3.920   1.793   3.258  0.2181  0.4283 -0.8085
  115SAPE   H9Y12101   3.785   1.906   3.307 -0.0983  0.8693 -2.2363
  115SAPE  C31012102   3.929   1.864   3.462 -0.3460  0.0656 -0.4438
  115SAPE  H10X12103   3.911   1.954   3.525  3.1306 -0.4955  1.6464
  115SAPE  H10Y12104   4.038   1.843   3.471 -0.3939  0.2215  0.7045
  115SAPE  C31112105   3.854   1.742   3.515 -0.2884  0.0543  0.2595
  115SAPE  H11X12106   3.851   1.662   3.438 -0.9390  0.2487  0.0785
  115SAPE  H11Y12107   3.747   1.769   3.528 -1.0101 -2.6640  0.4835
  115SAPE  C31212108   3.898   1.691   3.654 -0.2833  0.6774 -0.3839
  115SAPE  H12X12109   3.989   1.628   3.640 -0.0552  1.1002 -0.8436
  115SAPE  H12Y12110   3.822   1.626   3.701 -0.2774  0.3266 -0.8545
  115SAPE  C31312111   3.930   1.804   3.749 -0.3479  0.1090 -0.5431
  115SAPE  H13X12112   3.843   1.870   3.768 -0.2794 -0.1441  0.7515
  115SAPE  H13Y12113   4.013   1.867   3.710 -0.5020 -0.0614 -1.1480
  115SAPE  C31412114   3.987   1.751   3.890  0.5185 -0.4036 -0.0564
  115SAPE  H14X12115   4.097   1.750   3.883  0.6689 -0.7789  1.8198
  115SAPE  H14Y12116   3.959   1.644   3.903  1.6474 -1.0363 -2.4053
  115SAPE  C31512117   3.948   1.842   4.009  0.3326  0.0147  0.0002
  115SAPE  H15X12118   3.955   1.952   3.996  1.1745  0.3519  2.7138
  115SAPE  H15Y12119   4.008   1.807   4.096  0.6952  1.0967  0.1915
  115SAPE  C31612120   3.801   1.811   4.045  0.1100  0.1215 -0.9047
  115SAPE  H16X12121   3.787   1.709   4.085  2.4288  0.4958  1.0845
  115SAPE  H16Y12122   3.737   1.816   3.955 -0.4858 -2.6553 -0.7152
  115SAPE  C31712123   3.744   1.911   4.145  0.2914 -0.3180 -0.0604
  115SAPE  H17X12124   3.814   1.912   4.232  1.1624 -2.5781 -0.6759
  115SAPE  H17Y12125   3.649   1.865   4.180  0.9090 -2.2080 -0.8049
  115SAPE  C31812126   3.726   2.061   4.093 -0.3530 -0.3886  0.8253
  115SAPE  H18X12127   3.657   2.125   4.153  0.7357 -0.3679  2.0902
  115SAPE  H18Y12128   3.686   2.062   3.989  0.2561 -2.5957  0.5293
  115SAPE  H18Z12129   3.827   2.107   4.099  0.4497 -2.1571  1.3315
  116SAPE     N12130   3.992   2.561   1.976 -0.7261  0.1710 -0.4178
  116SAPE   HN112131   4.085   2.524   1.947  0.0394  2.4880 -1.1609
  116SAPE   HN212132   4.003   2.581   2.077  0.2800 -2.4262  0.0615
  116SAPE   HN312133   3.917   2.491   1.960 -1.5212  1.1772 -1.3138
  116SAPE   C1212134   3.951   2.691   1.901  0.2399 -0.0790  0.0799
  116SAPE  H12A12135   3.984   2.684   1.796  0.1218 -0.2439  0.0527
  116SAPE  H12B12136   3.993   2.777   1.957 -3.7834  1.6446  0.8385
  116SAPE   C1112137   3.796   2.727   1.913 -1.6204 -0.0454  0.7673
  116SAPE  H11A12138   3.778   2.828   1.870  2.1202 -0.2583 -1.7899
  116SAPE  H11B12139   3.786   2.731   2.024  1.1371 -3.8335  1.3660
  116SAPE     P12140   3.569   2.605   1.846  0.2205 -0.0603  0.4005
  116SAPE   O1312141   3.518   2.728   1.782 -0.6471 -0.4860 -0.0099
  116SAPE   O1412142   3.528   2.474   1.788  0.1925 -0.2207 -0.2680
  116SAPE   O1212143   3.724   2.620   1.848 -0.3019 -0.1369  0.1980
  116SAPE   O1112144   3.528   2.605   2.000  0.2407 -0.7867 -0.2684
  116SAPE    C112145   3.527   2.474   2.061 -0.4027  0.3214 -0.3181
  116SAPE    HA12146   3.440   2.415   2.025 -1.4555  1.5816  0.0750
  116SAPE    HB12147   3.610   2.408   2.029 -1.9158 -1.6049 -0.4993
  116SAPE    C212148   3.527   2.492   2.214  0.3283 -0.2012  0.0721
  116SAPE    HS12149   3.543   2.400   2.275  2.8541 -1.3357 -2.1314
  116SAPE   O2112150   3.399   2.549   2.253  0.1704  0.1264  0.8774
  116SAPE   C2112151   3.302   2.459   2.270 -0.0767  0.7464 -0.1371
  116SAPE   O2212152   3.314   2.337   2.259 -0.5032 -0.3908 -0.5592
  116SAPE   C2212153   3.177   2.528   2.319  0.3546  0.2592  0.4367
  116SAPE   H2R12154   3.143   2.591   2.235 -3.3336 -3.2280 -1.0188
  116SAPE   H2S12155   3.093   2.457   2.331 -0.9058  1.7727  0.9759
  116SAPE    C312156   3.637   2.591   2.264  0.2821 -0.7885 -0.0106
  116SAPE    HX12157   3.618   2.677   2.197  1.3249  1.1794  2.1110
  116SAPE    HY12158   3.735   2.539   2.249  1.8126  1.0245  2.9007
  116SAPE   O3112159   3.620   2.633   2.406  0.2228  0.1592  0.6057
  116SAPE   C3112160   3.576   2.761   2.429  0.7456  0.3171 -0.1595
  116SAPE   O3212161   3.580   2.849   2.344  0.2013 -0.2822 -0.2324
  116SAPE   C3212162   3.542   2.776   2.574  0.2242  0.6339 -0.7942
  116SAPE   H2X12163   3.621   2.724   2.633  0.6454  1.1609 -0.8802
  116SAPE   H2Y12164   3.450   2.719   2.598  1.1523 -0.0603  1.4487
  116SAPE   C2312165   3.174   2.609   2.451 -0.1422  0.1853  0.4476
  116SAPE   H3R12166   3.104   2.694   2.435 -0.5849  0.1780  2.0934
  116SAPE   H3S12167   3.269   2.666   2.459 -0.0958  0.4225 -1.4015
  116SAPE   C2412168   3.151   2.527   2.580  0.6835  0.0978 -0.0181
  116SAPE   H4R12169   3.073   2.449   2.568  2.2250 -1.5981  0.4745
  116SAPE   H4S12170   3.117   2.594   2.662 -0.2252  1.0090 -1.1141
  116SAPE   C2512171   3.279   2.444   2.598 -0.3416 -0.4758  0.3532
  116SAPE   H5R12172   3.319   2.399   2.506  3.1941  2.6141  0.1491
  116SAPE   C2612173   3.365   2.447   2.704  0.0010  0.0301  1.3123
  116SAPE   H6R12174   3.441   2.368   2.713  2.3037  1.4698 -2.8184
  116SAPE   C2712175   3.356   2.536   2.823  0.5535 -0.2505  0.4742
  116SAPE   H7R12176   3.293   2.486   2.900 -1.0649  1.2625  0.1992
  116SAPE   H7S12177   3.299   2.629   2.804  0.2734 -0.7124 -1.0242
  116SAPE   C2812178   3.485   2.575   2.884 -0.0285 -0.5325  0.1515
  116SAPE   H8R12179   3.543   2.653   2.833 -0.2222  0.2760  1.1346
  116SAPE   C2912180   3.536   2.533   3.003 -0.1076  0.3340  0.1540
  116SAPE   H9R12181   3.632   2.577   3.034 -0.5983  1.8033 -0.3537
  116SAPE  C21012182   3.480   2.439   3.104 -0.1985  0.4241  0.4349
  116SAPE  H10R12183   3.456   2.340   3.060 -0.1906  0.5099  0.2393
  116SAPE  H10S12184   3.379   2.480   3.123 -0.0432  0.9862  0.0535
  116SAPE  C21112185   3.576   2.425   3.221  0.1398 -0.4442  0.2862
  116SAPE  H11R12186   3.684   2.432   3.197  0.1364 -1.0444  0.0890
  116SAPE  C21212187   3.543   2.413   3.346  0.8006 -0.2828 -0.4851
  116SAPE  H12R12188   3.621   2.383   3.416 -0.4116  0.7744  1.4191
  116SAPE  C21312189   3.404   2.431   3.408  0.4710 -0.3297  0.7669
  116SAPE  H13R12190   3.424   2.411   3.515 -0.9045 -0.6144  0.9852
  116SAPE  H13S12191   3.332   2.358   3.366  0.3540  0.1394  0.1327
  116SAPE  C21412192   3.342   2.569   3.390  0.0108  0.3167 -0.9785
  116SAPE  H14R12193   3.279   2.558   3.300  1.2908  0.5220 -1.9229
  116SAPE  C21512194   3.347   2.673   3.473  0.5028  0.0560  0.2079
  116SAPE  H15R12195   3.299   2.769   3.448 -0.4052 -0.7404 -1.2523
  116SAPE  C21612196   3.419   2.682   3.608  0.0559 -0.0962 -0.3267
  116SAPE  H16R12197   3.493   2.765   3.605 -0.5075  0.4188 -0.3310
  116SAPE  H16S12198   3.464   2.585   3.637 -0.7461 -0.6737 -0.9564
  116SAPE  C21712199   3.308   2.715   3.715  0.2849  0.5273  0.0943
  116SAPE  H17R12200   3.349   2.714   3.818  1.2432 -1.3927 -0.2537
  116SAPE  H17S12201   3.235   2.632   3.709  0.8176  0.0831 -0.4215
  116SAPE  C21812202   3.237   2.853   3.688 -0.9330 -0.3779 -0.2187
  116SAPE  H18R12203   3.186   2.854   3.589  0.5408  0.1342 -1.0053
  116SAPE  H18S12204   3.310   2.933   3.665 -0.3820 -0.7240  0.3275
  116SAPE  C21912205   3.139   2.896   3.797  0.9497 -0.5998 -0.5482
  116SAPE  H19R12206   3.097   2.808   3.850  1.5217 -0.2338  0.5408
  116SAPE  H19S12207   3.058   2.951   3.744  0.5570 -0.6745 -0.0294
  116SAPE  C22012208   3.197   2.999   3.892  0.3502 -0.2773  0.2646
  116SAPE  H20R12209   3.116   3.051   3.946 -1.9673 -1.9310 -1.4347
  116SAPE  H20S12210   3.264   3.078   3.852  0.3877 -1.0681 -1.3184
  116SAPE  H20T12211   3.261   2.953   3.971 -0.2269 -0.7375  0.4742
  116SAPE   C3312212   3.528   2.923   2.623 -0.5892  0.2667 -0.2668
  116SAPE   H3X12213   3.460   2.981   2.557  1.4119  3.2816  0.1352
  116SAPE   H3Y12214   3.631   2.961   2.610  0.2156 -2.0334 -1.0364
  116SAPE   C3412215   3.481   2.944   2.765 -0.5276 -0.0797 -0.4745
  116SAPE   H4X12216   3.456   2.844   2.806  0.5187 -0.1434  0.0514
  116SAPE   H4Y12217   3.382   2.992   2.749 -0.6189 -0.7603 -2.0609
  116SAPE   C3512218   3.565   3.026   2.860  0.8550 -0.0378 -0.6396
  116SAPE   H5X12219   3.558   3.135   2.838  0.9355  0.1033  0.0049
  116SAPE   H5Y12220   3.669   2.988   2.861  1.0033  0.3165 -1.8976
  116SAPE   C3612221   3.509   3.008   3.009  0.3095 -0.3321  0.0055
  116SAPE   H6X12222   3.520   2.901   3.035  0.4978 -0.3338 -0.0765
  116SAPE   H6Y12223   3.401   3.035   3.003  0.0352 -1.4325 -0.0660
  116SAPE   C3712224   3.568   3.093   3.120 -0.2302  0.1615 -0.2710
  116SAPE   H7X12225   3.529   3.197   3.111 -2.1493  0.0628  4.3051
  116SAPE   H7Y12226   3.678   3.095   3.133 -0.3926  0.8393  1.2656
  116SAPE   C3812227   3.538   3.037   3.266  0.0398  0.7139  0.3021
  116SAPE   H8X12228   3.569   2.931   3.262 -0.2783  0.6538 -1.2945
  116SAPE   H8Y12229   3.429   3.037   3.288 -0.3287  2.7297 -1.2343
  116SAPE   C3912230   3.599   3.125   3.371  0.4194 -0.1579  0.3392
  116SAPE   H9X12231   3.587   3.231   3.338 -0.3956 -1.4168 -4.0417
  116SAPE   H9Y12232   3.710   3.113   3.362  0.8589  2.9200  0.3927
  116SAPE  C31012233   3.557   3.079   3.508 -0.5545 -0.4239 -0.9176
  116SAPE  H10X12234   3.592   2.974   3.522  2.3313  0.5833 -0.1105
  116SAPE  H10Y12235   3.446   3.083   3.521 -0.5167  1.1422 -0.9619
  116SAPE  C31112236   3.625   3.162   3.621  0.3000 -0.6452 -0.2846
  116SAPE  H11X12237   3.596   3.269   3.624  0.6540 -0.5579  0.9148
  116SAPE  H11Y12238   3.735   3.166   3.608  0.0365  2.5989 -2.4839
  116SAPE  C31212239   3.597   3.112   3.763 -0.6540  0.1048 -0.5689
  116SAPE  H12X12240   3.631   3.006   3.754  0.8531  0.5912 -0.9635
  116SAPE  H12Y12241   3.489   3.119   3.786 -0.6877  0.2088 -0.7572
  116SAPE  C31312242   3.683   3.184   3.865 -0.0179  0.2089 -0.1286
  116SAPE  H13X12243   3.789   3.192   3.833 -0.8233  0.1417 -3.1066
  116SAPE  H13Y12244   3.674   3.141   3.967 -0.3270  1.3036  0.3197
  116SAPE  C31412245   3.657   3.339   3.879  0.9671  0.5261  0.3118
  116SAPE  H14X12246   3.546   3.339   3.884  0.8442 -1.3144 -1.1718
  116SAPE  H14Y12247   3.678   3.397   3.786  2.6095  0.8739  0.8577
  116SAPE  C31512248   3.726   3.402   4.002 -0.4751  0.3318 -0.5007
  116SAPE  H15X12249   3.834   3.392   3.980 -0.4026 -0.1942  0.0462
  116SAPE  H15Y12250   3.715   3.335   4.091  0.6617 -0.3522 -0.8482
  116SAPE  C31612251   3.708   3.549   4.021 -0.3816 -0.5902  0.5964
  116SAPE  H16X12252   3.600   3.570   4.038 -0.2514  2.6150 -1.6608
  116SAPE  H16Y12253   3.732   3.598   3.924  0.6348  0.7856  1.5079
  116SAPE  C31712254   3.805   3.621   4.116  0.0243 -0.4871 -0.5084
  116SAPE  H17X12255   3.801   3.728   4.088  0.6256 -0.3135  0.0493
  116SAPE  H17Y12256   3.904   3.582   4.085 -0.2747 -1.4950 -0.2268
  116SAPE  C31812257   3.774   3.601   4.267 -0.4857 -0.4614  0.2588
  116SAPE  H18X12258   3.773   3.493   4.291 -0.1208 -0.2121  1.4594
  116SAPE  H18Y12259   3.675   3.649   4.279 -0.8433 -0.5053 -2.0750
  116SAPE  H18Z12260   3.852   3.653   4.327 -0.2724 -0.7410  0.2237
  117SOPE     N12261   3.991   3.340   6.395 -0.6564 -0.6037 -0.3461
  117SOPE   HN112262   4.013   3.332   6.293  1.6354  1.1051 -0.0551
  117SOPE   HN212263   4.072   3.388   6.438 -0.2411 -1.7587  0.1975
  117SOPE   HN312264   3.976   3.249   6.443 -4.6484  0.7762  1.3702
  117SOPE   C1212265   3.861   3.421   6.401  0.1237 -0.2320 -0.1062
  117SOPE  H12A12266   3.899   3.525   6.410  1.4574 -0.5827 -1.4016
  117SOPE  H12B12267   3.807   3.379   6.489  2.1923 -1.3867  0.6778
  117SOPE   C1112268   3.775   3.414   6.272  0.4622  0.7190 -0.7107
  117SOPE  H11A12269   3.821   3.445   6.175 -1.5512 -1.6168 -2.5436
  117SOPE  H11B12270   3.685   3.475   6.294  1.1581  0.5944  3.1861
  117SOPE     P12271   3.606   3.224   6.301 -0.1596  0.2387 -0.4183
  117SOPE   O1312272   3.492   3.316   6.285  0.2186 -0.5186  0.3463
  117SOPE   O1412273   3.623   3.163   6.434 -0.6314 -0.3637 -0.1323
  117SOPE   O1212274   3.750   3.274   6.255  0.2414 -0.4320  0.5889
  117SOPE   O1112275   3.586   3.098   6.201 -0.8270 -0.7169 -0.0491
  117SOPE    C112276   3.650   3.095   6.075  0.0286  0.0990 -0.0449
  117SOPE    HA12277   3.652   2.988   6.048  2.0030 -0.4492  1.9166
  117SOPE    HB12278   3.758   3.122   6.072 -0.0050  0.1357 -1.7475
  117SOPE    C212279   3.566   3.153   5.949 -0.1355 -0.1929  0.0555
  117SOPE    HS12280   3.607   3.115   5.853 -1.5899  0.3163 -0.7962
  117SOPE   O2112281   3.563   3.296   5.955  0.0510 -0.4071  0.2857
  117SOPE   C2112282   3.675   3.364   5.928  0.1220 -0.2631  0.1110
  117SOPE   O2212283   3.777   3.316   5.892 -0.4798  0.2046 -0.2113
  117SOPE   C2212284   3.652   3.509   5.934  0.3685  0.1183 -0.7464
  117SOPE   H2R12285   3.749   3.562   5.940  1.7593 -2.4075  0.5704
  117SOPE   H2S12286   3.602   3.529   6.031  2.0027  2.6131 -0.3457
  117SOPE    C312287   3.422   3.102   5.951  0.3202 -0.3741 -0.1686
  117SOPE    HX12288   3.392   3.103   6.058  1.3185 -0.3249  0.1186
  117SOPE    HY12289   3.432   2.995   5.924  0.8666 -0.9566  2.1144
  117SOPE   O3112290   3.340   3.196   5.880  0.8645  0.6901  0.6604
  117SOPE   C3112291   3.331   3.179   5.752 -0.8175  0.3927 -0.3976
  117SOPE   O3212292   3.397   3.095   5.688  0.3316  0.7679  0.1008
  117SOPE   C3212293   3.243   3.278   5.684 -0.1293 -0.6884  0.1803
  117SOPE   H2X12294   3.283   3.375   5.719 -1.3669  0.2304 -0.8740
  117SOPE   H2Y12295   3.142   3.260   5.727  0.9504 -0.8189  2.8720
  117SOPE   C2312296   3.558   3.565   5.826 -0.6244  0.2315  1.1471
  117SOPE   H3R12297   3.541   3.675   5.828 -1.3370  0.1352  0.5699
  117SOPE   H3S12298   3.461   3.513   5.842 -0.3306  0.0101  2.3179
  117SOPE   C2412299   3.612   3.534   5.682 -0.1053 -0.0543  0.2655
  117SOPE   H4R12300   3.615   3.427   5.653  4.0161 -0.0698  0.1464
  117SOPE   H4S12301   3.534   3.581   5.619  1.5105  2.4466 -0.0257
  117SOPE   C2512302   3.747   3.595   5.657  0.3077  0.2108  1.1241
  117SOPE   H5R12303   3.738   3.704   5.672  0.1152  0.4716 -0.6535
  117SOPE   H5S12304   3.820   3.555   5.731  0.9810  1.7786  1.3274
  117SOPE   C2612305   3.785   3.562   5.515  0.8081 -0.4910  0.1105
  117SOPE   H6R12306   3.895   3.571   5.502  0.7224  1.6517  0.5431
  117SOPE   H6S12307   3.763   3.454   5.498  1.7306 -0.5077 -1.1340
  117SOPE   C2712308   3.707   3.646   5.412 -0.3970 -0.3258 -0.7392
  117SOPE   H7R12309   3.599   3.622   5.418 -0.9574  2.1254  0.4424
  117SOPE   H7S12310   3.710   3.754   5.438  0.5775 -0.8155  1.3580
  117SOPE   C2812311   3.763   3.639   5.270  0.0353  0.0174 -0.2969
  117SOPE   H8R12312   3.706   3.721   5.222  1.4134  1.5363  0.5950
  117SOPE   H8S12313   3.870   3.668   5.270  0.8932 -2.8212 -0.6665
  117SOPE   C2912314   3.729   3.504   5.217  0.0150 -0.5169  0.4672
  117SOPE   H9112315   3.711   3.417   5.282 -3.3750 -0.8181 -0.6338
  117SOPE  C21012316   3.708   3.481   5.086  0.6468 -0.3297  0.2854
  117SOPE  H10112317   3.674   3.382   5.055  1.2094 -0.3681 -0.2401
  117SOPE  C21112318   3.742   3.587   4.979  0.1221 -0.5040  0.4488
  117SOPE  H11R12319   3.829   3.652   5.002  0.4475 -0.9106  0.3851
  117SOPE  H11S12320   3.667   3.669   4.975 -1.5268 -1.9539  0.6404
  117SOPE  C21212321   3.771   3.534   4.837 -0.1028  0.4312 -0.5826
  117SOPE  H12R12322   3.860   3.469   4.846  0.7280  1.3790 -1.6213
  117SOPE  H12S12323   3.804   3.622   4.777 -0.3667  0.3999 -0.7776
  117SOPE  C21312324   3.650   3.465   4.771 -0.2545 -0.2301  0.7098
  117SOPE  H13R12325   3.559   3.526   4.785 -0.3471 -0.0559 -0.5493
  117SOPE  H13S12326   3.645   3.367   4.824  3.6598 -0.7336  0.4637
  117SOPE  C21412327   3.661   3.439   4.620 -0.2711 -0.6917  0.3224
  117SOPE  H14R12328   3.740   3.361   4.606 -1.4087 -1.9123  0.5332
  117SOPE  H14S12329   3.691   3.537   4.577  1.0252  1.0528  4.6163
  117SOPE  C21512330   3.527   3.389   4.550 -0.5477  0.0325  0.0794
  117SOPE  H15R12331   3.456   3.473   4.538  0.3084  0.5588 -1.6092
  117SOPE  H15S12332   3.483   3.306   4.609  1.2486 -0.7983  0.3275
  117SOPE  C21612333   3.552   3.329   4.406 -0.0146  0.3460  0.0661
  117SOPE  H16R12334   3.624   3.245   4.415  0.0497  0.2219 -1.4082
  117SOPE  H16S12335   3.593   3.400   4.331  1.6845  0.8984  1.4401
  117SOPE  C21712336   3.423   3.269   4.352  0.0179 -0.2448  0.7483
  117SOPE  H17R12337   3.341   3.344   4.359  0.1454  0.2159 -1.6808
  117SOPE  H17S12338   3.388   3.182   4.411 -2.0735 -0.7473 -1.1130
  117SOPE  C21812339   3.431   3.224   4.210 -0.4779  0.5267  0.3810
  117SOPE  H18R12340   3.488   3.129   4.200 -0.0306  0.8268  0.0474
  117SOPE  H18S12341   3.475   3.298   4.140  3.1944  0.3412  2.2440
  117SOPE  H18T12342   3.333   3.184   4.177  0.5073 -0.3035 -1.7900
  117SOPE   C3312343   3.247   3.271   5.529  0.7277  0.4395 -0.0676
  117SOPE   H3X12344   3.158   3.327   5.493 -0.2096 -0.3455  0.9407
  117SOPE   H3Y12345   3.243   3.167   5.493 -0.9451 -0.3783  2.2332
  117SOPE   C3412346   3.371   3.336   5.462 -0.1645 -0.5987 -0.0333
  117SOPE   H4X12347   3.451   3.267   5.494 -0.2098 -0.7347 -0.2154
  117SOPE   H4Y12348   3.392   3.444   5.480 -1.1006 -0.4607  0.3036
  117SOPE   C3512349   3.372   3.331   5.302 -0.3601 -0.5229 -0.0412
  117SOPE   H5X12350   3.472   3.364   5.265  0.4176 -3.1772 -0.5345
  117SOPE   H5Y12351   3.294   3.403   5.269  2.3411  1.2991 -3.1268
  117SOPE   C3612352   3.344   3.192   5.234 -0.5379 -0.1596 -0.1098
  117SOPE   H6X12353   3.245   3.145   5.257  0.1102 -0.7278  1.7290
  117SOPE   H6Y12354   3.420   3.124   5.278 -0.0095  0.3002 -0.3151
  117SOPE   C3712355   3.354   3.196   5.090 -0.3545  0.4827  0.6203
  117SOPE   H7X12356   3.342   3.092   5.051  0.3370 -0.1970  2.1386
  117SOPE   H7Y12357   3.449   3.239   5.053 -1.5666  2.1170 -0.7256
  117SOPE   C3812358   3.238   3.285   5.023 -0.1383  0.1444 -0.1360
  117SOPE   H8X12359   3.220   3.385   5.068  1.2841 -0.0377  0.9043
  117SOPE   H8Y12360   3.147   3.226   5.046  0.4240 -0.1283  1.4999
  117SOPE   C3912361   3.267   3.292   4.871 -0.4620  0.2197  0.5801
  117SOPE   H9X12362   3.309   3.195   4.839 -1.0279  0.6958 -1.8376
  117SOPE   H9Y12363   3.344   3.369   4.847 -0.2282 -0.0236  0.5466
  117SOPE  C31012364   3.139   3.293   4.785 -0.6171  0.4263 -0.0108
  117SOPE  H10X12365   3.081   3.374   4.835  0.3983  1.7831 -0.9371
  117SOPE  H10Y12366   3.088   3.195   4.793  0.4078 -0.2022 -0.8616
  117SOPE  C31112367   3.153   3.327   4.638 -0.2234 -0.4239 -0.1549
  117SOPE  H11X12368   3.228   3.258   4.594 -0.2604 -0.0879 -0.7598
  117SOPE  H11Y12369   3.204   3.425   4.630 -0.1047 -0.3924  0.8541
  117SOPE  C31212370   3.024   3.305   4.550 -0.2656 -0.2932 -0.0387
  117SOPE  H12X12371   2.953   3.388   4.573  0.3716  0.4517 -0.6946
  117SOPE  H12Y12372   2.991   3.203   4.576  2.0676 -1.0974  0.0111
  117SOPE  C31312373   3.054   3.333   4.408  0.5997 -0.7970 -0.4580
  117SOPE  H13X12374   3.091   3.232   4.379 -1.1584 -1.3015 -1.0660
  117SOPE  H13Y12375   3.137   3.402   4.381  0.8278 -1.5459 -1.7598
  117SOPE  C31412376   2.925   3.371   4.330  0.5607 -0.6304  1.0439
  117SOPE  H14X12377   2.908   3.474   4.368 -2.1224 -1.6826  3.0079
  117SOPE  H14Y12378   2.848   3.297   4.361  0.7594 -0.7854  1.1699
  117SOPE  C31512379   2.941   3.372   4.172 -1.2043 -0.1193  0.2217
  117SOPE  H15X12380   2.842   3.398   4.128 -1.3171 -0.6105  0.1823
  117SOPE  H15Y12381   2.974   3.270   4.145  0.9127  0.4478  0.4798
  117SOPE  C31612382   3.047   3.468   4.121  0.2624  0.7559 -0.9303
  117SOPE  H16X12383   3.144   3.446   4.169 -0.5999 -4.5638 -0.9707
  117SOPE  H16Y12384   3.005   3.569   4.144 -0.4182 -0.1138  2.0439
  117SOPE  C31712385   3.059   3.468   3.967 -0.4647  0.6760  0.3331
  117SOPE  H17X12386   3.096   3.569   3.940 -1.6067  1.4217  1.4012
  117SOPE  H17Y12387   2.959   3.453   3.921 -0.2486 -1.2782  0.4107
  117SOPE  C31812388   3.142   3.347   3.921 -0.0150 -0.4212  0.5442
  117SOPE  H18X12389   3.086   3.256   3.952  0.2974 -0.0800  2.2171
  117SOPE  H18Y12390   3.231   3.338   3.986 -0.3567 -1.5590  0.8830
  117SOPE  H18Z12391   3.169   3.351   3.813 -0.3231  0.1896  0.4868
  118SOPE     N12392   4.029   5.079   6.473 -0.4859  0.3446 -0.3285
  118SOPE   HN112393   4.109   5.031   6.520 -1.5365 -0.1936  1.0148
  118SOPE   HN212394   3.969   5.135   6.537  0.8102 -0.1279  1.3662
  118SOPE   HN312395   3.969   5.006   6.430  1.8655 -0.8982 -1.6806
  118SOPE   C1212396   4.079   5.178   6.372 -0.1246 -0.4155 -0.2356
  118SOPE  H12A12397   4.190   5.175   6.365 -0.1337  0.1497 -0.7039
  118SOPE  H12B12398   4.060   5.280   6.412 -1.3656 -0.8089  0.2047
  118SOPE   C1112399   4.026   5.152   6.233  0.2872  0.4094 -0.4348
  118SOPE  H11A12400   4.037   5.043   6.213 -1.8928  0.1651 -0.5407
  118SOPE  H11B12401   4.089   5.199   6.154  1.0443  0.0540 -0.0427
  118SOPE     P12402   3.829   5.312   6.152  0.0797  0.0679 -0.0126
  118SOPE   O1312403   3.893   5.437   6.192  0.0044 -0.1267  0.5323
  118SOPE   O1412404   3.683   5.299   6.167  0.5005  0.4605 -0.0925
  118SOPE   O1212405   3.889   5.189   6.222 -0.7148  0.3402  0.4690
  118SOPE   O1112406   3.867   5.290   6.002 -0.6188  0.4051  0.2996
  118SOPE    C112407   3.792   5.218   5.911  0.1811  0.0404 -0.4827
  118SOPE    HA12408   3.808   5.263   5.811 -0.8297 -2.7338 -1.9872
  118SOPE    HB12409   3.684   5.223   5.936  0.8355 -0.1771  2.8348
  118SOPE    C212410   3.836   5.070   5.916 -0.0766 -0.5443 -0.5430
  118SOPE    HS12411   3.838   5.024   6.017 -2.2794  0.1669 -0.1198
  118SOPE   O2112412   3.958   5.069   5.843  0.3022  0.2779 -0.2630
  118SOPE   C2112413   4.042   4.971   5.893  0.1674  0.5963  0.5116
  118SOPE   O2212414   4.015   4.904   5.993  0.1293 -0.0390  0.0509
  118SOPE   C2212415   4.177   4.957   5.809  0.1557 -0.2833 -0.6857
  118SOPE   H2R12416   4.210   4.856   5.842 -5.3137 -2.5420 -1.1339
  118SOPE   H2S12417   4.252   5.039   5.824 -1.7571  1.4919 -0.3484
  118SOPE    C312418   3.730   4.990   5.825  0.0048 -0.1848 -0.0692
  118SOPE    HX12419   3.626   4.986   5.863 -0.8395 -1.6250 -2.3166
  118SOPE    HY12420   3.762   4.884   5.821 -1.7737 -0.7655  0.2031
  118SOPE   O3112421   3.727   5.049   5.692 -0.1120  0.1770  0.6058
  118SOPE   C3112422   3.759   4.968   5.588  0.0265 -0.0351 -0.2488
  118SOPE   O3212423   3.787   4.850   5.600 -0.1815  0.5711 -0.0919
  118SOPE   C3212424   3.743   5.049   5.450 -0.2805 -0.3457  0.3133
  118SOPE   H2X12425   3.827   5.122   5.446  0.0983 -0.8159 -0.5181
  118SOPE   H2Y12426   3.652   5.112   5.462 -0.1668  0.1092 -1.0707
  118SOPE   C2312427   4.142   4.935   5.664  0.5010  1.0101 -0.4946
  118SOPE   H3R12428   4.112   5.034   5.625  1.9105  2.2154  1.3312
  118SOPE   H3S12429   4.057   4.864   5.650  1.7256 -1.1738  2.0950
  118SOPE   C2412430   4.251   4.892   5.568  0.2793 -0.0110 -0.4306
  118SOPE   H4R12431   4.333   4.966   5.579  0.0960  0.6291 -2.6917
  118SOPE   H4S12432   4.298   4.800   5.608 -0.3742  0.4615  1.5235
  118SOPE   C2512433   4.205   4.880   5.421 -0.0698 -0.1342 -0.0869
  118SOPE   H5R12434   4.264   4.795   5.382  1.2566  0.2013  1.0879
  118SOPE   H5S12435   4.098   4.850   5.414 -0.3105  0.5036  0.7006
  118SOPE   C2612436   4.227   5.008   5.334  0.2061 -0.8608 -0.5439
  118SOPE   H6R12437   4.209   5.101   5.392  2.2137  0.3464 -1.7493
  118SOPE   H6S12438   4.331   5.003   5.295  1.3705  2.8285  1.6254
  118SOPE   C2712439   4.137   4.988   5.212  0.5888  0.2568 -0.2041
  118SOPE   H7R12440   4.112   4.885   5.179 -0.6090  0.7607 -0.9410
  118SOPE   H7S12441   4.037   5.035   5.229  1.0379  1.1182  0.1542
  118SOPE   C2812442   4.192   5.054   5.082 -0.6842  0.5315 -0.3216
  118SOPE   H8R12443   4.232   5.154   5.109 -2.8106  0.8488  2.1560
  118SOPE   H8S12444   4.270   4.981   5.053 -2.1829 -0.2015 -2.8263
  118SOPE   C2912445   4.096   5.048   4.972  0.0940 -1.2771 -0.0797
  118SOPE   H9112446   4.078   4.943   4.942  1.2284 -1.2832 -0.7794
  118SOPE  C21012447   4.028   5.152   4.922  0.4121  0.4256 -0.4942
  118SOPE  H10112448   3.955   5.128   4.843  1.6833 -1.1780 -1.2490
  118SOPE  C21112449   4.050   5.298   4.947 -0.3783 -0.1874  0.2474
  118SOPE  H11R12450   4.130   5.317   5.023 -0.7624  1.6156  0.2462
  118SOPE  H11S12451   3.961   5.346   4.992  1.8364  3.0919  1.5690
  118SOPE  C21212452   4.091   5.374   4.815  0.4810 -0.2926 -0.2029
  118SOPE  H12R12453   4.025   5.331   4.736  2.0123 -1.9977 -0.6131
  118SOPE  H12S12454   4.198   5.352   4.796  0.6160  0.5135 -0.4170
  118SOPE  C21312455   4.060   5.524   4.832  0.3105 -0.4026 -0.1238
  118SOPE  H13R12456   3.974   5.526   4.902 -0.7560  0.6156 -1.4205
  118SOPE  H13S12457   4.026   5.566   4.736 -1.1753 -0.0814  0.5184
  118SOPE  C21412458   4.196   5.591   4.886  0.5541  0.5406  0.2412
  118SOPE  H14R12459   4.260   5.598   4.795  0.2708 -1.5439 -0.1765
  118SOPE  H14S12460   4.236   5.521   4.963  2.0617  0.1123 -0.8729
  118SOPE  C21512461   4.157   5.732   4.941 -0.1426 -0.3199  0.1684
  118SOPE  H15R12462   4.074   5.720   5.014 -0.6091 -0.7864 -0.4268
  118SOPE  H15S12463   4.113   5.801   4.866 -1.4648 -0.5546  0.6926
  118SOPE  C21612464   4.272   5.799   5.018  0.2087  0.0548  0.4945
  118SOPE  H16R12465   4.241   5.900   5.051  1.0537  0.6568 -0.5051
  118SOPE  H16S12466   4.361   5.820   4.955  0.6623  1.8102  1.6566
  118SOPE  C21712467   4.322   5.715   5.135  0.5048 -0.0403 -0.5823
  118SOPE  H17R12468   4.374   5.625   5.094 -0.0173 -0.9140  0.5960
  118SOPE  H17S12469   4.235   5.684   5.196  1.3227 -0.4843  0.3878
  118SOPE  C21812470   4.402   5.794   5.234  0.4103 -0.0053  0.2970
  118SOPE  H18R12471   4.477   5.860   5.184  1.2930 -0.8798  0.4282
  118SOPE  H18S12472   4.461   5.724   5.297 -0.2565 -2.1759 -1.3915
  118SOPE  H18T12473   4.329   5.851   5.296 -0.8214  0.2638 -1.3169
  118SOPE   C3312474   3.730   4.954   5.325 -0.7984 -0.3651  0.5390
  118SOPE   H3X12475   3.646   4.883   5.338 -1.4994  0.2928 -0.3163
  118SOPE   H3Y12476   3.811   4.878   5.320  0.8274  1.1068  2.6645
  118SOPE   C3412477   3.717   5.031   5.196 -0.2642  0.1639  0.7428
  118SOPE   H4X12478   3.809   5.089   5.171 -2.0005  2.1893 -1.4277
  118SOPE   H4Y12479   3.636   5.107   5.206 -0.5350 -0.2438  1.6943
  118SOPE   C3512480   3.681   4.948   5.060 -0.0061 -0.4643 -0.0504
  118SOPE   H5X12481   3.574   4.918   5.072 -0.5026  1.0022 -0.5760
  118SOPE   H5Y12482   3.750   4.862   5.064 -0.1847 -0.5742  2.8599
  118SOPE   C3612483   3.688   5.025   4.929  0.0736  0.6008 -0.0451
  118SOPE   H6X12484   3.776   5.093   4.929 -0.2884  1.1344 -2.2458
  118SOPE   H6Y12485   3.606   5.099   4.926  1.2240  2.0909  1.9904
  118SOPE   C3712486   3.682   4.937   4.803 -0.1327 -0.8225  0.8292
  118SOPE   H7X12487   3.599   4.868   4.831  0.3071 -1.5283  0.4331
  118SOPE   H7Y12488   3.776   4.880   4.787  0.8917  1.1863 -0.7330
  118SOPE   C3812489   3.658   5.018   4.679  0.0981 -0.7705 -0.5435
  118SOPE   H8X12490   3.570   5.084   4.696  0.8868  0.9064 -2.5431
  118SOPE   H8Y12491   3.632   4.955   4.591 -1.2599  0.2571 -0.9144
  118SOPE   C3912492   3.768   5.106   4.629  0.3611 -0.6284  0.1801
  118SOPE   H9X12493   3.786   5.189   4.700 -0.9432 -0.0689 -0.1209
  118SOPE   H9Y12494   3.731   5.163   4.541  2.3122  1.6652  0.7345
  118SOPE  C31012495   3.886   5.031   4.582  0.5951  0.4949 -0.7663
  118SOPE  H10X12496   3.860   4.966   4.495  1.5261  0.0560 -0.7253
  118SOPE  H10Y12497   3.923   4.971   4.667  0.5703  1.5480  0.0050
  118SOPE  C31112498   4.002   5.121   4.538 -0.4860  0.1380 -0.6254
  118SOPE  H11X12499   4.066   5.057   4.474  1.2062 -1.4782  2.4433
  118SOPE  H11Y12500   4.058   5.152   4.629 -0.5174 -2.3327  0.3091
  118SOPE  C31212501   3.957   5.234   4.446  0.2122  0.9454 -0.2904
  118SOPE  H12X12502   3.908   5.322   4.494 -2.5599  0.0592 -1.3154
  118SOPE  H12Y12503   3.878   5.185   4.385 -0.1890 -1.8648  2.2620
  118SOPE  C31312504   4.067   5.285   4.349  1.0530 -0.6787 -0.1995
  118SOPE  H13X12505   4.022   5.320   4.254  0.8538  2.6021  0.9447
  118SOPE  H13Y12506   4.134   5.199   4.332  1.0876 -0.9666  1.2692
  118SOPE  C31412507   4.142   5.414   4.401  0.5056 -0.1683 -0.5462
  118SOPE  H14X12508   4.190   5.384   4.497 -0.5483  2.1176  0.7956
  118SOPE  H14Y12509   4.078   5.503   4.419  0.8391  0.1618 -0.9694
  118SOPE  C31512510   4.246   5.463   4.299  0.4889 -0.5694 -0.6397
  118SOPE  H15X12511   4.203   5.494   4.201 -1.7533  0.1093  0.4871
  118SOPE  H15Y12512   4.311   5.375   4.275 -0.6471 -1.2301 -1.3955
  118SOPE  C31612513   4.313   5.594   4.329 -0.2129 -0.1890 -0.2335
  118SOPE  H16X12514   4.396   5.614   4.258 -1.6883  3.7299 -1.1235
  118SOPE  H16Y12515   4.356   5.598   4.431 -0.2579 -0.9311 -0.1786
  118SOPE  C31712516   4.231   5.723   4.303  0.2002  0.3046  0.4295
  118SOPE  H17X12517   4.135   5.725   4.358 -0.8922  1.7199 -1.4118
  118SOPE  H17Y12518   4.211   5.728   4.194  0.5553 -1.6493  0.2291
  118SOPE  C31812519   4.301   5.849   4.359 -0.3160  0.3729  0.4169
  118SOPE  H18X12520   4.244   5.944   4.363 -0.7575  0.1268  0.0296
  118SOPE  H18Y12521   4.400   5.864   4.310  0.6109 -2.7627  1.1097
  118SOPE  H18Z12522   4.314   5.826   4.467  2.0853 -3.2746 -0.4752
  119SOPE     N12523   5.375   0.326   6.625  0.0749  0.4524  0.8117
  119SOPE   HN112524   5.445   0.329   6.701  0.8849 -1.7545  0.2235
  119SOPE   HN212525   5.421   0.301   6.535 -1.8680 -1.5089  0.2579
  119SOPE   HN312526   5.325   0.417   6.615 -1.6184 -0.4931  0.2587
  119SOPE   C1212527   5.253   0.242   6.670 -0.1470  0.2758  0.2353
  119SOPE  H12A12528   5.237   0.268   6.777 -1.6169  0.1246  0.0807
  119SOPE  H12B12529   5.286   0.136   6.663  0.4444  0.5770 -3.1168
  119SOPE   C1112530   5.129   0.262   6.588 -0.0621  0.9174  0.5014
  119SOPE  H11A12531   5.058   0.179   6.609 -0.5071  1.2513  0.3444
  119SOPE  H11B12532   5.163   0.244   6.484 -0.7639 -2.1343  0.6968
  119SOPE     P12533   4.936   0.421   6.683 -0.0675  0.4485 -0.5078
  119SOPE   O1312534   4.931   0.561   6.721  0.0867  0.0416 -0.3334
  119SOPE   O1412535   4.942   0.332   6.800  1.0091  0.0433  0.0020
  119SOPE   O1212536   5.072   0.394   6.606 -0.1019  0.7191 -0.0314
  119SOPE   O1112537   4.815   0.373   6.592  0.2534  0.1045  0.0489
  119SOPE    C112538   4.804   0.413   6.459  0.5447 -0.5265 -0.2949
  119SOPE    HA12539   4.886   0.477   6.421  0.2981  0.0475  0.1190
  119SOPE    HB12540   4.715   0.480   6.454  2.4615  2.4185  1.6476
  119SOPE    C212541   4.800   0.288   6.364  0.3396 -0.2858 -0.0485
  119SOPE    HS12542   4.910   0.273   6.359  0.5253  1.3203 -2.2704
  119SOPE   O2112543   4.743   0.308   6.230 -0.5386 -0.3887  0.2072
  119SOPE   C2112544   4.829   0.376   6.150  0.5115 -0.7770  0.2200
  119SOPE   O2212545   4.934   0.419   6.189 -0.4751 -0.3296 -0.9648
  119SOPE   C2212546   4.772   0.390   6.009 -0.2380  0.5189  0.0265
  119SOPE   H2R12547   4.662   0.377   6.021 -0.0680 -1.6731 -0.3507
  119SOPE   H2S12548   4.805   0.299   5.954  1.5911  1.1889 -0.0227
  119SOPE    C312549   4.741   0.158   6.428  0.0925  0.7343  0.2862
  119SOPE    HX12550   4.632   0.173   6.439  0.1381  0.6440  0.8842
  119SOPE    HY12551   4.785   0.141   6.529 -1.2572 -0.7708  0.6427
  119SOPE   O3112552   4.750   0.048   6.333  0.3961  0.4031 -0.3313
  119SOPE   C3112553   4.872  -0.006   6.334  0.5008 -0.4178  0.2567
  119SOPE   O3212554   4.951   0.020   6.423 -0.3702  0.1306 -0.3031
  119SOPE   C3212555   4.889  -0.099   6.215  0.0558  0.1965  0.8248
  119SOPE   H2X12556   4.802  -0.167   6.215 -0.8934  1.3230 -1.2658
  119SOPE   H2Y12557   4.982  -0.158   6.231  0.5996  0.1888 -1.8980
  119SOPE   C2312558   4.817   0.515   5.927  0.8074 -0.6414  0.6813
  119SOPE   H3R12559   4.913   0.551   5.968  0.2717  0.2290  1.2035
  119SOPE   H3S12560   4.738   0.592   5.945  1.6128 -0.0620  1.8794
  119SOPE   C2412561   4.820   0.484   5.778  0.4552  0.5289  0.7376
  119SOPE   H4R12562   4.860   0.572   5.723 -2.7471  2.3040  1.0110
  119SOPE   H4S12563   4.886   0.399   5.750  1.1065  0.6988  1.7260
  119SOPE   C2512564   4.678   0.461   5.729 -0.4349 -0.0338 -0.3431
  119SOPE   H5R12565   4.640   0.367   5.774 -1.8966 -0.4488 -2.2983
  119SOPE   H5S12566   4.629   0.550   5.774  1.2325  2.5272 -3.2357
  119SOPE   C2612567   4.659   0.463   5.580  0.0496 -0.0310 -0.4712
  119SOPE   H6R12568   4.550   0.456   5.556 -0.1782  3.1949 -0.7963
  119SOPE   H6S12569   4.690   0.563   5.543  0.5204  0.5238  1.3175
  119SOPE   C2712570   4.721   0.345   5.501 -0.4369  1.4402 -0.1364
  119SOPE   H7R12571   4.832   0.350   5.503 -0.2667 -0.2002 -2.2759
  119SOPE   H7S12572   4.693   0.261   5.568  3.8847 -0.4591 -0.3695
  119SOPE   C2812573   4.659   0.329   5.356  0.5477  1.0454  0.0896
  119SOPE   H8R12574   4.678   0.229   5.312  0.4928 -0.0606  2.4271
  119SOPE   H8S12575   4.551   0.324   5.382 -0.0083 -0.3127 -2.2854
  119SOPE   C2912576   4.679   0.446   5.264 -0.5938 -1.3038  0.1389
  119SOPE   H9112577   4.727   0.536   5.305 -0.7089 -0.3652 -1.6949
  119SOPE  C21012578   4.657   0.452   5.130  0.3047 -0.0606 -1.3300
  119SOPE  H10112579   4.679   0.548   5.081 -0.1193  1.1966  0.8097
  119SOPE  C21112580   4.585   0.339   5.051 -0.2093  0.2272  0.9472
  119SOPE  H11R12581   4.489   0.376   5.009  0.5801  0.3997 -0.7820
  119SOPE  H11S12582   4.573   0.245   5.108 -0.1200 -0.3355  0.0501
  119SOPE  C21212583   4.647   0.285   4.913 -0.0918 -0.1932 -0.3420
  119SOPE  H12R12584   4.730   0.212   4.925  0.0227 -0.1486 -0.8476
  119SOPE  H12S12585   4.687   0.372   4.856 -0.1880  1.0876  1.4306
  119SOPE  C21312586   4.545   0.223   4.814  0.8326  0.3352 -0.4483
  119SOPE  H13R12587   4.455   0.287   4.798  0.6244  0.3995  0.8664
  119SOPE  H13S12588   4.515   0.127   4.860  0.5879  0.5839 -0.0807
  119SOPE  C21412589   4.618   0.209   4.687 -0.1802 -0.0830  0.4737
  119SOPE  H14R12590   4.713   0.151   4.692  0.7829  1.4664  0.7496
  119SOPE  H14S12591   4.656   0.301   4.639  1.8139 -0.3693  1.4040
  119SOPE  C21512592   4.535   0.154   4.571 -0.1663 -0.2251  0.0201
  119SOPE  H15R12593   4.474   0.067   4.602 -2.2150  1.0354 -0.2827
  119SOPE  H15S12594   4.618   0.135   4.499  0.7730  1.1723  0.6833
  119SOPE  C21612595   4.446   0.270   4.506  0.2891  0.1565  0.6335
  119SOPE  H16R12596   4.521   0.350   4.523  1.1226 -1.1684  3.9746
  119SOPE  H16S12597   4.367   0.286   4.582  0.4738  0.1184  0.8325
  119SOPE  C21712598   4.396   0.234   4.362 -0.5538 -0.1942 -0.4625
  119SOPE  H17R12599   4.491   0.204   4.311  0.4960  0.4744  1.0205
  119SOPE  H17S12600   4.352   0.320   4.306  0.1837  0.4019 -0.1518
  119SOPE  C21812601   4.292   0.137   4.360  0.6274  0.2305  0.1578
  119SOPE  H18R12602   4.197   0.190   4.382  1.4689  1.5975  0.6419
  119SOPE  H18S12603   4.296   0.046   4.422 -0.6822 -0.1264 -0.2410
  119SOPE  H18T12604   4.286   0.108   4.253  0.6579  1.6203 -0.2480
  119SOPE   C3312605   4.904  -0.018   6.082  0.0160 -0.8532  0.0890
  119SOPE   H3X12606   4.970   0.070   6.101  1.2538 -2.0185  1.4453
  119SOPE   H3Y12607   4.809   0.028   6.048 -0.3756 -0.7843  1.2255
  119SOPE   C3412608   4.954  -0.099   5.970 -0.7530 -0.0496  0.1481
  119SOPE   H4X12609   4.898  -0.195   5.958 -1.7180  0.6402 -1.0389
  119SOPE   H4Y12610   5.060  -0.125   5.990 -0.7832  0.9425  1.7912
  119SOPE   C3512611   4.949  -0.020   5.840  0.1563 -0.6089 -0.3619
  119SOPE   H5X12612   5.027   0.057   5.857 -0.7203  0.5092 -1.2352
  119SOPE   H5Y12613   4.848   0.025   5.829  0.4875  0.0471 -0.8135
  119SOPE   C3612614   4.970  -0.107   5.715  0.1059 -0.1117 -0.1567
  119SOPE   H6X12615   4.886  -0.179   5.703 -1.2335  1.2952  0.4559
  119SOPE   H6Y12616   5.070  -0.155   5.720  0.6134  0.9548  0.2889
  119SOPE   C3712617   4.968  -0.018   5.595  0.0645  0.1011  0.1150
  119SOPE   H7X12618   5.071   0.024   5.597 -0.3293  1.1259 -0.1240
  119SOPE   H7Y12619   4.899   0.069   5.599  0.6536  0.6324 -0.7231
  119SOPE   C3812620   4.947  -0.087   5.465  0.4319 -0.4499  0.5858
  119SOPE   H8X12621   4.842  -0.124   5.467  0.0347  0.6746  1.5207
  119SOPE   H8Y12622   4.998  -0.184   5.442 -1.1777 -1.0308 -0.7002
  119SOPE   C3912623   4.984   0.006   5.344  0.9352 -0.2858  0.9729
  119SOPE   H9X12624   5.081   0.054   5.369  2.2896 -1.6596 -1.3213
  119SOPE   H9Y12625   4.912   0.090   5.341  0.7681 -0.4173 -2.5237
  119SOPE  C31012626   4.974  -0.074   5.216  1.2707 -0.2528  0.0663
  119SOPE  H10X12627   4.874  -0.122   5.219 -0.1004  2.3937  0.0050
  119SOPE  H10Y12628   5.052  -0.152   5.207 -0.0940 -1.5733 -0.9031
  119SOPE  C31112629   4.992   0.010   5.078 -0.1995  0.1707 -0.3496
  119SOPE  H11X12630   5.092   0.057   5.089  1.2875 -2.6640 -0.7113
  119SOPE  H11Y12631   4.919   0.093   5.066  1.4445  1.7418  0.1102
  119SOPE  C31212632   4.993  -0.080   4.953 -0.3123 -0.2395  0.5120
  119SOPE  H12X12633   4.890  -0.081   4.912  0.1704 -0.7078 -0.7654
  119SOPE  H12Y12634   5.009  -0.179   5.001  1.6611  0.2171  0.8964
  119SOPE  C31312635   5.106  -0.059   4.845  0.5160  0.2120  0.3957
  119SOPE  H13X12636   5.141  -0.162   4.822  0.4588  0.3301 -0.2425
  119SOPE  H13Y12637   5.188   0.005   4.884  0.2318  0.6010  0.3559
  119SOPE  C31412638   5.050   0.026   4.724 -1.6172 -0.1500 -0.3311
  119SOPE  H14X12639   5.021   0.129   4.752  1.8609  0.7831  0.2999
  119SOPE  H14Y12640   4.957  -0.023   4.690 -1.5611  0.0545 -0.7771
  119SOPE  C31512641   5.157   0.035   4.614  0.8659  0.2953 -0.3171
  119SOPE  H15X12642   5.204  -0.066   4.609 -1.4541 -0.8422 -0.5146
  119SOPE  H15Y12643   5.237   0.108   4.637 -1.9863  4.8100 -3.1062
  119SOPE  C31612644   5.101   0.067   4.474 -0.0699  0.3052 -0.5220
  119SOPE  H16X12645   5.082   0.176   4.467 -0.1359  0.3000 -0.4207
  119SOPE  H16Y12646   5.007   0.009   4.457  0.1512 -1.1970  2.6989
  119SOPE  C31712647   5.202   0.018   4.369  0.4752  0.1688 -0.5985
  119SOPE  H17X12648   5.158   0.018   4.267 -0.9220 -1.3552 -0.0387
  119SOPE  H17Y12649   5.224  -0.088   4.392 -0.4246 -0.1884 -1.3245
  119SOPE  C31812650   5.334   0.091   4.366  0.3394 -0.5817 -0.3120
  119SOPE  H18X12651   5.341   0.199   4.394  2.8836 -0.7703 -0.0348
  119SOPE  H18Y12652   5.382   0.077   4.267 -0.4429 -1.8982 -0.5264
  119SOPE  H18Z12653   5.411   0.053   4.435  0.9698  0.6863 -0.2880
  120SOPE     N12654   0.161   1.128   6.846 -0.0097 -0.0488  0.2406
  120SOPE   HN112655   0.165   1.041   6.902 -2.4540 -0.2057  0.2795
  120SOPE   HN212656   0.137   1.211   6.905 -4.4509  1.4501 -3.0763
  120SOPE   HN312657   0.082   1.112   6.780  0.9480 -1.3642 -0.6273
  120SOPE   C1212658   0.274   1.164   6.763 -0.0935 -0.2951  0.2512
  120SOPE  H12A12659   0.297   1.073   6.704 -1.1927 -2.6613  3.2315
  120SOPE  H12B12660   0.360   1.188   6.830 -2.4115  1.8255  2.7133
  120SOPE   C1112661   0.248   1.283   6.672 -1.0380  0.0150 -0.0890
  120SOPE  H11A12662   0.335   1.293   6.604 -1.1843  1.8374 -0.0619
  120SOPE  H11B12663   0.253   1.386   6.712  0.3196  0.3915 -1.1527
  120SOPE     P12664   0.001   1.341   6.619 -0.1071 -0.6187 -0.1841
  120SOPE   O1312665   0.030   1.478   6.649  0.0929 -0.0185  0.5152
  120SOPE   O1412666  -0.064   1.274   6.731 -0.2281 -0.0678 -0.5804
  120SOPE   O1212667   0.134   1.261   6.591  0.5556 -0.5551 -0.1277
  120SOPE   O1112668  -0.080   1.322   6.486 -0.3191  0.0411  0.0864
  120SOPE    C112669  -0.021   1.264   6.372  0.4250 -0.0981 -0.1380
  120SOPE    HA12670  -0.100   1.254   6.294  0.4355  0.5184 -0.2351
  120SOPE    HB12671   0.013   1.159   6.386 -3.2025 -1.4697 -0.4627
  120SOPE    C212672   0.094   1.345   6.295 -0.2221 -0.0741 -0.3141
  120SOPE    HS12673   0.191   1.350   6.349  0.2330  0.3823 -1.1463
  120SOPE   O2112674   0.051   1.475   6.255  0.3401 -0.2176  0.6554
  120SOPE   C2112675   0.140   1.554   6.197 -1.3861 -0.3273  0.3265
  120SOPE   O2212676   0.257   1.527   6.183 -0.8264  0.3870 -0.1572
  120SOPE   C2212677   0.071   1.683   6.154  0.6291  0.6022  0.4882
  120SOPE   H2R12678   0.137   1.762   6.112 -2.9543  2.9336 -1.2768
  120SOPE   H2S12679   0.018   1.726   6.242 -2.2124 -1.7613  0.0890
  120SOPE    C312680   0.129   1.260   6.162 -0.0867  0.3750  0.1844
  120SOPE    HX12681   0.153   1.158   6.199  3.2471  0.9045 -0.1961
  120SOPE    HY12682   0.225   1.289   6.115 -0.3316 -2.6188 -2.5052
  120SOPE   O3112683   0.030   1.245   6.050 -0.7609 -0.2444 -0.4619
  120SOPE   C3112684   0.058   1.149   5.972 -0.2277  0.4166 -0.0754
  120SOPE   O3212685   0.164   1.092   5.960  0.0066  0.2609  0.1128
  120SOPE   C3212686  -0.081   1.096   5.912  0.0761  0.1427  0.0608
  120SOPE   H2X12687  -0.146   1.069   5.998 -1.0102 -0.7189 -0.9931
  120SOPE   H2Y12688  -0.061   1.003   5.853  0.0717  0.0084  0.2714
  120SOPE   C2312689  -0.027   1.654   6.036  0.1974  0.5344 -1.3259
  120SOPE   H3R12690  -0.115   1.598   6.074  0.0625  0.2649 -2.0235
  120SOPE   H3S12691   0.028   1.587   5.966  1.6617  0.5066 -0.2069
  120SOPE   C2412692  -0.067   1.781   5.959 -0.3187  0.0205 -0.6253
  120SOPE   H4R12693  -0.088   1.868   6.025 -0.2712 -1.1776  1.0236
  120SOPE   H4S12694   0.012   1.816   5.888  1.5181  0.0909  1.3654
  120SOPE   C2512695  -0.186   1.752   5.869 -0.3147 -0.6600 -0.0112
  120SOPE   H5R12696  -0.275   1.732   5.933 -0.5296 -0.8225 -0.3562
  120SOPE   H5S12697  -0.216   1.845   5.817  0.8402  0.2587  0.9174
  120SOPE   C2612698  -0.166   1.642   5.764  0.4140  0.2982 -0.4336
  120SOPE   H6R12699  -0.059   1.643   5.735  0.3291 -0.9235 -0.8441
  120SOPE   H6S12700  -0.191   1.536   5.786  1.5751 -0.3773 -2.1906
  120SOPE   C2712701  -0.261   1.676   5.642 -0.3248  1.1490  0.0820
  120SOPE   H7R12702  -0.368   1.682   5.670 -1.5328 -0.1412 -3.7633
  120SOPE   H7S12703  -0.219   1.764   5.589 -2.0871  1.4573 -0.8805
  120SOPE   C2812704  -0.253   1.560   5.543  0.4618 -0.6966  0.6951
  120SOPE   H8R12705  -0.275   1.470   5.603  2.2493 -0.5134  1.6827
  120SOPE   H8S12706  -0.343   1.580   5.481  0.0199 -0.3383  1.4446
  120SOPE   C2912707  -0.121   1.541   5.475  0.0104  0.3700  0.5774
  120SOPE   H9112708  -0.038   1.518   5.544  0.7043  2.8734  0.6754
  120SOPE  C21012709  -0.093   1.559   5.337  0.0456  0.4197 -0.6422
  120SOPE  H10112710   0.008   1.537   5.298 -0.2248  1.5283 -2.0423
  120SOPE  C21112711  -0.206   1.596   5.239  0.3890 -0.6016 -0.4421
  120SOPE  H11R12712  -0.179   1.701   5.215 -0.6792 -0.5952 -1.7476
  120SOPE  H11S12713  -0.310   1.586   5.277  0.1560 -0.0387 -0.9217
  120SOPE  C21212714  -0.200   1.521   5.109  0.3627  0.3056  0.1333
  120SOPE  H12R12715  -0.184   1.412   5.125 -0.0814  0.3698  1.0486
  120SOPE  H12S12716  -0.102   1.550   5.065 -0.1232  0.6378 -0.7501
  120SOPE  C21312717  -0.317   1.547   5.012  0.1066  0.0693  0.1481
  120SOPE  H13R12718  -0.323   1.658   5.012 -1.9178  0.0094 -0.8955
  120SOPE  H13S12719  -0.417   1.505   5.035  0.3154 -0.2953  0.3867
  120SOPE  C21412720  -0.284   1.497   4.874  0.1765  0.2300 -1.3005
  120SOPE  H14R12721  -0.284   1.386   4.879 -0.1374  0.1109 -3.0797
  120SOPE  H14S12722  -0.177   1.520   4.861  1.5358 -0.9844  4.7226
  120SOPE  C21512723  -0.387   1.539   4.768  0.1982  0.2103  0.3396
  120SOPE  H15R12724  -0.383   1.650   4.770  2.5214  0.1671  0.1563
  120SOPE  H15S12725  -0.495   1.520   4.790 -0.0134  1.3028  0.2855
  120SOPE  C21612726  -0.348   1.498   4.624  0.7567  1.2276 -0.6349
  120SOPE  H16R12727  -0.242   1.466   4.616  1.4780  3.7239 -2.7612
  120SOPE  H16S12728  -0.374   1.578   4.550 -2.2608  0.7994 -0.1575
  120SOPE  C21712729  -0.439   1.371   4.594 -0.4129 -0.2449 -0.4276
  120SOPE  H17R12730  -0.544   1.384   4.628 -0.5580  0.0236 -0.9721
  120SOPE  H17S12731  -0.381   1.303   4.660  0.7817  1.9315  0.9277
  120SOPE  C21812732  -0.433   1.312   4.452 -0.4293  0.3645 -0.4174
  120SOPE  H18R12733  -0.329   1.283   4.428 -0.5649  0.0600 -0.6562
  120SOPE  H18S12734  -0.461   1.401   4.393 -0.3423  0.8452  0.2573
  120SOPE  H18T12735  -0.505   1.227   4.442 -0.2458  0.0321  0.8603
  120SOPE   C3312736  -0.132   1.202   5.807  0.0140  0.2542 -0.1340
  120SOPE   H3X12737  -0.057   1.226   5.729  0.4376  0.6909  0.4032
  120SOPE   H3Y12738  -0.143   1.305   5.847  0.3140  0.5248 -0.7359
  120SOPE   C3412739  -0.263   1.150   5.743 -0.3132 -0.4771  0.0710
  120SOPE   H4X12740  -0.346   1.200   5.797 -0.2037 -1.1392  0.8799
  120SOPE   H4Y12741  -0.264   1.039   5.752 -0.9795 -0.4031  1.1186
  120SOPE   C3512742  -0.266   1.169   5.589 -0.0576  0.2023  0.6686
  120SOPE   H5X12743  -0.193   1.100   5.541 -0.3741 -0.1773  0.7217
  120SOPE   H5Y12744  -0.233   1.267   5.549 -2.2862  0.3254 -1.0695
  120SOPE   C3612745  -0.419   1.154   5.535 -0.0316  0.5155 -0.6822
  120SOPE   H6X12746  -0.490   1.215   5.594 -1.1586  1.0022 -2.4563
  120SOPE   H6Y12747  -0.451   1.049   5.550 -1.0172  1.1836  2.5904
  120SOPE   C3712748  -0.436   1.199   5.383  0.1743 -0.2318 -0.0200
  120SOPE   H7X12749  -0.394   1.298   5.356  1.3308 -1.4211 -3.0326
  120SOPE   H7Y12750  -0.544   1.215   5.364  0.1840 -0.3884 -0.2009
  120SOPE   C3812751  -0.371   1.095   5.282 -0.1162 -0.5625 -0.1826
  120SOPE   H8X12752  -0.427   0.999   5.284 -1.6814  0.3217  0.5121
  120SOPE   H8Y12753  -0.266   1.073   5.310  0.5823  3.1324  0.6140
  120SOPE   C3912754  -0.380   1.140   5.137  0.1402 -0.1118  0.1764
  120SOPE   H9X12755  -0.318   1.228   5.108  1.0312 -1.2819 -1.6553
  120SOPE   H9Y12756  -0.483   1.176   5.120  0.3057  1.5573  2.2388
  120SOPE  C31012757  -0.349   1.032   5.028 -0.3768 -0.3425 -0.1642
  120SOPE  H10X12758  -0.405   0.949   5.076  1.2428 -1.5068 -0.2328
  120SOPE  H10Y12759  -0.244   0.998   5.025 -0.5380 -1.1064  1.7222
  120SOPE  C31112760  -0.392   1.074   4.879 -0.0667 -0.1725 -0.0562
  120SOPE  H11X12761  -0.339   1.170   4.858  0.5410 -0.6794 -0.8723
  120SOPE  H11Y12762  -0.489   1.128   4.878  0.7353  1.3509 -0.4568
  120SOPE  C31212763  -0.360   0.975   4.764  0.4717 -0.6684 -1.0649
  120SOPE  H12X12764  -0.250   0.960   4.771  0.6113  1.0633  2.0010
  120SOPE  H12Y12765  -0.399   1.008   4.665 -1.5426 -1.8815 -0.7288
  120SOPE  C31312766  -0.426   0.838   4.795  0.3618 -0.6425 -0.1567
  120SOPE  H13X12767  -0.532   0.869   4.796  0.3967 -0.4797  1.0973
  120SOPE  H13Y12768  -0.399   0.815   4.901  2.3043 -1.0050 -0.6890
  120SOPE  C31412769  -0.389   0.738   4.683 -0.1330 -0.0152  0.4472
  120SOPE  H14X12770  -0.280   0.716   4.679  0.1377  1.3806 -2.7536
  120SOPE  H14Y12771  -0.397   0.787   4.584  1.3391 -0.2093  0.2131
  120SOPE  C31512772  -0.480   0.610   4.684 -0.0880 -0.0312 -0.0533
  120SOPE  H15X12773  -0.460   0.544   4.597 -2.3073  0.2322 -0.8162
  120SOPE  H15Y12774  -0.583   0.647   4.667  0.3866  2.0445  1.2072
  120SOPE  C31612775  -0.477   0.536   4.816  1.3024  0.7163 -0.1652
  120SOPE  H16X12776  -0.563   0.466   4.807 -0.3294  2.7191 -1.1879
  120SOPE  H16Y12777  -0.495   0.602   4.903 -2.8018  1.7394 -1.5537
  120SOPE  C31712778  -0.351   0.456   4.829 -0.4750  0.4671  0.4101
  120SOPE  H17X12779  -0.258   0.517   4.823  0.9900 -1.6832  0.3437
  120SOPE  H17Y12780  -0.349   0.390   4.741 -1.1068 -0.4775  1.0922
  120SOPE  C31812781  -0.345   0.372   4.956 -0.8635  0.0375  0.8596
  120SOPE  H18X12782  -0.368   0.437   5.043 -0.3634 -0.7888  1.6289
  120SOPE  H18Y12783  -0.244   0.326   4.968 -0.8096  0.0205  0.3431
  120SOPE  H18Z12784  -0.427   0.297   4.949 -1.1421  0.4919 -1.0271
  121SOPE     N12785   4.396   0.888   6.710 -0.3798 -0.5939  0.0529
  121SOPE   HN112786   4.430   0.796   6.743  1.2890  0.0213  0.1705
  121SOPE   HN212787   4.359   0.883   6.612 -0.0826  2.7155 -0.3342
  121SOPE   HN312788   4.472   0.958   6.720  0.9530 -2.0415  0.4953
  121SOPE   C1212789   4.295   0.952   6.801 -1.1252 -0.3951  1.0011
  121SOPE  H12A12790   4.299   1.063   6.787  1.2480 -0.4046  1.1132
  121SOPE  H12B12791   4.317   0.930   6.908 -1.4507 -0.4478  1.0556
  121SOPE   C1112792   4.156   0.905   6.761  0.3913 -0.0499  0.0016
  121SOPE  H11A12793   4.135   0.934   6.656 -2.3837 -1.9599 -0.0674
  121SOPE  H11B12794   4.083   0.956   6.827 -1.5020 -1.4154 -0.9439
  121SOPE     P12795   4.033   0.705   6.877  0.0229  0.1915  0.2879
  121SOPE   O1312796   4.046   0.763   7.013 -0.0065 -0.2491 -0.0549
  121SOPE   O1412797   4.036   0.558   6.867 -0.5224 -0.3020  0.1212
  121SOPE   O1212798   4.145   0.765   6.789  0.3721  0.6398  0.2648
  121SOPE   O1112799   3.907   0.761   6.803  0.6491 -0.1641  0.7811
  121SOPE    C112800   3.772   0.729   6.836 -0.5226 -0.1958  0.2732
  121SOPE    HA12801   3.710   0.820   6.820  1.3664  1.0853 -0.0538
  121SOPE    HB12802   3.759   0.703   6.943 -0.6860  2.5069  0.9768
  121SOPE    C212803   3.708   0.631   6.745  0.3956 -0.3927 -0.2419
  121SOPE    HS12804   3.756   0.534   6.771  1.2960 -0.3197 -1.5093
  121SOPE   O2112805   3.733   0.669   6.606 -0.9429 -0.1508 -0.6620
  121SOPE   C2112806   3.707   0.567   6.523 -0.3053  0.4885  0.3756
  121SOPE   O2212807   3.686   0.452   6.550 -0.0369  0.0202 -0.3347
  121SOPE   C2212808   3.716   0.620   6.380  0.1508 -0.8775 -1.0511
  121SOPE   H2R12809   3.816   0.669   6.380  0.0342 -0.5060  1.7109
  121SOPE   H2S12810   3.635   0.695   6.371  1.0100  0.1308 -0.6867
  121SOPE    C312811   3.555   0.622   6.764  0.9439  0.1234 -0.8749
  121SOPE    HX12812   3.541   0.615   6.874  1.5725 -0.5431 -0.8281
  121SOPE    HY12813   3.509   0.535   6.710  1.4901 -1.1136  0.5849
  121SOPE   O3112814   3.495   0.750   6.726 -0.2653  0.1467  0.0689
  121SOPE   C3112815   3.387   0.750   6.638 -0.0471  0.4514 -0.2783
  121SOPE   O3212816   3.342   0.647   6.590  0.1271 -0.7500 -0.5306
  121SOPE   C3212817   3.336   0.894   6.622 -0.1372  0.2292 -0.9120
  121SOPE   H2X12818   3.363   0.942   6.719 -3.2451  0.5847 -0.0978
  121SOPE   H2Y12819   3.226   0.903   6.613 -0.2274 -0.9283 -1.0491
  121SOPE   C2312820   3.707   0.524   6.261 -0.2305  0.1143 -0.2569
  121SOPE   H3R12821   3.665   0.426   6.295 -3.1871  1.7028  1.0531
  121SOPE   H3S12822   3.799   0.502   6.202  0.5189  1.0526  0.5235
  121SOPE   C2412823   3.605   0.563   6.155  0.0674 -0.5017  0.2314
  121SOPE   H4R12824   3.508   0.586   6.205 -0.6551 -0.7466 -1.0069
  121SOPE   H4S12825   3.634   0.662   6.113  0.0367 -0.3418  0.5817
  121SOPE   C2512826   3.593   0.468   6.039  0.3090  0.3676  0.8531
  121SOPE   H5R12827   3.682   0.401   6.034  2.5760  3.2629 -0.8006
  121SOPE   H5S12828   3.511   0.397   6.064  1.4289 -0.5553  2.0374
  121SOPE   C2612829   3.576   0.535   5.898  0.2715 -0.4004 -0.4265
  121SOPE   H6R12830   3.565   0.451   5.826 -1.2817 -0.2240 -0.4303
  121SOPE   H6S12831   3.484   0.595   5.880 -0.3364 -1.1682  0.0751
  121SOPE   C2712832   3.704   0.613   5.855  0.9377  0.4380 -1.0839
  121SOPE   H7R12833   3.698   0.707   5.913  2.2884  1.0296 -1.8619
  121SOPE   H7S12834   3.795   0.554   5.880  1.6280  2.1680  0.7271
  121SOPE   C2812835   3.714   0.672   5.717  0.0474  0.1813 -0.0552
  121SOPE   H8R12836   3.623   0.726   5.683  2.0952  4.2510  0.2859
  121SOPE   H8S12837   3.793   0.750   5.718 -1.3019  1.6319 -0.9773
  121SOPE   C2912838   3.762   0.570   5.616 -0.2105 -0.3883 -0.4509
  121SOPE   H9112839   3.832   0.499   5.662 -0.5198 -0.6052 -0.3136
  121SOPE  C21012840   3.724   0.551   5.486  0.4248 -0.2561 -0.1854
  121SOPE  H10112841   3.787   0.474   5.437 -0.7924 -1.5698  0.2386
  121SOPE  C21112842   3.623   0.630   5.411  0.1235  0.2546  0.0848
  121SOPE  H11R12843   3.621   0.735   5.447  0.9377 -0.3548  2.0136
  121SOPE  H11S12844   3.525   0.586   5.438  0.2672 -0.1460 -0.0529
  121SOPE  C21212845   3.636   0.621   5.258  0.0195 -0.9523 -0.2613
  121SOPE  H12R12846   3.541   0.659   5.215  1.0360  0.8663 -0.9848
  121SOPE  H12S12847   3.648   0.517   5.222  2.7480  0.1934 -3.1407
  121SOPE  C21312848   3.753   0.693   5.197 -0.5541 -0.0374  0.2426
  121SOPE  H13R12849   3.848   0.661   5.243 -0.2538  0.0731 -0.2880
  121SOPE  H13S12850   3.744   0.803   5.216 -2.2042  0.0849 -0.9574
  121SOPE  C21412851   3.782   0.678   5.043 -0.2797 -0.0957  1.3188
  121SOPE  H14R12852   3.810   0.573   5.020 -1.1789  0.3947 -2.7218
  121SOPE  H14S12853   3.867   0.740   5.008  0.1072 -0.6999  1.1675
  121SOPE  C21512854   3.666   0.730   4.966 -0.1874  0.5756 -0.1189
  121SOPE  H15R12855   3.650   0.837   4.991  2.1440  0.5639  1.6917
  121SOPE  H15S12856   3.574   0.675   4.994 -0.0842  0.8042  0.6897
  121SOPE  C21612857   3.679   0.708   4.813 -0.2338 -0.3003 -0.3806
  121SOPE  H16R12858   3.740   0.616   4.807 -0.7099 -0.5834 -0.9294
  121SOPE  H16S12859   3.729   0.799   4.775 -1.6309  0.6875  0.0298
  121SOPE  C21712860   3.542   0.688   4.744  0.5046  0.5941  0.1865
  121SOPE  H17R12861   3.469   0.758   4.790 -0.0098  0.5073 -0.4801
  121SOPE  H17S12862   3.512   0.583   4.764 -1.4623  1.1812  0.4666
  121SOPE  C21812863   3.536   0.727   4.593  0.2051 -0.2446 -0.5981
  121SOPE  H18R12864   3.564   0.832   4.573 -0.8493  0.2030  0.1980
  121SOPE  H18S12865   3.428   0.715   4.568 -0.1367 -0.1674  0.7262
  121SOPE  H18T12866   3.600   0.669   4.524 -0.7968  0.8978 -2.5728
  121SOPE   C3312867   3.389   0.960   6.492 -0.4451 -0.4540 -0.3543
  121SOPE   H3X12868   3.500   0.966   6.495 -0.5069  1.5133 -0.2694
  121SOPE   H3Y12869   3.368   1.069   6.503  0.8635 -0.2553  0.4979
  121SOPE   C3412870   3.343   0.894   6.363 -0.3730 -0.2250 -0.7309
  121SOPE   H4X12871   3.237   0.921   6.347 -0.1009  0.9960 -0.6219
  121SOPE   H4Y12872   3.366   0.786   6.356  0.3402 -0.0448 -1.4040
  121SOPE   C3512873   3.416   0.952   6.242  0.6622  0.1511  0.6440
  121SOPE   H5X12874   3.524   0.969   6.262  0.2213  1.6347  2.0709
  121SOPE   H5Y12875   3.378   1.052   6.211  2.7422 -0.0397 -3.1131
  121SOPE   C3612876   3.388   0.868   6.118 -0.0440  0.8860  0.4352
  121SOPE   H6X12877   3.278   0.866   6.099  0.0810  1.4314 -0.3884
  121SOPE   H6Y12878   3.418   0.765   6.144 -0.2461  0.6939 -0.0861
  121SOPE   C3712879   3.453   0.908   5.988  0.3725  1.0487  0.7503
  121SOPE   H7X12880   3.420   0.829   5.917 -0.1888  0.2892  1.8388
  121SOPE   H7Y12881   3.562   0.895   6.004 -0.0133 -0.4855  2.4458
  121SOPE   C3812882   3.399   1.039   5.930  0.5074  0.1270  0.7429
  121SOPE   H8X12883   3.392   1.113   6.013  2.1050  3.1316 -1.5876
  121SOPE   H8Y12884   3.294   1.016   5.901  0.1190  0.8240  1.5717
  121SOPE   C3912885   3.469   1.089   5.802 -0.6125  0.2020 -0.3542
  121SOPE   H9X12886   3.577   1.064   5.810 -0.5773  0.8060  1.6236
  121SOPE   H9Y12887   3.453   1.198   5.792 -3.1245  0.0350  0.9700
  121SOPE  C31012888   3.421   1.017   5.675  0.1029  0.3424 -0.0931
  121SOPE  H10X12889   3.314   1.044   5.661  0.2930  2.1940  1.5570
  121SOPE  H10Y12890   3.420   0.907   5.682 -1.8913  0.4138  2.0644
  121SOPE  C31112891   3.509   1.052   5.556  0.5958 -0.3482  0.4995
  121SOPE  H11X12892   3.617   1.027   5.562  1.1500  0.7534 -2.9567
  121SOPE  H11Y12893   3.490   1.159   5.534 -2.8682 -1.1113 -0.8434
  121SOPE  C31212894   3.443   0.997   5.428 -0.1296 -0.0969  0.2713
  121SOPE  H12X12895   3.334   0.999   5.444 -0.6485  1.3262 -2.8262
  121SOPE  H12Y12896   3.481   0.894   5.411  0.3775  0.5944 -4.0406
  121SOPE  C31312897   3.491   1.074   5.299 -0.5534 -0.1712  0.1968
  121SOPE  H13X12898   3.600   1.088   5.315 -0.1593 -1.2627 -1.2862
  121SOPE  H13Y12899   3.437   1.171   5.301  1.5874  1.0726  1.1804
  121SOPE  C31412900   3.474   1.008   5.160 -0.0364  0.4854  0.2799
  121SOPE  H14X12901   3.382   0.946   5.162  1.7672 -2.5490 -1.7284
  121SOPE  H14Y12902   3.555   0.934   5.142 -0.0462  0.4768  0.2711
  121SOPE  C31512903   3.467   1.115   5.058  0.2409 -1.0174  0.2940
  121SOPE  H15X12904   3.553   1.182   5.077  0.0583 -0.5955 -0.3324
  121SOPE  H15Y12905   3.374   1.172   5.077 -0.1732 -2.4126  2.9363
  121SOPE  C31612906   3.459   1.046   4.925  1.1109  0.1645  0.6015
  121SOPE  H16X12907   3.379   0.970   4.935  0.0224  1.2966  0.7838
  121SOPE  H16Y12908   3.557   0.997   4.906  1.7496  1.2371  1.0189
  121SOPE  C31712909   3.428   1.132   4.797  0.2022 -0.4410 -0.0102
  121SOPE  H17X12910   3.332   1.187   4.804  0.5875  0.1627  0.7331
  121SOPE  H17Y12911   3.423   1.058   4.714 -1.9252  0.5853 -0.8543
  121SOPE  C31812912   3.530   1.240   4.776 -0.0689  0.4372 -0.3902
  121SOPE  H18X12913   3.634   1.200   4.782  0.5464  2.0057 -0.1923
  121SOPE  H18Y12914   3.525   1.320   4.854  0.9168  0.6975 -0.5825
  121SOPE  H18Z12915   3.511   1.284   4.676 -0.3281  0.0498 -0.5119
  122SOPE     N12916   2.626   1.153   7.093  0.5974 -0.1913 -0.1950
  122SOPE   HN112917   2.573   1.070   7.060 -2.5678  1.3658  0.5885
  122SOPE   HN212918   2.703   1.160   7.023 -0.0296  2.1358 -0.7307
  122SOPE   HN312919   2.654   1.136   7.192 -3.1183 -1.0182  0.8682
  122SOPE   C1212920   2.527   1.268   7.098 -0.2033 -0.0593  0.4484
  122SOPE  H12A12921   2.577   1.366   7.116 -0.6381  0.4189 -0.7981
  122SOPE  H12B12922   2.457   1.242   7.181  0.0517  0.7499  0.9244
  122SOPE   C1112923   2.455   1.290   6.959 -0.3614 -0.5335  0.0409
  122SOPE  H11A12924   2.533   1.305   6.882 -0.1713  0.8020  0.4798
  122SOPE  H11B12925   2.386   1.376   6.969  0.3030  0.0122 -0.0725
  122SOPE     P12926   2.315   1.165   6.786 -0.2602  0.3837  0.0043
  122SOPE   O1312927   2.218   1.279   6.779  0.6020 -0.1476  0.1857
  122SOPE   O1412928   2.267   1.028   6.761 -0.3588  0.4540 -0.5462
  122SOPE   O1212929   2.384   1.166   6.928 -0.3124  0.4688  0.3380
  122SOPE   O1112930   2.422   1.195   6.670  0.5018 -0.6789  0.4701
  122SOPE    C112931   2.532   1.104   6.653 -0.3949 -0.2195 -0.0089
  122SOPE    HA12932   2.563   1.058   6.749 -0.0877 -0.4728 -0.2267
  122SOPE    HB12933   2.620   1.162   6.616  2.1839 -2.1342  2.6259
  122SOPE    C212934   2.498   1.009   6.531  0.0765 -0.1772 -0.0464
  122SOPE    HS12935   2.420   0.930   6.541 -1.5856  1.1933 -1.4207
  122SOPE   O2112936   2.619   0.940   6.511 -0.3331 -0.3811  0.0309
  122SOPE   C2112937   2.660   0.853   6.609 -0.0540 -0.5217 -0.0602
  122SOPE   O2212938   2.585   0.813   6.701 -0.5198 -0.0694 -0.6852
  122SOPE   C2212939   2.812   0.828   6.600 -0.0614 -0.9803 -0.6926
  122SOPE   H2R12940   2.843   0.800   6.703 -0.8390  0.8809  0.0968
  122SOPE   H2S12941   2.859   0.927   6.581 -1.5249 -0.3754 -1.2994
  122SOPE    C312942   2.464   1.080   6.403  0.0257  0.2103 -0.2723
  122SOPE    HX12943   2.369   1.134   6.421  0.3890  1.5375 -2.0293
  122SOPE    HY12944   2.439   1.013   6.318 -1.1528 -1.5401  1.3868
  122SOPE   O3112945   2.572   1.169   6.362  0.1662 -0.8983 -0.2133
  122SOPE   C3112946   2.527   1.261   6.274  0.7728  0.4283 -0.4958
  122SOPE   O3212947   2.416   1.262   6.219 -0.2513  0.1947  0.4507
  122SOPE   C3212948   2.627   1.371   6.249 -0.6303 -0.6885  0.7739
  122SOPE   H2X12949   2.728   1.333   6.274  0.5176  1.3230 -0.5031
  122SOPE   H2Y12950   2.606   1.462   6.310  0.9893  1.3697 -1.5286
  122SOPE   C2312951   2.854   0.742   6.485 -0.0006  0.9943 -0.5560
  122SOPE   H3R12952   2.862   0.803   6.393  0.9290 -1.1670 -1.9846
  122SOPE   H3S12953   2.780   0.662   6.464 -0.9685  1.9492 -0.8647
  122SOPE   C2412954   2.994   0.680   6.491 -0.0477  0.1002  0.8034
  122SOPE   H4R12955   3.062   0.768   6.494 -0.4986  0.5388 -0.7833
  122SOPE   H4S12956   3.014   0.634   6.590  2.1494  0.8789  0.7899
  122SOPE   C2512957   3.019   0.576   6.384  0.0904  0.5552  0.5219
  122SOPE   H5R12958   3.127   0.551   6.377 -0.0194  0.1385  0.2689
  122SOPE   H5S12959   2.970   0.481   6.415 -0.3791  0.9564  1.0478
  122SOPE   C2612960   2.971   0.623   6.241 -1.1049 -0.0836 -0.0518
  122SOPE   H6R12961   2.860   0.625   6.246 -1.1027 -1.0945  1.1464
  122SOPE   H6S12962   3.024   0.720   6.235 -0.3913 -0.5835 -2.6728
  122SOPE   C2712963   3.019   0.531   6.134 -0.7460  0.3502  0.0465
  122SOPE   H7R12964   3.130   0.521   6.138 -0.9924 -3.8000  1.3892
  122SOPE   H7S12965   2.975   0.430   6.147  2.7635 -1.2440  0.7544
  122SOPE   C2812966   2.977   0.582   5.995  0.6447  0.1336 -0.0101
  122SOPE   H8R12967   3.009   0.500   5.927  1.9831  1.6879 -1.3422
  122SOPE   H8S12968   2.866   0.592   5.999  0.6777  0.3112  0.7539
  122SOPE   C2912969   3.042   0.711   5.948 -0.3954  0.6504  0.2189
  122SOPE   H9112970   3.019   0.792   6.019 -2.3783  0.6620 -0.3812
  122SOPE  C21012971   3.125   0.731   5.843  0.2253  0.6532  0.4855
  122SOPE  H10112972   3.161   0.835   5.831  1.6999  0.3063  1.5712
  122SOPE  C21112973   3.167   0.633   5.735 -0.0107 -0.1373 -0.2067
  122SOPE  H11R12974   3.148   0.528   5.764 -2.4896  0.5170  0.8471
  122SOPE  H11S12975   3.274   0.656   5.715 -0.6016  0.9131 -2.6331
  122SOPE  C21212976   3.101   0.654   5.595 -0.1932  0.8940  1.2835
  122SOPE  H12R12977   2.992   0.660   5.616 -0.6307 -0.0076 -0.5396
  122SOPE  H12S12978   3.095   0.559   5.539 -0.7897  1.2364  0.7459
  122SOPE  C21312979   3.162   0.760   5.512  0.0939  0.1802  0.0542
  122SOPE  H13R12980   3.273   0.758   5.514  0.1004  0.2941  2.3700
  122SOPE  H13S12981   3.148   0.849   5.577  1.7334 -0.2525  1.0521
  122SOPE  C21412982   3.113   0.776   5.367  0.2462 -0.1942 -0.2973
  122SOPE  H14R12983   3.153   0.870   5.323  1.2904 -0.7453 -0.5645
  122SOPE  H14S12984   3.002   0.779   5.357  0.1802 -0.7160  0.2286
  122SOPE  C21512985   3.169   0.670   5.271 -0.9465  0.1931 -0.2552
  122SOPE  H15R12986   3.131   0.569   5.298  1.0478 -0.3450  0.7824
  122SOPE  H15S12987   3.278   0.658   5.290 -0.9469  0.1077 -0.3029
  122SOPE  C21612988   3.137   0.695   5.127 -0.0984  0.1714 -0.6255
  122SOPE  H16R12989   3.171   0.794   5.090  4.2718 -1.0362 -0.3863
  122SOPE  H16S12990   3.027   0.692   5.115 -0.2415  1.6197  0.1157
  122SOPE  C21712991   3.201   0.583   5.050 -0.8281 -0.6116  0.4172
  122SOPE  H17R12992   3.152   0.485   5.065 -2.2270 -0.3224 -1.7539
  122SOPE  H17S12993   3.309   0.574   5.072 -0.6414  1.4943  0.5504
  122SOPE  C21812994   3.201   0.609   4.905 -0.4727 -0.0207  0.2808
  122SOPE  H18R12995   3.253   0.532   4.845  2.7383  1.9765  0.2669
  122SOPE  H18S12996   3.253   0.704   4.880 -1.2756  0.4975  0.5148
  122SOPE  H18T12997   3.098   0.617   4.863 -0.3873 -0.8742 -0.0983
  122SOPE   C3312998   2.621   1.420   6.102 -0.0553  0.2602 -0.5817
  122SOPE   H3X12999   2.518   1.455   6.079 -0.1796 -0.3616 -0.9997
  122SOPE   H3Y13000   2.649   1.339   6.032  3.4323 -2.2475  3.2299
  122SOPE   C3413001   2.727   1.534   6.072 -0.0866  0.1885 -0.2543
  122SOPE   H4X13002   2.827   1.492   6.092 -0.1844  0.8005  1.7242
  122SOPE   H4Y13003   2.708   1.615   6.146  2.0709 -1.5451  2.3729
  122SOPE   C3513004   2.738   1.577   5.926  0.0285 -0.2235  0.2174
  122SOPE   H5X13005   2.836   1.630   5.922 -0.2548  0.4225  1.3958
  122SOPE   H5Y13006   2.652   1.644   5.904 -1.9206 -2.1437  1.6265
  122SOPE   C3613007   2.732   1.463   5.819 -1.0374  0.2359  0.9733
  122SOPE   H6X13008   2.644   1.397   5.827  2.1215 -4.2948  2.1046
  122SOPE   H6Y13009   2.811   1.392   5.851 -1.5065  0.0326  1.7105
  122SOPE   C3713010   2.752   1.520   5.673  0.0474 -0.0320 -0.0866
  122SOPE   H7X13011   2.851   1.570   5.670 -0.4306  0.9599  0.4261
  122SOPE   H7Y13012   2.681   1.604   5.657 -2.1694 -1.5494  1.2353
  122SOPE   C3813013   2.747   1.424   5.554 -0.4547 -0.0507  0.0472
  122SOPE   H8X13014   2.650   1.372   5.558 -0.3376 -0.2155  1.2057
  122SOPE   H8Y13015   2.826   1.346   5.561  4.6614  4.5400  1.1844
  122SOPE   C3913016   2.767   1.500   5.422  0.3538  0.8209 -0.0628
  122SOPE   H9X13017   2.869   1.541   5.433  1.2907 -1.4628  0.3881
  122SOPE   H9Y13018   2.688   1.577   5.419  0.8792  1.5800  2.9698
  122SOPE  C31013019   2.750   1.407   5.300  0.7109 -0.6915 -0.0987
  122SOPE  H10X13020   2.656   1.350   5.314  1.0184 -0.8934  1.2655
  122SOPE  H10Y13021   2.833   1.333   5.306  0.4536 -0.8626  2.1745
  122SOPE  C31113022   2.756   1.472   5.157 -0.5376 -0.1040  0.6066
  122SOPE  H11X13023   2.841   1.544   5.149 -0.6924 -0.0719 -0.9002
  122SOPE  H11Y13024   2.673   1.545   5.144  0.6696  1.3535  0.7439
  122SOPE  C31213025   2.756   1.367   5.043  0.0070  0.6110 -0.9815
  122SOPE  H12X13026   2.657   1.318   5.055 -0.6333  2.0398 -0.0755
  122SOPE  H12Y13027   2.838   1.294   5.054 -0.6102  0.0837  0.2816
  122SOPE  C31313028   2.772   1.435   4.907 -0.1574 -0.2559  0.2382
  122SOPE  H13X13029   2.872   1.480   4.886 -0.4207  1.0001  1.4910
  122SOPE  H13Y13030   2.707   1.522   4.883  3.6426  2.0614 -2.8305
  122SOPE  C31413031   2.738   1.329   4.796  0.6598  0.4460 -0.2834
  122SOPE  H14X13032   2.641   1.289   4.832  1.3754 -0.0411  1.1931
  122SOPE  H14Y13033   2.809   1.244   4.811 -0.0204  0.3594  3.4528
  122SOPE  C31513034   2.740   1.397   4.662 -0.7696  0.2834 -0.0349
  122SOPE  H15X13035   2.829   1.458   4.634 -2.2234  2.5250 -0.0591
  122SOPE  H15Y13036   2.659   1.473   4.653 -2.0777 -1.0387  0.2929
  122SOPE  C31613037   2.738   1.299   4.545 -0.2780  1.0987 -0.0948
  122SOPE  H16X13038   2.817   1.223   4.565 -0.2010  1.4801  1.1282
  122SOPE  H16Y13039   2.776   1.351   4.454  1.8226 -0.3409 -0.1308
  122SOPE  C31713040   2.604   1.214   4.545 -0.5873 -0.5451 -0.0346
  122SOPE  H17X13041   2.523   1.289   4.539  1.2639  1.4805 -0.8592
  122SOPE  H17Y13042   2.593   1.163   4.644 -0.3586  1.9641  1.3796
  122SOPE  C31813043   2.594   1.127   4.425 -0.0487 -0.2540  0.4517
  122SOPE  H18X13044   2.669   1.044   4.427 -1.1403 -1.2868 -0.0011
  122SOPE  H18Y13045   2.601   1.173   4.325  1.6432  3.2972  2.0351
  122SOPE  H18Z13046   2.500   1.070   4.445 -0.2680  0.0422  0.2626
  123SOPE     N13047   1.148   3.428   2.449 -0.3864  0.2502 -0.0675
  123SOPE   HN113048   1.162   3.336   2.402  3.1801  1.3846 -1.5615
  123SOPE   HN213049   1.045   3.440   2.459 -0.6239 -0.6341 -1.2211
  123SOPE   HN313050   1.185   3.508   2.394 -1.8408  0.3216 -1.0118
  123SOPE   C1213051   1.197   3.422   2.596  0.8130  0.3603  0.8245
  123SOPE  H12A13052   1.305   3.400   2.584  1.2345  2.0577  1.2647
  123SOPE  H12B13053   1.140   3.347   2.654 -1.7576  1.9982  0.5928
  123SOPE   C1113054   1.185   3.559   2.663  0.8828  0.1079 -0.0499
  123SOPE  H11A13055   1.202   3.558   2.773  0.1026 -0.8381  0.0766
  123SOPE  H11B13056   1.083   3.603   2.657  0.6669 -0.2595  0.7430
  123SOPE     P13057   1.244   3.774   2.511 -0.6174 -0.0170 -0.4198
  123SOPE   O1313058   1.176   3.711   2.395 -0.5586 -0.0138 -0.5194
  123SOPE   O1413059   1.365   3.856   2.472 -0.2751  0.2179 -0.5085
  123SOPE   O1213060   1.283   3.648   2.609 -0.1207  0.4009  0.1998
  123SOPE   O1113061   1.144   3.870   2.593  0.3718  0.2144  0.3635
  123SOPE    C113062   1.153   3.877   2.736 -0.5246 -0.4671 -0.1506
  123SOPE    HA13063   1.218   3.800   2.782 -1.3386 -0.1959  1.5240
  123SOPE    HB13064   1.049   3.857   2.770  0.0977 -1.0808  1.4829
  123SOPE    C213065   1.225   4.008   2.777 -0.4545  0.2433 -0.8832
  123SOPE    HS13066   1.186   4.089   2.712  1.4028  0.8636 -1.2696
  123SOPE   O2113067   1.368   3.990   2.751 -0.2473  0.1321 -0.1199
  123SOPE   C2113068   1.435   4.097   2.732  0.3066 -0.2033 -0.1646
  123SOPE   O2213069   1.389   4.210   2.736 -0.1011  0.2552 -0.0668
  123SOPE   C2213070   1.583   4.061   2.687  0.1588 -0.7522 -0.6857
  123SOPE   H2R13071   1.620   4.145   2.623 -1.3672  0.0334 -0.5938
  123SOPE   H2S13072   1.576   3.964   2.633  0.6917 -1.6915  0.8916
  123SOPE    C313073   1.203   4.046   2.931  0.6719 -0.1101  0.2058
  123SOPE    HX13074   1.250   4.145   2.949 -1.2189  1.0674 -0.9705
  123SOPE    HY13075   1.248   3.974   3.003 -0.6246 -0.5599  0.6084
  123SOPE   O3113076   1.058   4.060   2.954 -0.0352  0.4823  0.3762
  123SOPE   C3113077   1.008   4.178   2.927  0.1006 -0.1502 -1.0415
  123SOPE   O3213078   1.075   4.278   2.896  0.4246 -0.0103 -1.0015
  123SOPE   C3213079   0.854   4.171   2.929 -0.1660  0.0931 -0.3596
  123SOPE   H2X13080   0.820   4.110   2.843 -1.9228 -0.8613  0.9636
  123SOPE   H2Y13081   0.816   4.265   2.884 -0.3888 -0.0239 -0.4115
  123SOPE   C2313082   1.682   4.039   2.804 -0.2066 -0.4470  0.0232
  123SOPE   H3R13083   1.651   3.984   2.895  1.2377  2.7067  2.6214
  123SOPE   H3S13084   1.714   4.142   2.830 -0.2089 -0.8457  1.7448
  123SOPE   C2413085   1.821   3.983   2.758 -0.4071 -0.5514 -0.1788
  123SOPE   H4R13086   1.827   3.874   2.738  0.0375 -0.6304  0.3701
  123SOPE   H4S13087   1.854   4.037   2.666  2.3706  1.7370  1.9683
  123SOPE   C2513088   1.921   4.005   2.865 -0.3267 -0.2929  0.4058
  123SOPE   H5R13089   2.014   3.956   2.829 -0.1824 -0.3846  0.8953
  123SOPE   H5S13090   1.938   4.115   2.874 -0.6984 -0.3659  2.3153
  123SOPE   C2613091   1.891   3.952   3.012  0.3123 -0.1548 -0.1238
  123SOPE   H6R13092   1.797   3.995   3.051 -1.2500 -2.3484 -1.2067
  123SOPE   H6S13093   1.870   3.844   2.993  0.4268 -0.5568  1.8308
  123SOPE   C2713094   2.015   3.967   3.109 -0.2133  0.1888 -0.4163
  123SOPE   H7R13095   2.110   3.971   3.052 -0.7207 -1.6196 -1.4630
  123SOPE   H7S13096   2.004   4.070   3.149  1.8080  0.2401  0.1096
  123SOPE   C2813097   2.020   3.879   3.230 -0.0426 -0.3150 -0.1475
  123SOPE   H8R13098   2.063   3.782   3.198 -0.4910 -0.0280 -1.6922
  123SOPE   H8S13099   2.086   3.932   3.303 -1.4869  0.2214  0.8052
  123SOPE   C2913100   1.883   3.859   3.293  0.0402  0.1684  0.0425
  123SOPE   H9113101   1.813   3.797   3.235  0.3797 -0.7235  0.5573
  123SOPE  C21013102   1.847   3.901   3.414 -0.2380 -0.1090  0.6345
  123SOPE  H10113103   1.744   3.880   3.447 -0.1674 -0.7777  0.4525
  123SOPE  C21113104   1.924   3.977   3.516  0.6114  0.7624  0.8242
  123SOPE  H11R13105   2.033   3.955   3.519  0.1470 -1.8216  0.7543
  123SOPE  H11S13106   1.885   3.961   3.619  2.5694  2.9014  1.9995
  123SOPE  C21213107   1.917   4.123   3.479  0.0099 -1.5512 -0.2329
  123SOPE  H12R13108   1.811   4.151   3.460  0.2565  0.9504  1.5592
  123SOPE  H12S13109   1.984   4.144   3.392  1.8363  0.3209  1.5158
  123SOPE  C21313110   1.949   4.214   3.600 -0.1729  0.1629  0.8193
  123SOPE  H13R13111   1.901   4.200   3.699 -0.2576  0.4174  0.8154
  123SOPE  H13S13112   1.915   4.318   3.582 -0.1081 -0.0465 -0.6141
  123SOPE  C21413113   2.097   4.233   3.631 -0.4091  0.3522  0.4333
  123SOPE  H14R13114   2.151   4.268   3.540 -1.3749 -2.6368 -1.4118
  123SOPE  H14S13115   2.138   4.135   3.664 -0.6344 -0.1575 -0.7652
  123SOPE  C21513116   2.110   4.323   3.758  0.1076  0.2174 -0.4073
  123SOPE  H15R13117   2.046   4.289   3.842 -1.6905  0.5937 -1.5794
  123SOPE  H15S13118   2.076   4.425   3.730  1.0757  1.0392  1.2668
  123SOPE  C21613119   2.257   4.341   3.809 -0.1070 -0.0337  0.0018
  123SOPE  H16R13120   2.311   4.389   3.724  2.7601 -1.3920  0.9225
  123SOPE  H16S13121   2.313   4.249   3.838 -1.4364 -1.6796 -2.3317
  123SOPE  C21713122   2.254   4.451   3.915 -0.2418  0.4439 -0.0547
  123SOPE  H17R13123   2.170   4.428   3.984  1.1516 -1.9455  0.9686
  123SOPE  H17S13124   2.231   4.534   3.844  0.2899 -0.2523 -1.0695
  123SOPE  C21813125   2.386   4.459   3.990  0.8419 -0.1834 -0.2060
  123SOPE  H18R13126   2.383   4.545   4.061  1.9093 -0.2443 -0.0676
  123SOPE  H18S13127   2.467   4.485   3.918  2.0402 -1.9910  0.4115
  123SOPE  H18T13128   2.430   4.369   4.038  1.2698  0.8489  1.4588
  123SOPE   C3313129   0.788   4.127   3.061  1.1084  0.1963 -0.3007
  123SOPE   H3X13130   0.844   4.040   3.102 -1.3063 -0.4605  1.9125
  123SOPE   H3Y13131   0.679   4.106   3.062  0.9082  1.2061  0.0667
  123SOPE   C3413132   0.808   4.233   3.170 -0.4023  0.1200  0.5534
  123SOPE   H4X13133   0.785   4.338   3.143  0.6261  0.0734 -0.6191
  123SOPE   H4Y13134   0.916   4.236   3.196 -0.1550  0.3957 -0.4645
  123SOPE   C3513135   0.739   4.205   3.304  0.3339 -0.2369  0.4124
  123SOPE   H5X13136   0.741   4.098   3.330  0.1959 -1.2844 -3.2731
  123SOPE   H5Y13137   0.630   4.226   3.292  0.3852 -0.4449 -0.5389
  123SOPE   C3613138   0.801   4.300   3.412  0.2536 -0.0459  0.1462
  123SOPE   H6X13139   0.798   4.407   3.383 -0.6620  0.1201  0.8116
  123SOPE   H6Y13140   0.908   4.276   3.426 -0.2283 -1.6013  1.4894
  123SOPE   C3713141   0.729   4.277   3.548  0.4364  0.8071  0.1081
  123SOPE   H7X13142   0.707   4.168   3.551  2.6110  0.3164 -0.5116
  123SOPE   H7Y13143   0.639   4.342   3.543  0.2616  0.4708 -1.6112
  123SOPE   C3813144   0.823   4.289   3.672  0.6040  0.3414  0.5140
  123SOPE   H8X13145   0.847   4.398   3.676  0.4827  0.3763  0.2754
  123SOPE   H8Y13146   0.917   4.230   3.663  0.9669  0.8951  0.6225
  123SOPE   C3913147   0.748   4.269   3.807 -0.5427 -0.1384  0.0539
  123SOPE   H9X13148   0.820   4.290   3.889 -0.1508  1.1068 -0.5808
  123SOPE   H9Y13149   0.722   4.161   3.811 -1.3188 -0.0662 -1.8291
  123SOPE  C31013150   0.620   4.349   3.830  0.0086 -0.2358  0.0912
  123SOPE  H10X13151   0.542   4.319   3.756  2.2878 -1.7593 -1.8367
  123SOPE  H10Y13152   0.645   4.457   3.823 -0.0378 -0.1956  0.4830
  123SOPE  C31113153   0.559   4.321   3.971 -0.6420 -0.2066  0.4416
  123SOPE  H11X13154   0.545   4.212   3.982  1.5246 -0.4636  1.1552
  123SOPE  H11Y13155   0.462   4.376   3.974 -0.4184  0.4386 -1.9279
  123SOPE  C31213156   0.656   4.364   4.087 -0.0126 -0.2544 -0.1096
  123SOPE  H12X13157   0.699   4.461   4.056 -2.5810  0.7555 -0.7757
  123SOPE  H12Y13158   0.745   4.300   4.101 -0.0314 -0.4885 -0.9853
  123SOPE  C31313159   0.595   4.366   4.227 -0.4140 -0.4325 -0.3385
  123SOPE  H13X13160   0.496   4.416   4.215 -0.6410 -0.8890 -0.3894
  123SOPE  H13Y13161   0.667   4.408   4.300 -0.5761 -2.6494  1.2025
  123SOPE  C31413162   0.577   4.217   4.268  0.3081 -0.1470 -0.1309
  123SOPE  H14X13163   0.673   4.161   4.272  1.1963  1.2900 -0.4325
  123SOPE  H14Y13164   0.515   4.171   4.188 -0.6641  0.5080  0.2284
  123SOPE  C31513165   0.502   4.199   4.397  0.0994  0.0312 -0.6189
  123SOPE  H15X13166   0.418   4.271   4.405 -0.0384 -0.0773 -1.0374
  123SOPE  H15Y13167   0.571   4.237   4.474 -0.9084 -0.4172  0.5304
  123SOPE  C31613168   0.473   4.055   4.435 -0.2223 -0.3107  0.4078
  123SOPE  H16X13169   0.464   4.039   4.545 -0.2929  0.6705  0.5496
  123SOPE  H16Y13170   0.559   3.992   4.406 -0.4201  0.1563 -1.2914
  123SOPE  C31713171   0.352   3.987   4.369 -0.2073 -0.1012  0.2963
  123SOPE  H17X13172   0.336   4.013   4.262  1.9531  0.0673 -0.0346
  123SOPE  H17Y13173   0.264   4.033   4.419  0.4196 -0.8656  2.1778
  123SOPE  C31813174   0.361   3.835   4.381 -0.4343  0.2835 -0.5367
  123SOPE  H18X13175   0.342   3.820   4.490 -1.1218  1.6962 -0.4256
  123SOPE  H18Y13176   0.463   3.800   4.357 -0.7580 -0.7946 -0.3867
  123SOPE  H18Z13177   0.279   3.786   4.324 -1.7024 -0.2103  1.5801
  124SOPE     N13178   3.468   6.576   2.328  0.3443  0.3330 -0.3729
  124SOPE   HN113179   3.434   6.620   2.416  2.0944  1.7265 -0.3436
  124SOPE   HN213180   3.472   6.655   2.260  0.5199 -0.0718 -0.8379
  124SOPE   HN313181   3.388   6.514   2.304  0.8464 -0.5919  0.2783
  124SOPE   C1213182   3.599   6.501   2.362  0.4916 -0.1171  0.5142
  124SOPE  H12A13183   3.631   6.465   2.262 -1.1116  2.9289 -1.2323
  124SOPE  H12B13184   3.565   6.411   2.419  0.1313  0.2179  0.8322
  124SOPE   C1113185   3.692   6.597   2.430  0.2314  0.5372 -0.0451
  124SOPE  H11A13186   3.793   6.552   2.437 -0.2984 -0.5283  1.3772
  124SOPE  H11B13187   3.667   6.613   2.537  0.4035 -1.2772  0.3031
  124SOPE     P13188   3.675   6.857   2.422 -0.1798 -0.3484 -0.4818
  124SOPE   O1313189   3.532   6.854   2.457  0.1808 -0.1625  0.1721
  124SOPE   O1413190   3.727   6.951   2.323 -0.0796 -0.4229 -0.4373
  124SOPE   O1213191   3.699   6.721   2.350 -0.1613  0.0973  0.4195
  124SOPE   O1113192   3.763   6.856   2.550 -0.1144 -0.1272 -0.2649
  124SOPE    C113193   3.899   6.823   2.552  0.4895  0.1821 -0.0724
  124SOPE    HA13194   3.936   6.808   2.448 -1.6381  1.3808 -1.0683
  124SOPE    HB13195   3.911   6.725   2.604  0.1819 -0.6492 -1.5170
  124SOPE    C213196   3.988   6.934   2.611  0.5194 -0.6340  0.6628
  124SOPE    HS13197   4.091   6.891   2.614  0.3777 -0.9678  0.8266
  124SOPE   O2113198   3.945   6.965   2.743 -0.0912 -0.9441 -0.2043
  124SOPE   C2113199   3.966   6.869   2.833  0.6364  0.4119  0.1103
  124SOPE   O2213200   4.023   6.764   2.808 -0.1046 -0.6389  0.0077
  124SOPE   C2213201   3.898   6.900   2.967 -0.3751  0.7209 -0.0837
  124SOPE   H2R13202   3.789   6.879   2.959  0.1561 -2.0378 -1.2586
  124SOPE   H2S13203   3.895   7.010   2.977 -2.4434  0.5542  2.2158
  124SOPE    C313204   3.980   7.067   2.524 -0.2175  0.2238  0.5091
  124SOPE    HX13205   3.877   7.109   2.524  0.3063  1.6160  2.2337
  124SOPE    HY13206   4.011   7.044   2.420 -0.5452  1.7046  0.0547
  124SOPE   O3113207   4.070   7.167   2.589 -0.6144  0.7668 -0.2686
  124SOPE   C3113208   4.164   7.224   2.515  0.0429  1.0151  0.1990
  124SOPE   O3213209   4.178   7.212   2.392  0.3275 -0.1118 -0.0136
  124SOPE   C3213210   4.240   7.333   2.595 -0.1702  0.6347 -0.0197
  124SOPE   H2X13211   4.169   7.413   2.624  0.6585  1.0200  1.0163
  124SOPE   H2Y13212   4.308   7.375   2.518  0.9976 -2.4272 -0.8400
  124SOPE   C2313213   3.978   6.844   3.083 -0.8254  0.0305 -0.4722
  124SOPE   H3R13214   4.078   6.892   3.092  0.0142 -1.6448 -0.5745
  124SOPE   H3S13215   3.989   6.734   3.070  1.0713 -0.1729  2.1227
  124SOPE   C2413216   3.899   6.870   3.211  0.0020 -0.2093  0.3079
  124SOPE   H4R13217   3.911   6.979   3.228  0.1433 -0.3393  1.0682
  124SOPE   H4S13218   3.790   6.848   3.209 -0.2343 -0.0282  4.1274
  124SOPE   C2513219   3.960   6.800   3.328 -0.7067  0.1149 -0.3110
  124SOPE   H5R13220   4.005   6.706   3.291  0.0689  1.1906 -2.2309
  124SOPE   H5S13221   4.035   6.873   3.364 -1.2136 -0.5393  2.3102
  124SOPE   C2613222   3.868   6.769   3.446  0.2660  0.7216  0.1991
  124SOPE   H6R13223   3.794   6.850   3.468 -1.1484 -0.5794  0.3933
  124SOPE   H6S13224   3.811   6.676   3.427 -0.6239  1.3822 -0.5195
  124SOPE   C2713225   3.950   6.754   3.580  0.2756  0.1148 -0.5561
  124SOPE   H7R13226   4.043   6.695   3.562  0.7170 -0.0446  1.9024
  124SOPE   H7S13227   3.968   6.857   3.617  0.8694  0.1643 -0.9674
  124SOPE   C2813228   3.880   6.671   3.687 -0.5470 -0.8387 -0.6313
  124SOPE   H8R13229   3.836   6.582   3.638  1.4321 -0.6719 -2.9108
  124SOPE   H8S13230   3.949   6.647   3.771  1.3212  2.2528 -1.1136
  124SOPE   C2913231   3.763   6.756   3.745 -0.1761  0.3019 -0.1122
  124SOPE   H9113232   3.694   6.797   3.670 -1.3676 -3.9451 -1.5960
  124SOPE  C21013233   3.746   6.786   3.878  0.6518  1.0535  0.3930
  124SOPE  H10113234   3.658   6.848   3.901 -0.6834 -0.0067 -1.5855
  124SOPE  C21113235   3.822   6.746   3.997  0.8447 -0.1173 -0.7461
  124SOPE  H11R13236   3.877   6.830   4.045  0.3340 -0.6604  0.8497
  124SOPE  H11S13237   3.901   6.680   3.955  0.0563 -0.8979 -1.0369
  124SOPE  C21213238   3.745   6.657   4.092  0.8362  0.0375 -0.2631
  124SOPE  H12R13239   3.735   6.557   4.044  1.5106  1.4917 -3.7526
  124SOPE  H12S13240   3.641   6.695   4.107  0.7932 -0.2103  0.0829
  124SOPE  C21313241   3.804   6.637   4.234 -0.6033  0.2078  0.0473
  124SOPE  H13R13242   3.853   6.727   4.278 -0.4638 -0.7508  1.9471
  124SOPE  H13S13243   3.887   6.564   4.225  0.7985  1.4068  2.4351
  124SOPE  C21413244   3.704   6.581   4.331  0.1626  0.3023  0.2206
  124SOPE  H14R13245   3.652   6.491   4.292  3.3291 -1.6903  0.2356
  124SOPE  H14S13246   3.623   6.654   4.353  0.7432  0.2162  3.0929
  124SOPE  C21513247   3.768   6.545   4.465 -0.5765 -0.5819 -0.1333
  124SOPE  H15R13248   3.798   6.644   4.506  0.1149 -0.9632  0.2955
  124SOPE  H15S13249   3.867   6.497   4.449  1.5499  3.6971 -1.2498
  124SOPE  C21613250   3.675   6.476   4.561  0.1402  0.5122  0.5813
  124SOPE  H16R13251   3.584   6.538   4.568  0.5646  1.2826 -0.4081
  124SOPE  H16S13252   3.730   6.473   4.658 -0.1369  2.9002  0.8782
  124SOPE  C21713253   3.640   6.333   4.519 -0.0791 -0.2765 -0.3089
  124SOPE  H17R13254   3.561   6.342   4.442 -2.5190 -0.5765  2.0154
  124SOPE  H17S13255   3.600   6.278   4.607  0.6723 -1.5548 -0.7466
  124SOPE  C21813256   3.763   6.252   4.477 -0.6860 -0.0716  0.0050
  124SOPE  H18R13257   3.797   6.284   4.376  0.7554 -0.6653  0.2777
  124SOPE  H18S13258   3.746   6.143   4.466 -1.6108 -0.0550  1.0451
  124SOPE  H18T13259   3.839   6.261   4.556 -1.2825  1.3166  0.4503
  124SOPE   C3313260   4.325   7.279   2.714  0.0955 -0.9139  0.7366
  124SOPE   H3X13261   4.412   7.347   2.728  0.5438 -1.4256  0.4734
  124SOPE   H3Y13262   4.367   7.176   2.707 -3.0060 -2.2701  0.5033
  124SOPE   C3413263   4.257   7.273   2.849 -0.1604 -0.9657  0.1158
  124SOPE   H4X13264   4.161   7.217   2.840  0.2387 -1.8609  1.1736
  124SOPE   H4Y13265   4.246   7.377   2.886  1.5049 -0.5811 -0.3969
  124SOPE   C3513266   4.352   7.199   2.940 -0.7016 -0.2204 -1.1626
  124SOPE   H5X13267   4.438   7.266   2.958 -1.6310  1.1385 -1.5999
  124SOPE   H5Y13268   4.394   7.106   2.897  1.4541  0.1738 -0.0829
  124SOPE   C3613269   4.299   7.170   3.085 -0.5657 -0.1756  0.0117
  124SOPE   H6X13270   4.205   7.114   3.071 -2.0797  1.5531  2.5849
  124SOPE   H6Y13271   4.254   7.261   3.130  0.7536  0.3650  0.2844
  124SOPE   C3713272   4.392   7.101   3.190 -0.6015  0.7610 -0.7003
  124SOPE   H7X13273   4.482   7.166   3.202  1.0551 -1.1200 -2.1591
  124SOPE   H7Y13274   4.429   7.008   3.142  1.0672  1.4205 -0.7628
  124SOPE   C3813275   4.324   7.092   3.327  0.0153  0.0817 -0.3700
  124SOPE   H8X13276   4.235   7.036   3.293 -0.7746  0.8547  0.3982
  124SOPE   H8Y13277   4.288   7.189   3.366  0.0533 -0.0030 -0.1265
  124SOPE   C3913278   4.404   6.993   3.420  0.0890 -0.6646 -0.8713
  124SOPE   H9X13279   4.496   7.048   3.448  0.6943 -2.2418  0.3337
  124SOPE   H9Y13280   4.432   6.901   3.365  1.4541 -0.1861 -1.0146
  124SOPE  C31013281   4.321   6.972   3.547 -0.6278 -0.1894 -0.9861
  124SOPE  H10X13282   4.228   6.913   3.532 -1.0896 -0.2001  1.5394
  124SOPE  H10Y13283   4.292   7.070   3.590 -1.6241 -1.0941  0.5076
  124SOPE  C31113284   4.414   6.898   3.647 -0.2593  0.5750  0.5974
  124SOPE  H11X13285   4.515   6.941   3.630 -0.0748 -0.7081 -2.0995
  124SOPE  H11Y13286   4.432   6.791   3.624 -0.6514  0.6534 -0.1130
  124SOPE  C31213287   4.361   6.908   3.785 -0.2007 -0.3711  0.5784
  124SOPE  H12X13288   4.294   6.996   3.796  0.8156  0.5107 -0.1937
  124SOPE  H12Y13289   4.452   6.913   3.849  0.0386  0.6460  0.1720
  124SOPE  C31313290   4.267   6.804   3.845 -0.4396 -0.5700 -0.2528
  124SOPE  H13X13291   4.296   6.708   3.797  1.0417 -0.6065  0.6702
  124SOPE  H13Y13292   4.163   6.826   3.813 -0.2403  1.8274  0.5755
  124SOPE  C31413293   4.263   6.798   4.000 -0.2329  0.0506 -0.0146
  124SOPE  H14X13294   4.202   6.875   4.052  2.3359  2.0626  0.1912
  124SOPE  H14Y13295   4.365   6.798   4.045 -0.5854  1.4630  0.8655
  124SOPE  C31513296   4.207   6.656   4.038  0.3277 -0.4962  0.5373
  124SOPE  H15X13297   4.271   6.577   3.992  0.5494 -0.2438  0.4056
  124SOPE  H15Y13298   4.104   6.646   3.999  0.5498  0.3063 -0.2817
  124SOPE  C31613299   4.214   6.612   4.184  0.2076 -0.9281 -0.0214
  124SOPE  H16X13300   4.141   6.661   4.251  1.9033 -2.1768  2.9236
  124SOPE  H16Y13301   4.320   6.629   4.214  0.5084  2.5407 -2.3862
  124SOPE  C31713302   4.177   6.464   4.193 -0.4644  0.3960  0.3299
  124SOPE  H17X13303   4.228   6.409   4.110  0.1924  0.2439  0.8205
  124SOPE  H17Y13304   4.068   6.449   4.181 -0.2495 -0.9143 -0.1506
  124SOPE  C31813305   4.215   6.415   4.327  0.2052  0.2320  0.0561
  124SOPE  H18X13306   4.162   6.458   4.415 -1.8495 -2.7201  0.4222
  124SOPE  H18Y13307   4.320   6.440   4.354 -0.9467  1.5195  4.1192
  124SOPE  H18Z13308   4.192   6.307   4.338 -0.0536  0.4785  2.4955
  125SOPE     N13309   0.648   1.645   2.267 -0.5054  0.3131  0.1771
  125SOPE   HN113310   0.735   1.629   2.322 -1.9906 -0.1211  2.5831
  125SOPE   HN213311   0.664   1.675   2.169  2.3411  0.6730  0.6842
  125SOPE   HN313312   0.594   1.725   2.306 -2.5501 -0.4248 -0.9734
  125SOPE   C1213313   0.557   1.523   2.273 -0.2986  0.4748 -0.2674
  125SOPE  H12A13314   0.572   1.490   2.378  1.2327 -1.1334 -0.9385
  125SOPE  H12B13315   0.594   1.441   2.208 -2.4584 -2.7335  2.2622
  125SOPE   C1113316   0.415   1.556   2.231 -0.1028 -0.9777 -0.5713
  125SOPE  H11A13317   0.359   1.460   2.230  0.4427 -1.3380  0.8977
  125SOPE  H11B13318   0.425   1.585   2.124  0.7743  1.8999  0.1880
  125SOPE     P13319   0.282   1.631   2.438 -0.2976 -0.3318  0.1501
  125SOPE   O1313320   0.261   1.756   2.515 -0.4066  0.0332 -0.1650
  125SOPE   O1413321   0.361   1.528   2.508 -0.4376  0.4489 -0.3182
  125SOPE   O1213322   0.353   1.663   2.306  0.0114 -0.6331 -0.1489
  125SOPE   O1113323   0.144   1.571   2.393  0.3835  0.3447 -0.7253
  125SOPE    C113324   0.056   1.532   2.504  0.1184 -0.3778 -0.4688
  125SOPE    HA13325  -0.005   1.621   2.532  0.1372 -0.0245 -1.5011
  125SOPE    HB13326   0.109   1.502   2.596 -1.7101  1.5967  1.3573
  125SOPE    C213327  -0.046   1.421   2.467 -0.5492 -0.6587 -0.0465
  125SOPE    HS13328  -0.096   1.456   2.374 -3.2285  0.8741  1.8200
  125SOPE   O2113329  -0.142   1.400   2.576  0.1304  0.0976 -0.1218
  125SOPE   C2113330  -0.235   1.494   2.597  0.2528  0.7725  0.1756
  125SOPE   O2213331  -0.257   1.588   2.522  0.3268 -0.1110 -0.1220
  125SOPE   C2213332  -0.298   1.473   2.736  0.1651  0.2696  0.6897
  125SOPE   H2R13333  -0.372   1.554   2.747  1.2978  1.3101  0.9357
  125SOPE   H2S13334  -0.212   1.488   2.805  0.6243  1.3758 -0.0839
  125SOPE    C313335   0.026   1.294   2.431  0.2123  0.1779  0.8443
  125SOPE    HX13336   0.099   1.333   2.356 -0.3481  0.8840  0.6562
  125SOPE    HY13337  -0.038   1.222   2.375  0.9185 -0.1332  0.4211
  125SOPE   O3113338   0.095   1.247   2.545 -0.4161 -0.3324 -0.4024
  125SOPE   C3113339   0.016   1.158   2.608  0.2676  0.2659  0.1743
  125SOPE   O3213340  -0.091   1.116   2.569 -0.1094 -0.3132  0.4645
  125SOPE   C3213341   0.101   1.106   2.730  0.9275 -0.4753  0.0132
  125SOPE   H2X13342   0.118   1.192   2.798 -0.4536 -0.4594  0.3663
  125SOPE   H2Y13343   0.201   1.071   2.696  0.5277 -2.5501  0.7651
  125SOPE   C2313344  -0.358   1.332   2.749 -0.2503 -0.1913  0.0684
  125SOPE   H3R13345  -0.281   1.267   2.701  0.8119  1.5611 -0.6875
  125SOPE   H3S13346  -0.443   1.308   2.682  1.3761 -1.7056 -1.5602
  125SOPE   C2413347  -0.370   1.300   2.900  0.4082 -0.2473 -0.5849
  125SOPE   H4R13348  -0.405   1.195   2.893  1.0362 -0.4261 -1.1515
  125SOPE   H4S13349  -0.271   1.294   2.950 -0.3271  0.3113  0.9986
  125SOPE   C2513350  -0.474   1.389   2.966 -0.2048 -0.5079  0.5170
  125SOPE   H5R13351  -0.436   1.493   2.969  3.0984 -1.5857 -0.2366
  125SOPE   H5S13352  -0.549   1.404   2.886 -0.1796  2.9110  0.9942
  125SOPE   C2613353  -0.529   1.335   3.097  0.3805 -0.8440 -0.3781
  125SOPE   H6R13354  -0.618   1.395   3.126  0.9621  1.6095 -3.2225
  125SOPE   H6S13355  -0.567   1.232   3.078 -0.0416 -0.9832  1.0570
  125SOPE   C2713356  -0.418   1.331   3.204  0.5503  0.5004  0.0319
  125SOPE   H7R13357  -0.355   1.242   3.179 -1.6925 -1.3095  0.4282
  125SOPE   H7S13358  -0.352   1.420   3.197  0.6706  0.3677 -0.5550
  125SOPE   C2813359  -0.471   1.324   3.348  0.5596  0.4478  0.0690
  125SOPE   H8R13360  -0.555   1.250   3.356 -0.3203  1.3822 -0.2843
  125SOPE   H8S13361  -0.400   1.277   3.419 -0.5689 -0.2751  0.7710
  125SOPE   C2913362  -0.512   1.447   3.411  0.2075 -0.5511 -0.3399
  125SOPE   H9113363  -0.488   1.534   3.349  1.2802 -0.0081  0.8098
  125SOPE  C21013364  -0.562   1.469   3.536  0.0845  0.1777 -0.0820
  125SOPE  H10113365  -0.593   1.570   3.564  0.1504  0.3308 -0.5402
  125SOPE  C21113366  -0.607   1.355   3.625 -0.0736  0.0647 -0.5892
  125SOPE  H11R13367  -0.613   1.264   3.561 -0.2169  0.1545 -0.7035
  125SOPE  H11S13368  -0.706   1.373   3.672 -1.0811 -1.8975 -1.8206
  125SOPE  C21213369  -0.504   1.324   3.739 -0.1556 -0.6179 -0.7621
  125SOPE  H12R13370  -0.409   1.280   3.700  0.2535  0.8836 -1.5249
  125SOPE  H12S13371  -0.550   1.256   3.814 -0.8779  1.5470  0.8475
  125SOPE  C21313372  -0.473   1.453   3.824 -0.1638  0.4997 -0.5140
  125SOPE  H13R13373  -0.571   1.489   3.861  0.1163  1.1671 -0.3994
  125SOPE  H13S13374  -0.436   1.532   3.755  0.8691 -2.5257 -3.6541
  125SOPE  C21413375  -0.362   1.424   3.936  0.5720 -0.6250  0.5978
  125SOPE  H14R13376  -0.272   1.443   3.874 -0.8048 -0.7343 -1.5469
  125SOPE  H14S13377  -0.367   1.320   3.974  0.2891 -0.9823 -0.3835
  125SOPE  C21513378  -0.365   1.515   4.056  0.9212 -0.7040 -0.0763
  125SOPE  H15R13379  -0.450   1.480   4.118  1.0607 -1.7128 -0.4346
  125SOPE  H15S13380  -0.376   1.617   4.016  0.8514 -0.4313  0.6248
  125SOPE  C21613381  -0.236   1.506   4.149  0.4752  0.7286  0.0669
  125SOPE  H16R13382  -0.148   1.525   4.085 -0.6798  1.8375 -1.2509
  125SOPE  H16S13383  -0.219   1.410   4.203 -1.1516  0.8187  0.7987
  125SOPE  C21713384  -0.242   1.621   4.255 -0.1399  0.3344 -0.1506
  125SOPE  H17R13385  -0.323   1.601   4.328  1.0037  1.9622  1.6788
  125SOPE  H17S13386  -0.259   1.720   4.208  0.8768  1.1004  1.0341
  125SOPE  C21813387  -0.108   1.616   4.325  0.3342 -0.6170 -0.4149
  125SOPE  H18R13388  -0.108   1.707   4.389  0.7140 -0.6628 -0.3496
  125SOPE  H18S13389  -0.029   1.634   4.249 -2.4228  4.2865 -2.5954
  125SOPE  H18T13390  -0.093   1.531   4.394 -0.2638  0.5189  1.1892
  125SOPE   C3313391   0.035   0.986   2.806  0.2014 -0.3839 -0.1988
  125SOPE   H3X13392   0.110   0.964   2.884  1.5554  1.5571 -0.8811
  125SOPE   H3Y13393   0.033   0.907   2.728  0.8819  0.0496 -0.6595
  125SOPE   C3413394  -0.108   1.028   2.858  0.6647  0.4887  0.0975
  125SOPE   H4X13395  -0.182   1.009   2.777 -0.5177  2.0713  0.7562
  125SOPE   H4Y13396  -0.112   1.136   2.885  0.5645  0.3989  0.4461
  125SOPE   C3513397  -0.151   0.944   2.987  0.3246  0.4888 -0.3692
  125SOPE   H5X13398  -0.109   0.842   2.969 -1.5971 -0.3541 -0.4124
  125SOPE   H5Y13399  -0.261   0.928   2.997  0.5283 -0.2000  0.9343
  125SOPE   C3613400  -0.090   1.008   3.116  0.0605  0.2672  0.8210
  125SOPE   H6X13401  -0.093   1.118   3.096 -1.8304  0.3718  1.5401
  125SOPE   H6Y13402   0.018   0.982   3.128 -0.0180 -2.0912 -2.4088
  125SOPE   C3713403  -0.183   0.992   3.235 -0.3824 -0.3566  0.8566
  125SOPE   H7X13404  -0.189   0.884   3.259  1.6234 -0.5524  0.6674
  125SOPE   H7Y13405  -0.282   1.038   3.216 -0.3597  1.1134  3.6926
  125SOPE   C3813406  -0.123   1.064   3.359  0.4747  0.0861  0.8124
  125SOPE   H8X13407  -0.117   1.174   3.345 -1.6961  0.2521  0.8957
  125SOPE   H8Y13408  -0.017   1.037   3.379  0.7841  0.7329  0.1132
  125SOPE   C3913409  -0.197   1.017   3.485 -0.2669 -0.3334 -0.1005
  125SOPE   H9X13410  -0.190   0.906   3.485 -0.7597 -0.4828  3.7762
  125SOPE   H9Y13411  -0.307   1.033   3.479 -0.3133 -0.9221 -0.9902
  125SOPE  C31013412  -0.153   1.071   3.620 -0.2924 -0.0672  0.2802
  125SOPE  H10X13413  -0.191   1.176   3.624 -1.0673 -0.2140 -1.8895
  125SOPE  H10Y13414  -0.042   1.075   3.629 -0.3469 -0.7921  1.4809
  125SOPE  C31113415  -0.202   0.985   3.740 -0.0437 -0.2880 -0.2164
  125SOPE  H11X13416  -0.195   0.878   3.713  2.0803 -0.1883 -0.2106
  125SOPE  H11Y13417  -0.306   1.021   3.757  0.0135 -0.4857  0.5617
  125SOPE  C31213418  -0.124   0.993   3.870 -0.2914  0.5843 -0.3647
  125SOPE  H12X13419  -0.014   0.999   3.857 -0.1728 -0.6864 -0.1090
  125SOPE  H12Y13420  -0.156   0.900   3.923 -1.7526 -0.1820 -2.4530
  125SOPE  C31313421  -0.166   1.116   3.941  0.1059  0.1030  0.7193
  125SOPE  H13X13422  -0.277   1.120   3.940 -0.0332 -2.3904  0.0645
  125SOPE  H13Y13423  -0.124   1.205   3.890 -0.9590 -0.6840 -1.6746
  125SOPE  C31413424  -0.126   1.125   4.091  0.1138  0.5189 -0.0469
  125SOPE  H14X13425  -0.155   1.025   4.129 -0.5981  0.6644 -0.1923
  125SOPE  H14Y13426  -0.178   1.212   4.136  1.1890  0.0993  2.1752
  125SOPE  C31513427   0.023   1.155   4.124 -0.0212  0.0608  0.3157
  125SOPE  H15X13428   0.049   1.255   4.083  0.4151  0.1278  0.7490
  125SOPE  H15Y13429   0.087   1.078   4.075  0.2383  0.8938 -0.6994
  125SOPE  C31613430   0.056   1.160   4.277  0.3349 -0.7559 -0.1443
  125SOPE  H16X13431  -0.004   1.085   4.332  0.0519 -0.9333 -0.6819
  125SOPE  H16Y13432   0.033   1.264   4.307 -2.2354 -0.3298 -3.0978
  125SOPE  C31713433   0.200   1.132   4.317  0.0907  0.0057 -0.0309
  125SOPE  H17X13434   0.202   1.123   4.427  0.6651 -3.1244 -0.1887
  125SOPE  H17Y13435   0.265   1.216   4.286 -0.8512  0.6261 -0.3597
  125SOPE  C31813436   0.249   0.995   4.275  0.4961 -0.2590 -0.2416
  125SOPE  H18X13437   0.342   0.965   4.328 -1.1049 -0.6458  2.5522
  125SOPE  H18Y13438   0.271   0.994   4.166  0.4088 -0.2881 -0.2584
  125SOPE  H18Z13439   0.178   0.910   4.283  0.2313 -0.5440 -3.9648
  126SOPE     N13440   1.048   3.858   2.194 -0.2992 -0.2887 -0.2173
  126SOPE   HN113441   1.104   3.806   2.124  0.6004  0.6742 -0.2324
  126SOPE   HN213442   1.082   3.953   2.221 -0.9117 -0.3958  1.0443
  126SOPE   HN313443   1.063   3.815   2.288 -3.8983 -0.7804  0.2997
  126SOPE   C1213444   0.905   3.853   2.170  0.4329 -0.4170 -0.1992
  126SOPE  H12A13445   0.868   3.783   2.092 -0.0788 -0.3717 -0.0031
  126SOPE  H12B13446   0.872   3.958   2.154  0.0041 -0.6740 -1.1043
  126SOPE   C1113447   0.831   3.813   2.298 -0.0317 -0.1424  0.0018
  126SOPE  H11A13448   0.722   3.820   2.274  0.1415 -1.3606 -1.2328
  126SOPE  H11B13449   0.852   3.890   2.375 -0.5288  2.2481 -2.1300
  126SOPE     P13450   0.800   3.636   2.486 -0.1690  0.2812  0.1018
  126SOPE   O1313451   0.661   3.586   2.458 -0.2494 -0.4632  0.0846
  126SOPE   O1413452   0.809   3.745   2.581 -0.3808  0.0896 -0.6060
  126SOPE   O1213453   0.861   3.678   2.338 -0.0783 -0.4020  0.1101
  126SOPE   O1113454   0.898   3.510   2.525  0.5266  0.2445  0.0588
  126SOPE    C113455   0.838   3.396   2.576 -0.3951 -0.0203 -0.0854
  126SOPE    HA13456   0.912   3.313   2.572 -0.4842 -0.2444  1.9033
  126SOPE    HB13457   0.760   3.362   2.505  0.7744  1.7204 -2.3221
  126SOPE    C213458   0.781   3.411   2.719 -0.1726 -0.7536 -0.1184
  126SOPE    HS13459   0.677   3.449   2.704  0.8826  2.1048 -0.7660
  126SOPE   O2113460   0.864   3.501   2.789  0.0880  0.0423 -0.2727
  126SOPE   C2113461   0.806   3.580   2.871 -0.2168 -0.2079 -0.4353
  126SOPE   O2213462   0.690   3.588   2.893  0.7056 -0.0971 -0.1085
  126SOPE   C2213463   0.922   3.656   2.946 -0.3415 -0.5611  0.2115
  126SOPE   H2R13464   0.894   3.763   2.947  0.4639 -0.2695  3.7683
  126SOPE   H2S13465   1.012   3.647   2.881 -0.7730 -0.1564 -0.4632
  126SOPE    C313466   0.787   3.270   2.783 -0.2999  0.2339 -0.6415
  126SOPE    HX13467   0.890   3.235   2.805 -0.1423  1.1513  0.1420
  126SOPE    HY13468   0.736   3.207   2.708 -3.6024  1.8582  0.0654
  126SOPE   O3113469   0.704   3.269   2.905  0.1192  0.4482  0.1073
  126SOPE   C3113470   0.763   3.256   3.013 -0.2636  0.2074 -0.2552
  126SOPE   O3213471   0.885   3.243   3.038  0.6697 -0.4373 -0.0633
  126SOPE   C3213472   0.657   3.267   3.120  0.4807  0.5853  0.1408
  126SOPE   H2X13473   0.559   3.224   3.092  0.1652  0.9211  0.7117
  126SOPE   H2Y13474   0.630   3.373   3.136 -1.3218 -0.1151  2.1635
  126SOPE   C2313475   0.937   3.617   3.091 -0.4468  0.7139 -0.4179
  126SOPE   H3R13476   1.026   3.668   3.133 -1.1556  1.8191 -0.2176
  126SOPE   H3S13477   0.955   3.508   3.100  0.2051  1.0031  3.4379
  126SOPE   C2413478   0.813   3.639   3.181 -0.1602  0.6523 -0.3529
  126SOPE   H4R13479   0.789   3.747   3.180  0.2313  0.7861  1.1752
  126SOPE   H4S13480   0.730   3.582   3.135  0.1976 -2.5381  2.5036
  126SOPE   C2513481   0.833   3.591   3.328  0.5429 -0.7729 -0.0206
  126SOPE   H5R13482   0.736   3.607   3.381 -0.8094  2.2627 -3.0322
  126SOPE   H5S13483   0.859   3.484   3.337 -0.3075 -1.0081 -0.2021
  126SOPE   C2613484   0.937   3.690   3.387  1.1466  0.4587 -0.5339
  126SOPE   H6R13485   1.039   3.657   3.356  1.8371  2.2688 -0.3012
  126SOPE   H6S13486   0.912   3.794   3.355 -1.1796 -0.1871 -1.0050
  126SOPE   C2713487   0.935   3.674   3.545  0.3719  0.4146  0.3272
  126SOPE   H7R13488   0.837   3.713   3.579  1.1118  2.6113  0.1213
  126SOPE   H7S13489   0.933   3.567   3.573  1.4290  0.1861 -0.4163
  126SOPE   C2813490   1.056   3.726   3.612  0.9981 -0.0223  0.3782
  126SOPE   H8R13491   1.048   3.726   3.722 -1.4162  1.9982  0.2981
  126SOPE   H8S13492   1.134   3.657   3.573  1.7235  0.1745  1.4486
  126SOPE   C2913493   1.099   3.860   3.572  0.0130 -0.3708 -0.1655
  126SOPE   H9113494   1.124   3.853   3.465  0.8073  0.7209 -0.0703
  126SOPE  C21013495   1.097   3.978   3.641  0.4357  0.2298  0.5761
  126SOPE  H10113496   1.125   4.069   3.586 -1.3597 -1.1734 -2.9532
  126SOPE  C21113497   1.062   3.995   3.788  0.3462  0.0679 -0.1681
  126SOPE  H11R13498   1.041   3.901   3.844 -2.2353  0.5425 -0.1844
  126SOPE  H11S13499   0.973   4.060   3.807  1.4173  1.5156  0.1277
  126SOPE  C21213500   1.183   4.059   3.863  0.5973  0.5263 -0.2741
  126SOPE  H12R13501   1.181   4.169   3.852  0.9429  0.5785  0.1256
  126SOPE  H12S13502   1.275   4.029   3.808 -0.2524  2.6117 -3.0346
  126SOPE  C21313503   1.162   4.039   4.010  1.1314  0.5230 -0.4552
  126SOPE  H13R13504   1.148   3.932   4.035  1.8421  1.1272  3.0338
  126SOPE  H13S13505   1.078   4.100   4.050 -0.0715 -1.1515 -0.3180
  126SOPE  C21413506   1.273   4.089   4.098 -0.9726 -0.1004 -0.2549
  126SOPE  H14R13507   1.366   4.075   4.039 -0.3887 -2.6809  1.1267
  126SOPE  H14S13508   1.267   4.023   4.187 -3.0853 -3.2947 -2.5394
  126SOPE  C21513509   1.266   4.240   4.135  0.3004 -0.0428 -0.1604
  126SOPE  H15R13510   1.181   4.269   4.201  1.8694  4.8932  0.0704
  126SOPE  H15S13511   1.247   4.302   4.045 -0.7609  1.8246  1.2782
  126SOPE  C21613512   1.387   4.289   4.211  0.1292 -0.1812 -0.0467
  126SOPE  H16R13513   1.484   4.286   4.157 -0.5096 -0.7287 -1.2180
  126SOPE  H16S13514   1.399   4.207   4.285 -0.3817 -2.7622 -2.6104
  126SOPE  C21713515   1.368   4.432   4.271  0.0026 -0.4814 -0.1275
  126SOPE  H17R13516   1.269   4.420   4.321 -0.3683 -5.5739 -1.5499
  126SOPE  H17S13517   1.352   4.495   4.181 -1.1703  3.2358  2.4529
  126SOPE  C21813518   1.489   4.468   4.361 -0.2312 -0.2989 -0.0199
  126SOPE  H18R13519   1.487   4.420   4.461 -0.4949 -0.6085 -0.1733
  126SOPE  H18S13520   1.496   4.578   4.372  1.0953 -0.0684 -2.4908
  126SOPE  H18T13521   1.589   4.456   4.315  1.7313  0.6762  3.5706
  126SOPE   C3313522   0.702   3.211   3.260  0.6095 -0.0893  0.0734
  126SOPE   H3X13523   0.802   3.245   3.295  0.8591 -1.0430  0.3277
  126SOPE   H3Y13524   0.710   3.101   3.240 -3.1805 -0.3357 -0.7875
  126SOPE   C3413525   0.588   3.229   3.369 -0.1280  0.5034 -0.3442
  126SOPE   H4X13526   0.495   3.251   3.313  0.1627  1.5921 -0.4306
  126SOPE   H4Y13527   0.619   3.322   3.423  1.0532  1.2725 -2.2359
  126SOPE   C3513528   0.575   3.104   3.461 -0.8400 -0.6651  0.0945
  126SOPE   H5X13529   0.550   3.010   3.407  0.5293 -1.1071  0.1718
  126SOPE   H5Y13530   0.494   3.122   3.534 -1.5136 -2.2209 -0.2462
  126SOPE   C3613531   0.707   3.069   3.536 -0.2488 -0.0554 -0.1938
  126SOPE   H6X13532   0.749   3.159   3.585 -1.4934 -0.8307  2.4727
  126SOPE   H6Y13533   0.780   3.044   3.456 -0.5322  1.0443 -0.8132
  126SOPE   C3713534   0.700   2.963   3.644  0.3501  0.1914 -0.4932
  126SOPE   H7X13535   0.809   2.950   3.661  0.7502  1.1765 -2.0702
  126SOPE   H7Y13536   0.663   2.875   3.588  0.2935  0.7205 -1.3057
  126SOPE   C3813537   0.619   3.001   3.766  0.0554 -0.5323  0.0208
  126SOPE   H8X13538   0.520   3.039   3.731  0.0275  0.2675  0.9114
  126SOPE   H8Y13539   0.680   3.069   3.830 -1.3097  0.7302  0.0570
  126SOPE   C3913540   0.593   2.875   3.854  0.3001  0.1207 -0.2442
  126SOPE   H9X13541   0.507   2.817   3.812  1.0909  0.0966 -1.9264
  126SOPE   H9Y13542   0.556   2.903   3.955  0.6000  2.0945 -0.6553
  126SOPE  C31013543   0.717   2.778   3.865  0.1949 -0.0274  0.1390
  126SOPE  H10X13544   0.745   2.732   3.767 -5.1728 -3.3535 -0.2198
  126SOPE  H10Y13545   0.679   2.695   3.929 -1.7380  1.7395  1.3800
  126SOPE  C31113546   0.838   2.844   3.927 -0.7336 -0.2346 -1.0360
  126SOPE  H11X13547   0.842   2.955   3.925 -0.5503 -0.2512 -2.0875
  126SOPE  H11Y13548   0.925   2.804   3.872 -1.7448 -2.0724 -1.3661
  126SOPE  C31213549   0.852   2.812   4.080  0.8250 -0.1511 -0.0953
  126SOPE  H12X13550   0.836   2.712   4.125  1.4605  0.1958  0.9467
  126SOPE  H12Y13551   0.772   2.878   4.121 -1.8470 -2.1302 -1.7297
  126SOPE  C31313552   0.994   2.845   4.112  0.0729 -0.4226 -0.4572
  126SOPE  H13X13553   1.022   2.950   4.089  1.4353 -0.6153  0.1957
  126SOPE  H13Y13554   1.056   2.782   4.045 -2.1518 -1.4860 -1.6013
  126SOPE  C31413555   1.025   2.811   4.257  0.5346  0.3532 -0.1711
  126SOPE  H14X13556   0.996   2.705   4.271  1.3645  0.2635  1.0983
  126SOPE  H14Y13557   0.961   2.864   4.330 -1.4238 -1.0198 -0.8214
  126SOPE  C31513558   1.172   2.843   4.301  0.3755 -0.8040  0.5061
  126SOPE  H15X13559   1.178   2.953   4.289 -0.3879 -0.7749  0.3794
  126SOPE  H15Y13560   1.232   2.788   4.225  2.3178 -3.6941  3.7742
  126SOPE  C31613561   1.200   2.804   4.454  0.7429 -0.0348  0.6681
  126SOPE  H16X13562   1.137   2.871   4.516 -0.2986 -0.8235  0.4926
  126SOPE  H16Y13563   1.305   2.823   4.483  0.2308 -0.3733  2.9563
  126SOPE  C31713564   1.164   2.661   4.494  0.2775 -0.3348  0.5782
  126SOPE  H17X13565   1.176   2.592   4.408 -1.2246 -0.1972  0.2323
  126SOPE  H17Y13566   1.060   2.646   4.530  0.6561  0.6938  2.2130
  126SOPE  C31813567   1.260   2.618   4.607 -0.2437  1.0721  0.3598
  126SOPE  H18X13568   1.224   2.526   4.659  1.5387 -1.5336 -2.6226
  126SOPE  H18Y13569   1.265   2.703   4.677  2.9552  2.3690 -1.2477
  126SOPE  H18Z13570   1.361   2.593   4.568 -2.6790 -2.1217 -5.0787
  127SOPE     N13571   3.283   5.297   2.004 -0.3138 -0.5479 -0.1797
  127SOPE   HN113572   3.285   5.285   1.901 -1.5702  1.4406 -0.5049
  127SOPE   HN213573   3.247   5.392   2.027  0.9796  0.1346 -0.9064
  127SOPE   HN313574   3.384   5.308   2.023 -0.0357  1.0966 -2.2857
  127SOPE   C1213575   3.214   5.185   2.077  0.0504 -0.1213 -0.3437
  127SOPE  H12A13576   3.253   5.091   2.033 -1.5316 -0.8093 -0.3376
  127SOPE  H12B13577   3.105   5.189   2.057  0.1545 -1.1054 -1.2181
  127SOPE   C1113578   3.231   5.215   2.229 -0.5460  0.0561 -0.2770
  127SOPE  H11A13579   3.190   5.136   2.295 -0.0969  0.0681  0.0196
  127SOPE  H11B13580   3.171   5.308   2.238  0.3299  0.7098 -0.9453
  127SOPE     P13581   3.470   5.120   2.278  0.3669  0.2946  0.4797
  127SOPE   O1313582   3.601   5.166   2.320 -0.5506 -0.1310  0.8550
  127SOPE   O1413583   3.459   5.033   2.156  0.0890  0.1562 -0.2586
  127SOPE   O1213584   3.370   5.241   2.255 -0.3602  0.0842 -0.6796
  127SOPE   O1113585   3.416   5.034   2.396  0.0384 -0.1851  0.7992
  127SOPE    C113586   3.405   5.095   2.524  0.7472 -0.0189 -0.2383
  127SOPE    HA13587   3.305   5.144   2.529  1.1168  1.2833 -3.5587
  127SOPE    HB13588   3.484   5.166   2.554  1.0328 -0.7477  0.7923
  127SOPE    C213589   3.401   4.974   2.616 -0.2238 -0.9158 -0.4591
  127SOPE    HS13590   3.308   4.918   2.589 -0.2884 -0.4735 -1.1922
  127SOPE   O2113591   3.388   5.027   2.747 -0.3451  0.0692  0.3085
  127SOPE   C2113592   3.264   5.051   2.783 -0.2320  0.1314 -0.7722
  127SOPE   O2213593   3.160   5.027   2.725  0.0397  0.0529 -0.5273
  127SOPE   C2213594   3.267   5.127   2.914  1.0955  0.0639  0.3275
  127SOPE   H2R13595   3.337   5.212   2.900 -0.9368  2.1293  1.9998
  127SOPE   H2S13596   3.296   5.062   3.000 -1.1035  0.9217  1.8023
  127SOPE    C313597   3.533   4.890   2.617  0.8249  0.1524 -0.0772
  127SOPE    HX13598   3.618   4.938   2.670  0.6864  0.0129  0.2745
  127SOPE    HY13599   3.572   4.873   2.514 -0.8549  1.2691 -0.9376
  127SOPE   O3113600   3.497   4.766   2.687 -0.6827 -0.3070  0.0202
  127SOPE   C3113601   3.561   4.658   2.640  0.4713 -0.1036 -0.6294
  127SOPE   O3213602   3.638   4.653   2.547 -0.1546 -0.4618 -0.3744
  127SOPE   C3213603   3.529   4.543   2.726  0.4186 -0.1636 -0.7121
  127SOPE   H2X13604   3.420   4.525   2.712  0.1582  0.1394  0.7492
  127SOPE   H2Y13605   3.533   4.585   2.829 -1.7680 -0.6263 -0.3928
  127SOPE   C2313606   3.124   5.187   2.942 -0.1490 -0.3692 -0.1313
  127SOPE   H3R13607   3.060   5.099   2.965  2.3143 -2.3706 -0.5824
  127SOPE   H3S13608   3.074   5.243   2.860  0.9731  0.5001 -0.2551
  127SOPE   C2413609   3.113   5.266   3.073  0.4023  0.6194  0.4667
  127SOPE   H4R13610   3.167   5.361   3.050 -0.5783  0.8398 -1.0543
  127SOPE   H4S13611   3.007   5.293   3.092 -0.3128 -0.2435 -1.9667
  127SOPE   C2513612   3.169   5.191   3.189  0.3351 -0.3390 -0.3981
  127SOPE   H5R13613   3.111   5.096   3.195  1.6948 -1.1176  1.0279
  127SOPE   H5S13614   3.276   5.171   3.169  0.6654  1.3173 -0.4420
  127SOPE   C2613615   3.159   5.264   3.323 -0.5619 -0.1077 -0.0628
  127SOPE   H6R13616   3.230   5.350   3.335  1.9587 -1.9574 -0.7874
  127SOPE   H6S13617   3.063   5.318   3.338  0.0396  0.2713  3.0723
  127SOPE   C2713618   3.154   5.170   3.446 -0.5704  1.2276  0.0300
  127SOPE   H7R13619   3.085   5.083   3.441 -0.1301  0.7298  1.7448
  127SOPE   H7S13620   3.258   5.141   3.470 -1.4892 -1.9730  0.6172
  127SOPE   C2813621   3.112   5.247   3.572 -0.3226  0.3294 -0.0507
  127SOPE   H8R13622   3.170   5.213   3.661 -1.9065 -0.9687  0.5255
  127SOPE   H8S13623   3.162   5.347   3.571 -3.7282  2.2384  1.3562
  127SOPE   C2913624   2.963   5.251   3.599 -0.0277 -0.1201 -0.4049
  127SOPE   H9113625   2.900   5.217   3.516 -0.7860 -1.0942  0.5359
  127SOPE  C21013626   2.915   5.274   3.724  0.3406  0.4300  0.0554
  127SOPE  H10113627   2.806   5.287   3.734  0.3145  2.1359 -1.8070
  127SOPE  C21113628   2.992   5.300   3.846  0.0817 -0.5677  0.7695
  127SOPE  H11R13629   2.962   5.395   3.895 -2.2663  0.1662 -1.8210
  127SOPE  H11S13630   3.100   5.314   3.826 -0.1909  0.1591 -0.3218
  127SOPE  C21213631   2.982   5.193   3.959 -0.2084  0.5295  0.4538
  127SOPE  H12R13632   3.051   5.240   4.032  2.1455 -0.2899 -1.0921
  127SOPE  H12S13633   3.038   5.100   3.936 -1.0493  0.3651 -1.0800
  127SOPE  C21313634   2.835   5.171   4.000 -0.2695 -0.0003 -0.0184
  127SOPE  H13R13635   2.786   5.097   3.933  0.5544 -1.8066  1.2694
  127SOPE  H13S13636   2.785   5.270   3.999  0.0072  0.1357 -0.4065
  127SOPE  C21413637   2.832   5.129   4.148  0.3178  0.5924 -0.5393
  127SOPE  H14R13638   2.880   5.210   4.207  0.9335  2.1168 -3.0073
  127SOPE  H14S13639   2.889   5.033   4.147 -1.1119 -0.2808 -1.1056
  127SOPE  C21513640   2.693   5.122   4.201  0.0996  1.0560 -0.1874
  127SOPE  H15R13641   2.615   5.068   4.143 -0.8915 -0.5298  2.4327
  127SOPE  H15S13642   2.653   5.225   4.195 -0.7718  0.6409 -2.4814
  127SOPE  C21613643   2.668   5.069   4.346  0.1234  0.0363 -0.4103
  127SOPE  H16R13644   2.689   4.960   4.354 -0.4290 -0.1828 -1.6161
  127SOPE  H16S13645   2.562   5.085   4.376  0.5078  2.3289 -0.1073
  127SOPE  C21713646   2.741   5.155   4.456 -0.1707  0.2294 -0.0331
  127SOPE  H17R13647   2.846   5.175   4.427 -0.1226  0.8694  0.5830
  127SOPE  H17S13648   2.751   5.095   4.549 -0.4576 -0.5094 -0.4681
  127SOPE  C21813649   2.664   5.281   4.503 -0.3744  0.0581  0.2313
  127SOPE  H18R13650   2.657   5.349   4.416  0.2967 -0.3524 -0.1517
  127SOPE  H18S13651   2.719   5.328   4.588 -2.8060  0.2736  1.8069
  127SOPE  H18T13652   2.560   5.263   4.538 -1.1918 -0.4162 -2.2707
  127SOPE   C3313653   3.602   4.412   2.703 -0.5874 -0.3166 -0.3357
  127SOPE   H3X13654   3.712   4.421   2.685 -0.4306 -0.9978  0.2050
  127SOPE   H3Y13655   3.564   4.355   2.616 -1.1865  0.6810 -0.7396
  127SOPE   C3413656   3.598   4.318   2.830  0.0119  0.7427 -0.5037
  127SOPE   H4X13657   3.660   4.370   2.907  2.0688 -2.2870  0.0473
  127SOPE   H4Y13658   3.644   4.221   2.802 -1.1688  0.1027 -0.2756
  127SOPE   C3513659   3.456   4.305   2.888  1.1158 -0.7610 -0.1828
  127SOPE   H5X13660   3.386   4.269   2.809 -0.3230  3.3851 -1.0974
  127SOPE   H5Y13661   3.413   4.405   2.911 -2.2323 -2.2724  0.8283
  127SOPE   C3613662   3.458   4.217   3.008  0.3598  0.2226 -0.2915
  127SOPE   H6X13663   3.531   4.269   3.074  1.3428 -1.1064 -0.2744
  127SOPE   H6Y13664   3.494   4.114   2.986  3.2598  1.0410  0.1490
  127SOPE   C3713665   3.324   4.215   3.090  0.3443 -0.1083  0.5668
  127SOPE   H7X13666   3.266   4.308   3.070  2.9938  1.7204  0.9186
  127SOPE   H7Y13667   3.353   4.205   3.197  0.2028  0.8496  0.7068
  127SOPE   C3813668   3.236   4.090   3.063 -0.2932  0.0909  0.3713
  127SOPE   H8X13669   3.300   4.001   3.078  1.6891  0.9829 -2.0813
  127SOPE   H8Y13670   3.214   4.081   2.954 -0.6625  2.0507  0.2316
  127SOPE   C3913671   3.102   4.077   3.147  0.0146 -0.3627 -0.8322
  127SOPE   H9X13672   3.041   3.996   3.101 -1.4718  0.1829  0.1132
  127SOPE   H9Y13673   3.049   4.173   3.130  1.3936  0.4641 -0.6630
  127SOPE  C31013674   3.116   4.062   3.300  0.5273 -1.2276 -0.0545
  127SOPE  H10X13675   3.188   4.137   3.339 -0.3329  0.0525 -0.8190
  127SOPE  H10Y13676   3.145   3.957   3.315  1.7500 -0.5603  2.7688
  127SOPE  C31113677   2.982   4.072   3.374 -0.2259  0.2712  0.0135
  127SOPE  H11X13678   2.993   4.029   3.476  3.3031  1.1615  0.1141
  127SOPE  H11Y13679   2.895   4.025   3.324 -0.5136  0.9964 -0.1724
  127SOPE  C31213680   2.941   4.216   3.398 -0.3454  0.8735  0.3780
  127SOPE  H12X13681   2.831   4.220   3.411 -0.3919 -0.6436  0.6183
  127SOPE  H12Y13682   2.958   4.279   3.307 -3.1634 -1.3242 -1.8730
  127SOPE  C31313683   3.006   4.285   3.520 -0.2237  0.5802 -0.5497
  127SOPE  H13X13684   3.116   4.305   3.520  0.1136 -1.0751  0.3869
  127SOPE  H13Y13685   2.987   4.221   3.608  0.0673 -0.1271 -0.9876
  127SOPE  C31413686   2.939   4.418   3.565 -0.3563  0.3946  0.2894
  127SOPE  H14X13687   2.969   4.497   3.493 -0.0263 -0.1346 -0.1625
  127SOPE  H14Y13688   2.976   4.444   3.667  0.3120 -0.2040  0.2091
  127SOPE  C31513689   2.790   4.418   3.578 -0.7295  0.0476 -0.2291
  127SOPE  H15X13690   2.748   4.352   3.658 -1.4062  0.8110  0.0564
  127SOPE  H15Y13691   2.740   4.380   3.486 -0.2452  1.1060 -0.9463
  127SOPE  C31613692   2.729   4.558   3.613  0.5664 -0.3218 -0.3322
  127SOPE  H16X13693   2.752   4.632   3.533  0.5790  0.6145  0.5235
  127SOPE  H16Y13694   2.786   4.585   3.705  2.3764 -0.8684 -1.2376
  127SOPE  C31713695   2.575   4.550   3.650 -0.5251 -0.3741 -0.7673
  127SOPE  H17X13696   2.543   4.649   3.691 -3.2914 -1.5372  0.1150
  127SOPE  H17Y13697   2.571   4.476   3.733  1.2570 -1.1943 -1.3662
  127SOPE  C31813698   2.497   4.516   3.528 -0.1939 -0.0014 -0.7321
  127SOPE  H18X13699   2.387   4.510   3.541 -0.1726  1.9081  0.7942
  127SOPE  H18Y13700   2.540   4.418   3.498 -0.6524 -0.1158 -1.0288
  127SOPE  H18Z13701   2.516   4.575   3.435 -1.1430  0.3733 -0.6951
  128SOPE     N13702   5.589   2.386   2.183 -0.2390  0.5559  0.1076
  128SOPE   HN113703   5.510   2.435   2.136 -0.1708  0.4309 -0.1358
  128SOPE   HN213704   5.647   2.333   2.115 -2.9000 -1.5243 -0.7052
  128SOPE   HN313705   5.564   2.306   2.245  2.8630  0.6924  1.7615
  128SOPE   C1213706   5.668   2.488   2.264  0.1916  0.3741  0.5754
  128SOPE  H12A13707   5.701   2.444   2.361 -0.7332  3.6465  2.5353
  128SOPE  H12B13708   5.586   2.556   2.295  0.3192  1.7107 -1.7868
  128SOPE   C1113709   5.785   2.555   2.196  0.2556  0.3575  0.5435
  128SOPE  H11A13710   5.861   2.476   2.181 -1.5156 -0.9968 -2.2223
  128SOPE  H11B13711   5.832   2.629   2.265  1.9286  1.6451 -1.8226
  128SOPE     P13712   5.761   2.775   2.054 -0.1077  0.1049 -0.2668
  128SOPE   O1313713   5.686   2.814   1.933  0.0719  0.6213  0.4435
  128SOPE   O1413714   5.896   2.827   2.075  0.0549 -0.2245  0.2066
  128SOPE   O1213715   5.755   2.615   2.069 -0.0120 -0.4390 -0.0823
  128SOPE   O1113716   5.683   2.810   2.191  0.4631  0.5523 -0.3223
  128SOPE    C113717   5.723   2.925   2.265  0.0556  0.0668  0.1293
  128SOPE    HA13718   5.685   3.017   2.215  0.5284  0.6083  0.7593
  128SOPE    HB13719   5.833   2.924   2.276  0.2194  3.0603 -0.3086
  128SOPE    C213720   5.663   2.933   2.409 -0.0648 -0.5742  0.4353
  128SOPE    HS13721   5.695   3.030   2.454 -1.6049 -0.4473  1.3121
  128SOPE   O2113722   5.724   2.831   2.496  0.3727 -0.5953  0.0015
  128SOPE   C2113723   5.845   2.855   2.531  0.6792 -0.2907  0.5018
  128SOPE   O2213724   5.905   2.960   2.521 -0.2699  0.6107  0.6324
  128SOPE   C2213725   5.903   2.721   2.580 -0.3835  0.0824  0.1075
  128SOPE   H2R13726   5.981   2.689   2.507 -0.0023  0.7442  0.2178
  128SOPE   H2S13727   5.815   2.655   2.595 -0.1124 -0.8641 -1.9989
  128SOPE    C313728   5.507   2.928   2.422 -0.3650 -0.1986  0.6312
  128SOPE    HX13729   5.470   2.828   2.389  1.3760  0.1707 -2.9475
  128SOPE    HY13730   5.470   3.001   2.346 -1.5459 -1.9352 -0.5492
  128SOPE   O3113731   5.460   2.970   2.542 -0.1225 -0.2566 -0.0492
  128SOPE   C3113732   5.435   2.881   2.633  0.5222 -0.3113 -0.3492
  128SOPE   O3213733   5.425   2.763   2.623 -0.3309  0.1679 -0.2224
  128SOPE   C3213734   5.444   2.950   2.767 -0.0074  0.3655  0.3826
  128SOPE   H2X13735   5.372   3.034   2.760  1.0182  1.1388 -2.2725
  128SOPE   H2Y13736   5.545   2.996   2.775  0.7109 -1.4567  3.6791
  128SOPE   C2313737   5.978   2.737   2.710 -0.5785  0.3473 -0.2749
  128SOPE   H3R13738   6.062   2.809   2.696 -1.4572  1.4970  0.2054
  128SOPE   H3S13739   6.021   2.638   2.735 -1.0253  0.5329  1.3549
  128SOPE   C2413740   5.884   2.772   2.825  0.2488  0.1031 -0.9867
  128SOPE   H4R13741   5.812   2.850   2.791 -0.8294  0.2838  1.4771
  128SOPE   H4S13742   5.821   2.682   2.841  1.2726 -0.7077 -1.3904
  128SOPE   C2513743   5.955   2.823   2.953  0.5346 -0.2581 -0.1919
  128SOPE   H5R13744   6.015   2.733   2.980 -3.7077 -3.0220  1.1071
  128SOPE   H5S13745   6.026   2.906   2.930  0.6472 -0.6547 -1.3867
  128SOPE   C2613746   5.863   2.851   3.076 -0.4252 -0.1937 -0.0399
  128SOPE   H6R13747   5.805   2.944   3.058 -1.1990 -0.7443 -0.4366
  128SOPE   H6S13748   5.797   2.763   3.092 -0.3883 -0.1968  0.0967
  128SOPE   C2713749   5.938   2.872   3.206  0.5954  0.1478  0.1668
  128SOPE   H7R13750   5.971   2.775   3.249  1.0042  1.3292  2.6886
  128SOPE   H7S13751   6.030   2.932   3.189  0.0324  1.2940  1.0825
  128SOPE   C2813752   5.835   2.949   3.304  1.0847  0.1771 -0.6966
  128SOPE   H8R13753   5.816   3.047   3.255  2.4543  0.4156 -0.7987
  128SOPE   H8S13754   5.745   2.884   3.311  0.1207  1.6138  1.0980
  128SOPE   C2913755   5.901   2.975   3.434  0.1282 -0.4383  0.2587
  128SOPE   H9113756   5.964   3.065   3.433 -0.2968 -0.0916  1.8076
  128SOPE  C21013757   5.902   2.895   3.539  0.4867  0.3368  0.2442
  128SOPE  H10113758   5.968   2.921   3.623 -0.2196  4.0105 -0.1565
  128SOPE  C21113759   5.809   2.778   3.536  0.2911  0.2939  0.0304
  128SOPE  H11R13760   5.855   2.709   3.610  0.1672  1.1560  0.9453
  128SOPE  H11S13761   5.798   2.729   3.437 -2.0787  0.3114  0.2266
  128SOPE  C21213762   5.659   2.805   3.590 -0.2434 -0.0419 -0.9963
  128SOPE  H12R13763   5.595   2.723   3.553 -0.6448  0.1477 -0.7290
  128SOPE  H12S13764   5.611   2.894   3.543  1.4165  0.6261 -1.5207
  128SOPE  C21313765   5.656   2.819   3.747  0.0058 -0.1768 -0.4314
  128SOPE  H13R13766   5.583   2.897   3.777 -1.1033 -0.8481 -1.3079
  128SOPE  H13S13767   5.762   2.840   3.773 -0.0101 -0.1434 -0.3924
  128SOPE  C21413768   5.604   2.694   3.819  0.1489  0.3090  0.1995
  128SOPE  H14R13769   5.660   2.605   3.784  0.3914  0.4136  0.3183
  128SOPE  H14S13770   5.494   2.695   3.803 -0.2540 -0.5154  2.6036
  128SOPE  C21513771   5.622   2.694   3.971  0.0015 -0.0304  0.3255
  128SOPE  H15R13772   5.582   2.792   4.005  2.3285  1.2999 -0.5458
  128SOPE  H15S13773   5.732   2.701   3.984 -0.0120  0.6568  0.1024
  128SOPE  C21613774   5.548   2.578   4.043  0.4444 -0.2855  0.3469
  128SOPE  H16R13775   5.581   2.479   4.004  0.0953 -1.3613  2.6145
  128SOPE  H16S13776   5.440   2.597   4.024  0.5588  1.1115  0.9982
  128SOPE  C21713777   5.563   2.573   4.193  0.4637  0.4328  0.3033
  128SOPE  H17R13778   5.649   2.510   4.224 -1.6134 -1.7345  2.1023
  128SOPE  H17S13779   5.483   2.510   4.239  1.2524 -1.5696 -0.9261
  128SOPE  C21813780   5.594   2.703   4.265  0.6481 -0.1629 -0.1270
  128SOPE  H18R13781   5.683   2.755   4.223 -0.3659  1.1870 -0.6916
  128SOPE  H18S13782   5.621   2.689   4.372 -2.1586  1.3996  0.8949
  128SOPE  H18T13783   5.515   2.781   4.268 -1.4298 -2.1922  0.4801
  128SOPE   C3313784   5.426   2.851   2.887  0.7841 -0.5915  0.1361
  128SOPE   H3X13785   5.504   2.772   2.893  1.7054  0.3387  0.6249
  128SOPE   H3Y13786   5.321   2.814   2.883  0.7235 -0.4145  0.0782
  128SOPE   C3413787   5.423   2.926   3.021  1.0826  0.6762  0.2672
  128SOPE   H4X13788   5.339   2.999   3.018  0.1176 -0.2790  2.1874
  128SOPE   H4Y13789   5.513   2.989   3.039  0.1075  2.1890  0.0898
  128SOPE   C3513790   5.403   2.842   3.143 -0.2992  0.0401  0.2217
  128SOPE   H5X13791   5.499   2.808   3.189 -1.2198 -0.8393  1.5496
  128SOPE   H5Y13792   5.361   2.744   3.112  0.5600  0.0289 -1.0055
  128SOPE   C3613793   5.307   2.896   3.244 -0.5507 -0.1577 -0.7969
  128SOPE   H6X13794   5.209   2.900   3.192  0.4579  1.5576 -2.6643
  128SOPE   H6Y13795   5.334   3.002   3.259  1.4903 -0.8133  0.5945
  128SOPE   C3713796   5.303   2.815   3.374  0.1700 -0.6298  0.3821
  128SOPE   H7X13797   5.395   2.815   3.438  1.4119 -2.3392 -1.2900
  128SOPE   H7Y13798   5.288   2.709   3.345  0.4751 -0.1199 -1.8334
  128SOPE   C3813799   5.186   2.855   3.469 -0.2001 -0.2666  0.2614
  128SOPE   H8X13800   5.171   2.777   3.547 -2.9132 -1.5650 -1.4009
  128SOPE   H8Y13801   5.093   2.858   3.408  2.0318  2.2613 -3.4850
  128SOPE   C3913802   5.206   2.996   3.531 -0.0457  0.0360  0.3884
  128SOPE   H9X13803   5.180   3.067   3.449 -0.7365 -0.8339 -0.1748
  128SOPE   H9Y13804   5.311   3.012   3.564  1.1273 -0.7998 -2.5545
  128SOPE  C31013805   5.119   3.021   3.650 -0.5001 -0.6597 -0.7096
  128SOPE  H10X13806   5.013   2.989   3.643 -1.1681  0.5089  2.4054
  128SOPE  H10Y13807   5.121   3.132   3.656 -4.2228 -0.3585 -2.3609
  128SOPE  C31113808   5.174   2.973   3.784 -0.4850  0.0946  0.6802
  128SOPE  H11X13809   5.202   2.866   3.791  1.3822  0.3346 -1.8319
  128SOPE  H11Y13810   5.091   2.982   3.856  0.9575 -2.7771  2.8988
  128SOPE  C31213811   5.270   3.079   3.860  0.1953  0.1779  0.5614
  128SOPE  H12X13812   5.219   3.178   3.861  0.8059  0.4910  1.1347
  128SOPE  H12Y13813   5.362   3.100   3.803 -0.5182  2.4882  0.1594
  128SOPE  C31313814   5.292   3.035   3.998 -0.2438  0.0172 -0.6638
  128SOPE  H13X13815   5.348   2.938   4.002 -2.0146 -1.1251 -2.0885
  128SOPE  H13Y13816   5.191   3.017   4.041 -0.5362  2.4357 -0.2039
  128SOPE  C31413817   5.358   3.143   4.083 -0.0687 -0.4927  0.0214
  128SOPE  H14X13818   5.294   3.234   4.088  0.4473 -0.0103 -1.6407
  128SOPE  H14Y13819   5.442   3.174   4.018 -0.7130  0.0919 -0.5622
  128SOPE  C31513820   5.407   3.097   4.216  0.5805 -0.3852 -0.2935
  128SOPE  H15X13821   5.465   3.003   4.200 -1.6595 -1.8234 -0.4243
  128SOPE  H15Y13822   5.323   3.092   4.288 -0.4983  1.4456 -1.3547
  128SOPE  C31613823   5.496   3.212   4.276  0.0746 -0.0359 -0.0325
  128SOPE  H16X13824   5.422   3.294   4.288 -1.0243 -1.0320  0.2311
  128SOPE  H16Y13825   5.571   3.247   4.201 -0.1193  1.2042  0.3388
  128SOPE  C31713826   5.564   3.189   4.411  0.2489 -0.6370  0.3479
  128SOPE  H17X13827   5.489   3.132   4.470 -2.1254  0.0530 -1.7959
  128SOPE  H17Y13828   5.580   3.287   4.459  1.1330 -1.2081  1.2450
  128SOPE  C31813829   5.693   3.116   4.398 -0.1063 -0.4662 -0.3182
  128SOPE  H18X13830   5.775   3.169   4.345  1.7012 -0.4787  2.2598
  128SOPE  H18Y13831   5.675   3.018   4.350 -1.7886 -1.4114  2.0342
  128SOPE  H18Z13832   5.736   3.094   4.498  1.3691 -1.5644 -1.1529
  129OSM      N13833   4.521   3.177   6.450  0.1225  0.1711 -0.0006
  129OSM    C1513834   4.417   3.287   6.465 -0.1207 -0.3247  0.4992
  129OSM   H15A13835   4.439   3.344   6.555  2.9923  1.7377 -1.3789
  129OSM   H15B13836   4.320   3.242   6.483 -0.0743 -0.6184  0.0243
  129OSM   H15C13837   4.413   3.353   6.380 -0.2745  1.5866  1.9075
  129OSM    C1413838   4.648   3.233   6.380  1.1619  0.2111 -0.6819
  129OSM   H14A13839   4.710   3.286   6.450 -1.3616  1.3769  0.8188
  129OSM   H14B13840   4.631   3.296   6.294 -0.1999 -0.3509 -0.8578
  129OSM   H14C13841   4.700   3.146   6.341 -0.3984 -0.5572 -1.1387
  129OSM    C1313842   4.564   3.140   6.590  0.4373  0.1820 -0.2676
  129OSM   H13A13843   4.604   3.221   6.649 -2.1974  1.1892  0.2404
  129OSM   H13B13844   4.651   3.076   6.593 -1.1630 -2.2437 -2.0063
  129OSM   H13C13845   4.481   3.097   6.643 -0.0886 -2.0404 -2.6812
  129OSM    C1213846   4.474   3.057   6.372  0.3850  0.1358 -0.4734
  129OSM   H12A13847   4.555   2.992   6.342 -0.8773 -2.3049  0.9956
  129OSM   H12B13848   4.419   3.098   6.289 -0.6033 -2.0594 -0.9928
  129OSM    C1113849   4.376   2.968   6.452 -0.2353 -0.0223  0.6366
  129OSM   H11A13850   4.407   2.937   6.554 -2.5651 -3.3861  0.4656
  129OSM   H11B13851   4.362   2.875   6.393  2.5308 -0.4208  0.5153
  129OSM      P13852   4.118   2.975   6.455  0.0949  0.2690  0.4508
  129OSM    O1313853   4.108   2.852   6.535  0.5587 -0.4518 -0.5965
  129OSM    O1413854   4.023   3.092   6.473 -0.2344  0.7053 -0.0615
  129OSM    O1113855   4.120   2.939   6.304  0.0837  0.5824 -0.2874
  129OSM    O1213856   4.253   3.041   6.475 -0.2340 -0.6758  0.6243
  129OSM    C1S13857   4.118   3.036   6.197  0.3308  0.3116  0.2879
  129OSM    H1S13858   4.197   3.113   6.213  0.6393  0.0484  0.0377
  129OSM    H1T13859   4.023   3.093   6.191 -0.2615 -0.8355 -2.4957
  129OSM     NF13860   4.177   3.063   5.959  0.0177 -0.4682 -0.5728
  129OSM    HNF13861   4.096   3.074   5.902 -1.0813 -3.9089  0.0920
  129OSM    C2S13862   4.151   2.969   6.068 -0.6980 -0.0296  0.1622
  129OSM    H2S13863   4.249   2.919   6.083 -0.9964 -0.7294 -0.1923
  129OSM    C3S13864   4.050   2.849   6.040 -0.0807  0.3303  0.4705
  129OSM    H3S13865   3.952   2.901   6.036 -0.2319 -0.0111 -0.5647
  129OSM     O313866   4.047   2.751   6.142  0.8310 -0.0830 -0.1313
  129OSM    HO313867   4.095   2.789   6.217 -2.3387  0.2607  1.9481
  129OSM    C4S13868   4.073   2.781   5.914  0.4087 -0.2734 -0.2264
  129OSM    H4S13869   3.991   2.816   5.850  0.8609  1.2442  0.0022
  129OSM    C5S13870   4.171   2.691   5.875 -0.3357  0.6468  0.4268
  129OSM    H5S13871   4.231   2.641   5.952  0.7152 -2.4945 -2.1889
  129OSM    C6S13872   4.181   2.627   5.736  0.5347  0.5916 -0.2003
  129OSM    H6S13873   4.117   2.677   5.660  0.8523  1.9474  0.4053
  129OSM    H6T13874   4.128   2.530   5.752  0.5336  0.4998 -0.7472
  129OSM    C7S13875   4.329   2.611   5.701 -0.6785 -0.4356  0.1007
  129OSM    H7S13876   4.371   2.556   5.788  0.5107 -1.7076 -1.2269
  129OSM    H7T13877   4.378   2.711   5.698 -0.3826 -0.5626  0.5668
  129OSM    C8S13878   4.360   2.524   5.582  0.2438  0.2667  0.9625
  129OSM    H8S13879   4.317   2.423   5.594  0.6720  0.0363  0.5500
  129OSM    H8T13880   4.467   2.499   5.564  0.2107 -0.4977  1.7785
  129OSM    C9S13881   4.303   2.588   5.449 -0.1355  0.3882 -0.1036
  129OSM    H9S13882   4.332   2.691   5.421 -1.2568  0.9433  0.7314
  129OSM    H9T13883   4.192   2.594   5.455 -0.0805  1.6003 -0.1742
  129OSM   C10S13884   4.347   2.499   5.335 -0.4666 -0.4390 -0.0725
  129OSM   H10S13885   4.316   2.392   5.328 -1.7506 -0.0201 -1.2246
  129OSM   H10T13886   4.457   2.509   5.328 -0.4309 -0.5730  0.2554
  129OSM   C11S13887   4.306   2.562   5.200 -0.7547 -0.2053 -0.0916
  129OSM   H11S13888   4.330   2.669   5.216  0.0439 -0.3037 -0.5826
  129OSM   H11T13889   4.194   2.562   5.197 -0.8748 -3.8428 -1.2832
  129OSM   C12S13890   4.374   2.502   5.076 -0.2698  0.3669  0.2945
  129OSM   H12S13891   4.321   2.410   5.044  0.8519  0.5574 -2.2966
  129OSM   H12T13892   4.477   2.467   5.100 -0.2643  0.5781  0.5942
  129OSM   C13S13893   4.360   2.592   4.953  0.5502  0.5591 -1.0220
  129OSM   H13S13894   4.443   2.667   4.959 -0.9311  2.3257 -1.6184
  129OSM   H13T13895   4.273   2.658   4.971 -0.1492 -0.7293  0.5126
  129OSM   C14S13896   4.351   2.534   4.811 -0.3897 -0.8366 -0.1610
  129OSM   H14S13897   4.362   2.624   4.748 -0.8915 -1.6010 -1.3792
  129OSM   H14T13898   4.245   2.502   4.800 -0.3494 -1.4273  1.0307
  129OSM   C15S13899   4.444   2.413   4.782 -0.0484 -0.6293  0.7745
  129OSM   H15S13900   4.422   2.342   4.865  0.0673 -0.3297  1.0633
  129OSM   H15T13901   4.540   2.463   4.806 -1.5897  1.9748  1.8942
  129OSM   C16S13902   4.424   2.352   4.644  0.1321  0.1337 -0.0507
  129OSM   H16S13903   4.509   2.284   4.620  1.1627  1.5701 -0.5808
  129OSM   H16T13904   4.423   2.428   4.563  1.7546 -0.0126 -0.2440
  129OSM   C17S13905   4.303   2.258   4.637 -0.0995  0.3861 -0.8658
  129OSM   H17S13906   4.274   2.226   4.535 -0.0942 -3.6235  0.2084
  129OSM   H17T13907   4.219   2.323   4.668 -0.6478 -1.0070  0.7181
  129OSM   C18S13908   4.289   2.138   4.727 -0.6734  0.0483  0.0624
  129OSM   H18S13909   4.287   2.160   4.835  0.4045  0.4119  0.0246
  129OSM   H18T13910   4.376   2.069   4.717 -2.1729 -2.0420  0.8083
  129OSM   H18U13911   4.197   2.084   4.696 -0.9726  0.6806 -0.1464
  129OSM    C1F13912   4.305   3.112   5.935 -0.0448  0.6766 -0.2547
  129OSM     OF13913   4.394   3.106   6.013 -0.3421 -0.4162 -0.5119
  129OSM    C2F13914   4.316   3.187   5.802 -0.0032  0.0186 -0.4753
  129OSM    H2F13915   4.378   3.278   5.818  0.8357 -0.6377  0.1233
  129OSM    H2G13916   4.214   3.224   5.778 -0.1916 -2.0068 -3.3120
  129OSM    C3F13917   4.362   3.092   5.693 -0.5409 -0.4877  0.4534
  129OSM    H3F13918   4.281   3.019   5.676 -0.6577 -0.0300 -1.0792
  129OSM    H3G13919   4.460   3.045   5.715 -0.2568  0.1629  0.6208
  129OSM    C4F13920   4.381   3.162   5.558 -0.0156 -0.1266  0.0220
  129OSM    H4F13921   4.440   3.253   5.583  2.5960 -1.9857  1.0293
  129OSM    H4G13922   4.291   3.209   5.513  0.9452 -0.4787 -2.4189
  129OSM    C5F13923   4.447   3.081   5.445 -0.0403  0.2311  0.0941
  129OSM    H5F13924   4.408   2.977   5.448 -0.0129  0.1079 -2.0168
  129OSM    H5G13925   4.557   3.076   5.459  0.3275  2.0168 -1.6014
  129OSM    C6F13926   4.424   3.150   5.306  0.4042 -0.2699 -0.9213
  129OSM    H6F13927   4.484   3.244   5.306  0.9719 -0.6288 -0.7644
  129OSM    H6G13928   4.316   3.174   5.303  0.2516 -0.5804  0.9317
  129OSM    C7F13929   4.461   3.068   5.185  0.4910  1.1737 -1.0125
  129OSM    H7F13930   4.409   2.971   5.202  0.8158  1.0604 -0.6506
  129OSM    H7G13931   4.572   3.069   5.192  0.4538  0.0281 -0.0036
  129OSM    C8F13932   4.409   3.115   5.047 -0.0010 -0.8302  0.6469
  129OSM    H8F13933   4.299   3.104   5.041 -0.0455 -1.8512  2.6483
  129OSM    H8G13934   4.456   3.043   4.977  1.6856  1.1381 -0.3721
  129OSM    C9F13935   4.436   3.265   5.009 -0.5447 -0.1332 -0.1966
  129OSM    H9F13936   4.370   3.342   5.052 -1.5661 -1.5563  0.8636
  129OSM   C10F13937   4.537   3.308   4.937  1.1386  0.3500  0.3535
  129OSM   H10F13938   4.544   3.415   4.912 -0.3373 -0.0935 -2.3306
  129OSM   C11F13939   4.642   3.226   4.861 -0.3406 -0.5865  0.2095
  129OSM   H11F13940   4.638   3.117   4.884 -0.9618 -0.4868  0.5937
  129OSM   H11G13941   4.741   3.270   4.884 -0.6074 -0.3756  0.9972
  129OSM   C12F13942   4.651   3.236   4.708  0.4466  0.2103 -0.3700
  129OSM   H12F13943   4.552   3.210   4.665  0.7969  1.7477 -2.2582
  129OSM   H12G13944   4.723   3.165   4.663  2.1714  0.4376  1.8268
  129OSM   C13F13945   4.689   3.371   4.658  0.9044 -0.5184  0.2403
  129OSM   H13F13946   4.800   3.378   4.663  1.0161  1.5795 -2.7054
  129OSM   H13G13947   4.646   3.456   4.715  0.9042  1.5750 -2.6501
  129OSM   C14F13948   4.655   3.399   4.508 -0.0290  0.2202  0.3904
  129OSM   H14F13949   4.544   3.390   4.506 -0.3396  2.9917  1.6643
  129OSM   H14G13950   4.711   3.316   4.460  0.6942 -0.9541  3.1204
  129OSM   C15F13951   4.684   3.536   4.443 -0.1416  0.6696  0.0142
  129OSM   H15F13952   4.682   3.632   4.499 -2.0908  1.0100 -0.5335
  129OSM   H15G13953   4.615   3.548   4.356  1.1034  0.5773 -1.0060
  129OSM   C16F13954   4.827   3.532   4.386 -0.3276 -0.8377 -0.3224
  129OSM   H16F13955   4.841   3.431   4.342 -0.8403 -0.4314 -1.4755
  129OSM   H16G13956   4.904   3.553   4.463  2.7432 -1.6217 -2.9574
  129OSM   C17F13957   4.840   3.647   4.281 -0.5563  0.6331 -0.3479
  129OSM   H17F13958   4.843   3.744   4.333 -0.9721  1.0896 -1.1530
  129OSM   H17G13959   4.750   3.629   4.217  0.8352 -0.8225 -1.9951
  129OSM   C18F13960   4.962   3.643   4.192  0.0470  0.3949 -0.4977
  129OSM   H18F13961   4.953   3.723   4.115 -0.4075  0.9009  0.0661
  129OSM   H18G13962   4.977   3.539   4.158 -0.1218 -0.7917  2.7269
  129OSM   H18H13963   5.053   3.668   4.251 -1.0747  1.8667  0.7192
  130OSM      N13964   3.428   5.840   6.897  0.4253 -0.2224  0.0622
  130OSM    C1513965   3.496   5.709   6.940 -0.3386 -0.1094  0.0576
  130OSM   H15A13966   3.447   5.621   6.899 -1.4094  0.4002  0.2036
  130OSM   H15B13967   3.490   5.695   7.047 -0.1254 -0.8563 -0.0175
  130OSM   H15C13968   3.598   5.704   6.906 -1.1069  0.5964 -2.5382
  130OSM    C1413969   3.279   5.813   6.924  0.3471 -0.6117  0.3551
  130OSM   H14A13970   3.220   5.895   6.886  2.1477  0.4428 -0.2817
  130OSM   H14B13971   3.250   5.810   7.028  0.2904 -1.5241  0.3194
  130OSM   H14C13972   3.259   5.713   6.888  2.6986 -1.0085  0.0129
  130OSM    C1313973   3.480   5.954   6.971  0.2464 -0.4224 -0.2835
  130OSM   H13A13974   3.427   6.044   6.944 -0.8015 -1.7733 -3.1778
  130OSM   H13B13975   3.585   5.976   6.956  0.2297 -1.6525 -2.6441
  130OSM   H13C13976   3.466   5.926   7.074  2.2736 -0.5657 -0.0014
  130OSM    C1213977   3.442   5.854   6.744  0.0079 -0.4566  0.4743
  130OSM   H12A13978   3.411   5.758   6.705  1.0324 -0.4344 -0.4274
  130OSM   H12B13979   3.547   5.866   6.724 -0.1083 -1.5902 -1.0544
  130OSM    C1113980   3.389   5.981   6.667  1.0542  0.2533 -0.6466
  130OSM   H11A13981   3.280   5.996   6.684  0.7188  0.0885 -2.4761
  130OSM   H11B13982   3.397   5.974   6.556  0.4640 -0.6682 -0.6403
  130OSM      P13983   3.594   6.151   6.678 -0.0898  0.2622 -0.2662
  130OSM    O1313984   3.596   6.291   6.717  0.5077 -0.2489 -0.7479
  130OSM    O1413985   3.706   6.066   6.706  0.4268  0.9053 -0.8063
  130OSM    O1113986   3.604   6.155   6.525 -0.0051 -0.4554 -0.2474
  130OSM    O1213987   3.453   6.091   6.721  0.4359 -0.4524  0.0662
  130OSM    C1S13988   3.515   6.231   6.446 -0.1524 -0.6208  0.4608
  130OSM    H1S13989   3.549   6.336   6.451  2.4577 -1.4588  1.7874
  130OSM    H1T13990   3.409   6.223   6.479 -0.1423  2.1384  1.3703
  130OSM     NF13991   3.423   6.274   6.220  0.0985 -0.3186  0.0740
  130OSM    HNF13992   3.335   6.246   6.183 -0.0567  1.6280 -1.1739
  130OSM    C2S13993   3.512   6.188   6.294  0.6620 -0.0212 -0.4955
  130OSM    H2S13994   3.615   6.208   6.256  1.1930  0.3834  1.0822
  130OSM    C3S13995   3.478   6.035   6.272  0.5098 -0.4419 -0.0605
  130OSM    H3S13996   3.371   6.030   6.300  0.3032 -1.8495 -1.0001
  130OSM     O313997   3.561   5.939   6.348 -0.8097 -0.1417  0.4873
  130OSM    HO313998   3.601   5.989   6.420  0.8675 -1.9912  0.9221
  130OSM    C4S13999   3.475   6.013   6.124 -1.0080  0.1018  0.8329
  130OSM    H4S14000   3.575   5.984   6.088 -1.0971  0.7466  0.0312
  130OSM    C5S14001   3.366   6.006   6.043  0.4780 -0.2961  0.0907
  130OSM    H5S14002   3.268   6.016   6.093 -0.9731 -0.9053 -2.4726
  130OSM    C6S14003   3.373   5.975   5.895  0.4172  0.2718  0.7953
  130OSM    H6S14004   3.349   5.869   5.872  1.6189  0.4076 -1.3655
  130OSM    H6T14005   3.478   5.984   5.861  0.9696 -1.1379  2.0209
  130OSM    C7S14006   3.288   6.066   5.813  0.1184  0.1849  1.0650
  130OSM    H7S14007   3.311   6.170   5.845  1.6214  0.8653 -1.9046
  130OSM    H7T14008   3.184   6.030   5.830  0.6130 -1.4242  0.8683
  130OSM    C8S14009   3.304   6.061   5.657  1.0039  0.2069  0.8907
  130OSM    H8S14010   3.274   5.962   5.616  1.3565  0.4109  0.1316
  130OSM    H8T14011   3.409   6.076   5.624  0.3351  2.6173 -0.3213
  130OSM    C9S14012   3.205   6.153   5.584 -0.1346  0.1663  0.5179
  130OSM    H9S14013   3.237   6.259   5.597 -0.7631  0.1927  2.0826
  130OSM    H9T14014   3.107   6.141   5.634 -1.2995  1.0976 -1.4326
  130OSM   C10S14015   3.193   6.136   5.435 -0.4591 -0.4752  0.2263
  130OSM   H10S14016   3.120   6.211   5.398  0.2879 -0.3545 -1.0818
  130OSM   H10T14017   3.151   6.036   5.409  0.0808 -0.1851 -2.0490
  130OSM   C11S14018   3.319   6.166   5.356 -0.4580 -0.0934  0.8334
  130OSM   H11S14019   3.407   6.112   5.398 -1.4051 -0.8553  1.8979
  130OSM   H11T14020   3.344   6.272   5.378 -1.1604 -0.1053  1.7672
  130OSM   C12S14021   3.295   6.152   5.203  0.4099 -0.4150 -0.1811
  130OSM   H12S14022   3.387   6.159   5.142  1.4309 -1.4008  1.2023
  130OSM   H12T14023   3.236   6.235   5.157  3.3078  1.6040 -0.5090
  130OSM   C13S14024   3.232   6.015   5.174 -0.0050 -0.8272  0.1566
  130OSM   H13S14025   3.129   6.020   5.216 -0.4009 -0.2022 -0.8817
  130OSM   H13T14026   3.294   5.940   5.229  0.3882 -1.4178 -1.0576
  130OSM   C14S14027   3.217   5.981   5.024  1.0391  0.3914 -0.8919
  130OSM   H14S14028   3.308   5.955   4.967  1.5922 -0.3573  0.2946
  130OSM   H14T14029   3.168   6.063   4.966  0.5187  0.0339 -0.9689
  130OSM   C15S14030   3.139   5.850   4.998  0.2129  0.0044 -0.8087
  130OSM   H15S14031   3.041   5.844   5.051  0.2994 -1.6571 -0.7963
  130OSM   H15T14032   3.206   5.768   5.031  0.7475  0.1129 -1.5934
  130OSM   C16S14033   3.104   5.828   4.847 -0.5044 -0.4093 -0.1426
  130OSM   H16S14034   3.057   5.923   4.814  2.0203  2.1591  2.9680
  130OSM   H16T14035   3.029   5.748   4.828  2.4269 -3.2812 -0.5717
  130OSM   C17S14036   3.221   5.791   4.760 -0.6410  0.6254 -0.6631
  130OSM   H17S14037   3.272   5.701   4.801  0.0998 -0.2253 -3.2719
  130OSM   H17T14038   3.297   5.872   4.769 -1.6287  1.4425  0.6856
  130OSM   C18S14039   3.180   5.769   4.615 -0.6377 -0.2842 -0.0369
  130OSM   H18S14040   3.095   5.836   4.590 -2.1554 -2.5343 -1.1727
  130OSM   H18T14041   3.141   5.668   4.594  0.6145 -0.2670 -3.0158
  130OSM   H18U14042   3.267   5.793   4.550 -0.2887  0.0509  0.5483
  130OSM    C1F14043   3.443   6.403   6.204 -0.9356 -0.1451  0.7553
  130OSM     OF14044   3.555   6.448   6.196 -0.1484  0.3013  0.1697
  130OSM    C2F14045   3.326   6.496   6.204 -0.4224  0.3176  1.0032
  130OSM    H2F14046   3.314   6.530   6.309  0.2359  0.3804  1.0624
  130OSM    H2G14047   3.239   6.434   6.173  0.7888 -0.8665 -0.1710
  130OSM    C3F14048   3.348   6.628   6.125  0.0951 -0.0772  0.0480
  130OSM    H3F14049   3.417   6.681   6.194 -0.8307 -0.9558  1.7196
  130OSM    H3G14050   3.250   6.680   6.131  0.5818  0.9792 -0.8028
  130OSM    C4F14051   3.394   6.626   5.988  0.1944 -0.5313  0.0316
  130OSM    H4F14052   3.341   6.540   5.942  0.7570  0.0610 -1.8268
  130OSM    H4G14053   3.498   6.590   5.973 -0.4160 -2.8278  0.9207
  130OSM    C5F14054   3.375   6.756   5.910  0.5939  0.0752 -0.5484
  130OSM    H5F14055   3.444   6.833   5.952  1.0302 -0.4685 -0.2533
  130OSM    H5G14056   3.273   6.799   5.922  0.7725  1.1679 -2.6048
  130OSM    C6F14057   3.378   6.761   5.754 -0.2424  0.8887 -0.0895
  130OSM    H6F14058   3.329   6.670   5.714  0.1112  0.1927  1.0291
  130OSM    H6G14059   3.487   6.756   5.731 -0.3060 -1.4130 -0.1241
  130OSM    C7F14060   3.303   6.879   5.703 -0.1692  0.1691  0.5326
  130OSM    H7F14061   3.323   6.966   5.769  0.8193  2.5570 -2.6588
  130OSM    H7G14062   3.198   6.844   5.698  0.2582 -1.3408  1.4862
  130OSM    C8F14063   3.362   6.932   5.566  0.0480 -0.0367 -0.0552
  130OSM    H8F14064   3.374   6.840   5.504 -0.8784  0.0885 -0.4404
  130OSM    H8G14065   3.468   6.966   5.566  0.2074 -0.3249 -2.3716
  130OSM    C9F14066   3.290   7.041   5.498 -0.9790  0.0054  0.0379
  130OSM    H9F14067   3.231   7.109   5.561 -3.8947 -1.9648 -0.3564
  130OSM   C10F14068   3.295   7.064   5.364 -0.5568 -0.5253 -0.1065
  130OSM   H10F14069   3.246   7.156   5.328  0.4045  0.5549  1.2447
  130OSM   C11F14070   3.381   6.988   5.262 -0.1351 -0.3175 -0.2954
  130OSM   H11F14071   3.403   6.886   5.302 -0.6799  0.0181  0.9244
  130OSM   H11G14072   3.473   7.047   5.246 -1.0571  1.3513  0.2709
  130OSM   C12F14073   3.303   6.991   5.129  0.4809  0.0184 -0.4676
  130OSM   H12F14074   3.365   6.952   5.046  0.2393  0.8561 -1.0546
  130OSM   H12G14075   3.284   7.098   5.108 -0.1068  0.3149  1.3375
  130OSM   C13F14076   3.174   6.909   5.138  0.3200  0.3516  0.2925
  130OSM   H13F14077   3.104   6.945   5.216  0.4069 -2.2672  1.6850
  130OSM   H13G14078   3.202   6.804   5.161 -3.3836 -1.3897 -2.1622
  130OSM   C14F14079   3.088   6.901   5.004 -0.3187  0.5955  0.1542
  130OSM   H14F14080   3.051   7.006   4.992  0.9965  1.0256 -0.3460
  130OSM   H14G14081   2.992   6.846   5.018  0.0409  0.5066  2.7554
  130OSM   C15F14082   3.156   6.849   4.879 -0.1877 -0.7111  0.3322
  130OSM   H15F14083   3.219   6.765   4.914  0.6299  0.0137  0.6525
  130OSM   H15G14084   3.221   6.927   4.834 -3.2838  2.2832  0.6408
  130OSM   C16F14085   3.055   6.817   4.765  0.3452 -0.2087  0.2302
  130OSM   H16F14086   3.035   6.908   4.705  1.2796 -0.3341 -0.2946
  130OSM   H16G14087   2.965   6.774   4.815 -0.5648 -0.9725 -1.9380
  130OSM   C17F14088   3.102   6.708   4.670 -0.7837  0.1693  0.0771
  130OSM   H17F14089   3.042   6.690   4.578 -1.0763 -4.4207  0.9247
  130OSM   H17G14090   3.089   6.613   4.728 -2.9639  0.1253 -0.4023
  130OSM   C18F14091   3.245   6.734   4.613  0.6510  0.5203  0.3738
  130OSM   H18F14092   3.270   6.644   4.553 -0.1702  1.1533 -0.9712
  130OSM   H18G14093   3.324   6.727   4.690  0.0838 -3.2594  0.7983
  130OSM   H18H14094   3.252   6.820   4.543 -1.0593  0.9938  0.7326
  131OSM      N14095   4.478   2.421   6.641 -0.2966  0.7873  0.1299
  131OSM    C1514096   4.423   2.552   6.606 -0.0278  0.5630  0.5735
  131OSM   H15A14097   4.431   2.618   6.691  0.8039 -1.0232  1.7757
  131OSM   H15B14098   4.322   2.558   6.568 -0.2058 -0.5387  0.8454
  131OSM   H15C14099   4.489   2.600   6.535  0.0242  1.1684  1.0229
  131OSM    C1414100   4.622   2.429   6.656  0.2960 -0.1133  0.6213
  131OSM   H14A14101   4.657   2.333   6.690  2.4658  0.9430  1.5287
  131OSM   H14B14102   4.662   2.508   6.717  1.6530  0.0091 -0.3777
  131OSM   H14C14103   4.669   2.449   6.561  2.4781 -1.9934  1.2192
  131OSM    C1314104   4.433   2.377   6.779 -0.7423 -0.9723  0.7773
  131OSM   H13A14105   4.327   2.365   6.796 -0.7330 -1.5400  0.4586
  131OSM   H13B14106   4.482   2.443   6.850 -0.9230 -0.8602  0.7960
  131OSM   H13C14107   4.481   2.281   6.792 -0.2451 -0.7858  0.3513
  131OSM    C1214108   4.444   2.316   6.541 -0.0064 -0.4240 -0.0093
  131OSM   H12A14109   4.337   2.300   6.550 -0.2900  1.6907  1.1741
  131OSM   H12B14110   4.480   2.220   6.574 -0.4066 -0.8002 -0.6322
  131OSM    C1114111   4.481   2.344   6.392  0.1066  0.1472  0.2730
  131OSM   H11A14112   4.435   2.441   6.363 -2.6910 -0.7934  1.2646
  131OSM   H11B14113   4.440   2.272   6.318  0.0206 -2.3049  2.5485
  131OSM      P14114   4.709   2.205   6.375  0.2267  0.2760  0.1918
  131OSM    O1314115   4.852   2.248   6.374  0.3383 -0.0314  0.3556
  131OSM    O1414116   4.666   2.112   6.482 -0.4452  0.2342 -0.0221
  131OSM    O1114117   4.674   2.137   6.234 -0.4701 -0.7198  0.3451
  131OSM    O1214118   4.626   2.338   6.374  0.4173 -0.2034 -0.2529
  131OSM    C1S14119   4.683   2.225   6.116 -0.2382 -0.0574 -0.7600
  131OSM    H1S14120   4.657   2.330   6.143 -1.6126 -0.4566 -0.4663
  131OSM    H1T14121   4.612   2.198   6.035  0.0985 -1.3477 -0.6394
  131OSM     NF14122   4.823   2.337   5.950  0.6805 -0.3128  0.0042
  131OSM    HNF14123   4.832   2.315   5.853  0.4639 -2.3981  0.4151
  131OSM    C2S14124   4.817   2.228   6.041 -0.2839  0.3573 -0.1327
  131OSM    H2S14125   4.885   2.266   6.120 -1.3027  0.6429  0.6284
  131OSM    C3S14126   4.860   2.090   5.994 -0.7920 -0.6984  0.5315
  131OSM    H3S14127   4.795   2.048   5.914  0.9478 -2.5355 -0.0027
  131OSM     O314128   4.862   1.999   6.102 -0.5734 -0.1635 -0.6344
  131OSM    HO314129   4.816   2.044   6.173 -2.9562 -0.7334 -1.7160
  131OSM    C4S14130   5.005   2.099   5.936  0.2419  0.2404 -1.1529
  131OSM    H4S14131   5.084   2.115   6.011 -0.0256 -1.5308 -0.4474
  131OSM    C5S14132   5.047   2.065   5.810  0.2588  0.3721 -0.0649
  131OSM    H5S14133   4.983   2.012   5.738  1.6151  0.5723 -1.4733
  131OSM    C6S14134   5.195   2.077   5.769 -0.6653 -0.0439  1.4688
  131OSM    H6S14135   5.268   2.001   5.805  1.1860  0.5360 -0.7971
  131OSM    H6T14136   5.236   2.173   5.808 -1.2555  1.0535 -0.4620
  131OSM    C7S14137   5.201   2.082   5.615 -0.1908  0.2345  0.2190
  131OSM    H7S14138   5.302   2.110   5.577 -0.7568  1.3844 -0.4532
  131OSM    H7T14139   5.139   2.155   5.560  0.9168  1.7237  0.8962
  131OSM    C8S14140   5.187   1.934   5.559 -0.1294  0.3841  0.7186
  131OSM    H8S14141   5.086   1.892   5.579 -1.2138  1.0707 -2.5748
  131OSM    H8T14142   5.250   1.856   5.606  0.0085 -0.5378 -0.9046
  131OSM    C9S14143   5.195   1.926   5.405 -0.3069 -0.4295 -0.6852
  131OSM    H9S14144   5.295   1.957   5.368 -0.6188  0.7817 -0.5694
  131OSM    H9T14145   5.120   1.997   5.363 -1.4282 -1.5565 -0.6672
  131OSM   C10S14146   5.167   1.781   5.356  0.7578 -0.4821 -0.1503
  131OSM   H10S14147   5.068   1.743   5.390  1.0393 -1.7246 -0.6556
  131OSM   H10T14148   5.236   1.722   5.420 -2.5469 -1.6112  2.6617
  131OSM   C11S14149   5.186   1.758   5.204 -0.0752 -0.1239 -0.3762
  131OSM   H11S14150   5.285   1.796   5.170 -0.5933  0.5979 -1.0951
  131OSM   H11T14151   5.107   1.814   5.150  0.5674  3.4760  2.0734
  131OSM   C12S14152   5.173   1.609   5.177 -0.4036 -0.3591  0.4354
  131OSM   H12S14153   5.067   1.578   5.189 -0.7191  0.6073  0.2945
  131OSM   H12T14154   5.230   1.552   5.254 -0.2728 -0.1881  0.4677
  131OSM   C13S14155   5.241   1.581   5.039  0.3284  0.1922 -0.2923
  131OSM   H13S14156   5.224   1.471   5.038 -0.9973  0.2987  2.4835
  131OSM   H13T14157   5.351   1.596   5.036  0.2218  0.8452 -1.6810
  131OSM   C14S14158   5.162   1.643   4.920  0.6069 -0.3940  0.3647
  131OSM   H14S14159   5.124   1.745   4.939 -0.8917 -0.1996 -3.0496
  131OSM   H14T14160   5.079   1.572   4.898  1.1743 -0.4111 -1.9796
  131OSM   C15S14161   5.240   1.650   4.788  0.0461 -0.1846 -0.3065
  131OSM   H15S14162   5.266   1.555   4.737  2.7815 -1.1359  2.5406
  131OSM   H15T14163   5.338   1.691   4.821  0.7583 -0.7385 -1.6151
  131OSM   C16S14164   5.182   1.747   4.689 -0.6629 -0.0159 -0.5593
  131OSM   H16S14165   5.185   1.850   4.729 -1.1404 -0.3141  0.2754
  131OSM   H16T14166   5.074   1.729   4.668 -0.8434  1.7469 -1.2535
  131OSM   C17S14167   5.264   1.752   4.562 -0.0740  0.0637  0.8596
  131OSM   H17S14168   5.256   1.652   4.513 -0.4517  1.1749 -1.4799
  131OSM   H17T14169   5.372   1.771   4.574  0.0967 -0.8982  0.9652
  131OSM   C18S14170   5.212   1.861   4.461 -0.2482  0.7188 -0.1531
  131OSM   H18S14171   5.246   1.825   4.362  0.2956 -0.3790  0.4158
  131OSM   H18T14172   5.251   1.964   4.479 -1.0244  0.7158  1.7998
  131OSM   H18U14173   5.101   1.861   4.450 -0.1693  1.4243 -1.1603
  131OSM    C1F14174   4.802   2.470   5.978 -0.4632 -0.0863  0.2260
  131OSM     OF14175   4.825   2.515   6.091  0.8681  0.0273  0.3882
  131OSM    C2F14176   4.767   2.561   5.867 -0.3650 -0.6413  0.1811
  131OSM    H2F14177   4.669   2.538   5.821 -1.1672  0.0339  1.5007
  131OSM    H2G14178   4.838   2.553   5.782  1.3046 -3.0679  1.6736
  131OSM    C3F14179   4.773   2.721   5.903 -0.4159 -0.4188 -0.3500
  131OSM    H3F14180   4.881   2.741   5.921 -1.0307  1.4502  1.7806
  131OSM    H3G14181   4.718   2.749   5.996 -1.9838  0.7609 -1.5773
  131OSM    C4F14182   4.715   2.812   5.795  0.0999  0.6079 -0.0048
  131OSM    H4F14183   4.687   2.911   5.835 -0.9859  0.3151 -0.0082
  131OSM    H4G14184   4.620   2.765   5.760 -0.8103  0.5092  2.4300
  131OSM    C5F14185   4.799   2.842   5.672 -0.4218  0.6326  0.0019
  131OSM    H5F14186   4.904   2.858   5.707 -0.5488  0.4530  0.4693
  131OSM    H5G14187   4.776   2.938   5.621 -2.3499  0.3605  0.2826
  131OSM    C6F14188   4.796   2.736   5.557 -0.0440  0.1880  0.0025
  131OSM    H6F14189   4.786   2.632   5.595 -0.1000 -0.1513 -0.9151
  131OSM    H6G14190   4.891   2.746   5.500 -0.6245  4.1891 -0.5388
  131OSM    C7F14191   4.682   2.770   5.449 -0.5556 -1.3038 -0.7088
  131OSM    H7F14192   4.660   2.878   5.463  0.5701 -1.1430 -0.0906
  131OSM    H7G14193   4.584   2.730   5.483 -1.1257  0.7194  0.1842
  131OSM    C8F14194   4.712   2.727   5.303 -0.6386  0.0569 -0.5833
  131OSM    H8F14195   4.617   2.731   5.244 -0.6547 -0.5366 -0.6084
  131OSM    H8G14196   4.730   2.617   5.309 -2.4247 -0.2896 -0.9359
  131OSM    C9F14197   4.827   2.795   5.239  0.0228 -0.7209  0.4715
  131OSM    H9F14198   4.881   2.854   5.315 -1.6789 -0.4490  1.5183
  131OSM   C10F14199   4.846   2.831   5.107 -0.0273  0.4047 -0.3054
  131OSM   H10F14200   4.935   2.883   5.071 -0.1407  1.8771  1.4191
  131OSM   C11F14201   4.752   2.765   5.001 -0.6042 -0.2450 -0.6444
  131OSM   H11F14202   4.651   2.811   5.007 -1.4705 -2.2233  2.3268
  131OSM   H11G14203   4.730   2.660   5.030  0.3606  0.1514  1.8725
  131OSM   C12F14204   4.814   2.781   4.862 -0.2671  0.3562 -0.0173
  131OSM   H12F14205   4.916   2.737   4.862  0.1534  1.2852 -0.7307
  131OSM   H12G14206   4.811   2.889   4.836  1.4145 -0.1363 -2.5916
  131OSM   C13F14207   4.736   2.699   4.755 -0.0391 -0.1917 -0.7408
  131OSM   H13F14208   4.628   2.700   4.780  0.4550  1.5525  1.7102
  131OSM   H13G14209   4.755   2.590   4.747 -0.8841 -0.4577  0.6081
  131OSM   C14F14210   4.774   2.762   4.617  0.3058  0.1100  0.3425
  131OSM   H14F14211   4.885   2.766   4.617  0.2816  2.3018  0.7635
  131OSM   H14G14212   4.745   2.869   4.616 -1.6248 -0.3281  1.5752
  131OSM   C15F14213   4.736   2.674   4.497 -0.5077  0.1712 -0.5604
  131OSM   H15F14214   4.757   2.730   4.403  1.2857  0.5784  0.0394
  131OSM   H15G14215   4.627   2.657   4.499 -0.3577 -0.7837  0.9980
  131OSM   C16F14216   4.804   2.539   4.476 -0.1551  0.4075  0.3596
  131OSM   H16F14217   4.770   2.464   4.551  0.9481 -1.1028 -0.5739
  131OSM   H16G14218   4.913   2.558   4.480  0.1262 -0.8357 -0.4908
  131OSM   C17F14219   4.779   2.461   4.343 -0.8592 -0.0916 -0.3310
  131OSM   H17F14220   4.857   2.382   4.334 -0.9489 -0.1607 -0.5046
  131OSM   H17G14221   4.795   2.529   4.256  0.6855  0.5760  0.4172
  131OSM   C18F14222   4.638   2.402   4.344 -0.1682 -0.5864 -1.0834
  131OSM   H18F14223   4.571   2.490   4.357  0.8114  0.1960 -1.1296
  131OSM   H18G14224   4.620   2.327   4.423  1.3856  1.2513  1.1579
  131OSM   H18H14225   4.610   2.348   4.251  1.5466 -0.1394 -1.9067
  132OSM      N14226   5.223   4.165   7.204 -0.1970  0.3128 -0.0023
  132OSM    C1514227   5.074   4.173   7.187  0.2675 -0.1197  0.2094
  132OSM   H15A14228   5.045   4.277   7.187  0.2048 -0.1266  1.6985
  132OSM   H15B14229   5.029   4.122   7.271  0.4468 -1.2348 -0.3425
  132OSM   H15C14230   5.042   4.115   7.101 -0.8051  1.0927 -0.2331
  132OSM    C1414231   5.267   4.228   7.328  0.3019 -0.5982  0.1193
  132OSM   H14A14232   5.245   4.333   7.332 -1.2115 -0.8495 -0.9358
  132OSM   H14B14233   5.370   4.212   7.357  0.1838 -0.8319  0.4153
  132OSM   H14C14234   5.210   4.184   7.409  0.9359 -0.8108  0.4559
  132OSM    C1314235   5.273   4.025   7.214  0.1152 -0.6568 -0.1215
  132OSM   H13A14236   5.286   3.992   7.112  2.2581  0.9781 -0.4560
  132OSM   H13B14237   5.197   3.968   7.265 -1.2500  0.4718 -0.8292
  132OSM   H13C14238   5.370   4.000   7.255 -0.2005 -1.2552  0.2720
  132OSM    C1214239   5.289   4.235   7.083  0.1021  0.4820 -0.6230
  132OSM   H12A14240   5.393   4.233   7.112 -0.1157  1.1807  0.2528
  132OSM   H12B14241   5.259   4.338   7.096 -0.6433  0.1585  0.3464
  132OSM    C1114242   5.268   4.184   6.940  0.1439  0.7444  0.8803
  132OSM   H11A14243   5.320   4.244   6.862 -1.1784 -0.6044 -1.1421
  132OSM   H11B14244   5.162   4.210   6.916  0.7115  2.7907  0.3993
  132OSM      P14245   5.178   3.946   6.842 -0.1285 -0.3336  0.4825
  132OSM    O1314246   5.248   3.824   6.793 -0.0309  0.0966  0.3712
  132OSM    O1414247   5.058   3.921   6.926 -0.2318  0.1953 -0.3154
  132OSM    O1114248   5.127   4.038   6.722 -0.4141 -0.0425  0.3970
  132OSM    O1214249   5.284   4.038   6.913 -0.3235 -0.3092  0.0712
  132OSM    C1S14250   5.233   4.070   6.630 -0.4507 -0.2315 -0.7043
  132OSM    H1S14251   5.287   3.979   6.597  1.6214  1.0775 -1.1267
  132OSM    H1T14252   5.309   4.140   6.671 -0.2128  0.0926 -1.6683
  132OSM     NF14253   5.289   4.157   6.417 -0.1410 -0.3653 -0.7956
  132OSM    HNF14254   5.341   4.240   6.435 -0.3684 -0.5361  0.7864
  132OSM    C2S14255   5.176   4.136   6.504 -0.1134  0.7447  0.2371
  132OSM    H2S14256   5.100   4.065   6.463  0.5145 -0.7141  1.5016
  132OSM    C3S14257   5.108   4.276   6.539  0.3662  0.7576 -0.4097
  132OSM    H3S14258   5.183   4.345   6.583  2.0433 -1.1423 -0.1459
  132OSM     O314259   5.006   4.265   6.643  0.5714  0.1330 -0.0855
  132OSM    HO314260   5.036   4.188   6.692 -1.6355 -0.3616  0.6162
  132OSM    C4S14261   5.064   4.335   6.420  0.9878 -0.4913 -0.3351
  132OSM    H4S14262   5.151   4.368   6.361 -0.7295 -1.5323 -3.6861
  132OSM    C5S14263   4.940   4.355   6.373  0.4044 -0.0158  0.2054
  132OSM    H5S14264   4.863   4.327   6.447 -0.7116 -0.7509 -1.1934
  132OSM    C6S14265   4.898   4.430   6.251  0.0077 -0.6189  0.0826
  132OSM    H6S14266   4.828   4.508   6.288 -1.7162 -1.2921 -1.5404
  132OSM    H6T14267   4.836   4.355   6.198 -0.2158 -1.7160  1.8176
  132OSM    C7S14268   5.024   4.485   6.173 -0.1945 -0.7318  0.9971
  132OSM    H7S14269   5.090   4.400   6.146  1.6127  1.2035 -1.2027
  132OSM    H7T14270   5.091   4.559   6.223 -1.4447  0.3406  1.1297
  132OSM    C8S14271   4.983   4.549   6.036  0.2484  0.3597 -0.3318
  132OSM    H8S14272   4.895   4.614   6.054 -0.0536 -0.2631  0.5334
  132OSM    H8T14273   4.924   4.472   5.983 -1.6151 -0.6442  2.9290
  132OSM    C9S14274   5.099   4.595   5.950 -0.7800  0.1105  0.3630
  132OSM    H9S14275   5.172   4.513   5.938  0.4436  1.1401  0.6188
  132OSM    H9T14276   5.138   4.686   6.000 -0.1216 -0.2133  0.4517
  132OSM   C10S14277   5.072   4.638   5.804  0.0462 -0.5716 -0.1574
  132OSM   H10S14278   5.173   4.656   5.762  0.4415  0.7073  1.2473
  132OSM   H10T14279   5.020   4.736   5.798  1.7737  0.3297 -1.4368
  132OSM   C11S14280   4.986   4.540   5.720 -0.5452 -0.2589  0.1227
  132OSM   H11S14281   4.888   4.526   5.770  0.0239 -3.3424  0.5432
  132OSM   H11T14282   5.045   4.446   5.725  0.9014  0.6765  2.4566
  132OSM   C12S14283   4.965   4.580   5.575 -0.0352 -0.3152  0.1661
  132OSM   H12S14284   5.064   4.602   5.529 -0.0740 -1.0930 -0.3132
  132OSM   H12T14285   4.904   4.669   5.552  1.3040 -0.0338 -2.7653
  132OSM   C13S14286   4.905   4.460   5.495 -0.1654  0.1779  0.8410
  132OSM   H13S14287   4.808   4.440   5.546 -1.2708  2.4102 -0.2150
  132OSM   H13T14288   4.967   4.369   5.508 -0.3835 -0.3202 -1.2074
  132OSM   C14S14289   4.874   4.498   5.349  0.3011  0.3737 -1.2774
  132OSM   H14S14290   4.812   4.590   5.341  0.8062  0.5772 -3.2566
  132OSM   H14T14291   4.804   4.420   5.311  0.1115 -1.6562  2.7520
  132OSM   C15S14292   4.999   4.505   5.254 -0.4642 -0.0865  1.3011
  132OSM   H15S14293   5.016   4.398   5.230 -1.2773 -0.1080  0.7902
  132OSM   H15T14294   5.086   4.558   5.298  1.1104 -0.6192 -1.0088
  132OSM   C16S14295   4.971   4.574   5.118  0.4474 -0.0323 -0.0707
  132OSM   H16S14296   4.959   4.684   5.134 -0.5859 -0.2848  1.0613
  132OSM   H16T14297   4.879   4.529   5.077  1.5061 -1.5591 -0.8489
  132OSM   C17S14298   5.082   4.544   5.013  0.5677 -0.5110 -0.7055
  132OSM   H17S14299   5.037   4.553   4.911  0.5655 -0.7554 -0.7251
  132OSM   H17T14300   5.103   4.436   5.023  1.5075 -0.1628  1.7968
  132OSM   C18S14301   5.209   4.622   5.018  0.0497  0.4262 -0.3619
  132OSM   H18S14302   5.295   4.583   4.959  0.9085 -0.6583  1.5047
  132OSM   H18T14303   5.243   4.629   5.124  1.7311  1.6697 -0.9409
  132OSM   H18U14304   5.195   4.730   4.996 -2.1542  0.1976 -0.3088
  132OSM    C1F14305   5.320   4.066   6.320  0.1263  0.5862  0.2929
  132OSM     OF14306   5.288   3.945   6.330  0.0789  0.5198 -0.5181
  132OSM    C2F14307   5.385   4.125   6.196 -0.8615 -0.2287  0.0589
  132OSM    H2F14308   5.486   4.078   6.191  0.5386  2.3040  2.1678
  132OSM    H2G14309   5.393   4.234   6.210  2.2693 -0.4445  0.7433
  132OSM    C3F14310   5.303   4.083   6.074  0.7129  0.4394 -0.1564
  132OSM    H3F14311   5.206   4.137   6.079  1.2602  1.4692 -0.3127
  132OSM    H3G14312   5.275   3.976   6.074 -0.0514  0.5961 -1.9118
  132OSM    C4F14313   5.373   4.115   5.939 -0.7474 -0.4656  0.4217
  132OSM    H4F14314   5.449   4.041   5.906 -2.4667 -1.4172 -1.6776
  132OSM    H4G14315   5.438   4.205   5.941 -0.3284 -0.6581 -1.7108
  132OSM    C5F14316   5.285   4.143   5.823 -0.7222 -0.0339 -0.1494
  132OSM    H5F14317   5.246   4.241   5.858  1.2130  0.4718  0.6755
  132OSM    H5G14318   5.198   4.074   5.811 -0.1028 -0.3545 -4.4210
  132OSM    C6F14319   5.353   4.157   5.691 -0.2450 -0.0989 -0.4943
  132OSM    H6F14320   5.389   4.062   5.647  0.9668  0.3460 -0.4962
  132OSM    H6G14321   5.447   4.212   5.713 -0.5829  0.5859 -0.7381
  132OSM    C7F14322   5.270   4.233   5.585  0.2313  0.6111 -0.0563
  132OSM    H7F14323   5.213   4.319   5.625 -0.3548 -0.1729  0.8165
  132OSM    H7G14324   5.189   4.164   5.553  1.9564 -0.6420 -2.0346
  132OSM    C8F14325   5.342   4.279   5.460  0.4344 -0.8803  0.6074
  132OSM    H8F14326   5.420   4.341   5.508 -0.3666 -0.2265  1.1053
  132OSM    H8G14327   5.295   4.352   5.389  0.2613 -1.7116 -0.1510
  132OSM    C9F14328   5.402   4.161   5.386  0.4479 -0.0656  0.4043
  132OSM    H9F14329   5.464   4.099   5.452 -2.0124 -1.1741  1.7828
  132OSM   C10F14330   5.387   4.138   5.254 -0.0808  0.1786  0.6131
  132OSM   H10F14331   5.447   4.061   5.204 -1.1698 -0.8685  0.8418
  132OSM   C11F14332   5.298   4.214   5.156  0.5453 -0.3106 -0.3447
  132OSM   H11F14333   5.316   4.324   5.162 -2.2860  0.1882  0.1822
  132OSM   H11G14334   5.190   4.207   5.182  0.3049  0.8906 -0.9340
  132OSM   C12F14335   5.321   4.174   5.009 -0.1401 -0.2462 -0.0977
  132OSM   H12F14336   5.246   4.231   4.949  0.6040  2.1909  1.1312
  132OSM   H12G14337   5.305   4.065   4.999 -0.0298 -0.4782  1.8894
  132OSM   C13F14338   5.459   4.213   4.959  0.4425  0.1949 -0.2074
  132OSM   H13F14339   5.540   4.153   5.007  0.3400  0.9926  1.0226
  132OSM   H13G14340   5.480   4.320   4.984  0.5607 -0.4069  2.6686
  132OSM   C14F14341   5.465   4.207   4.808  0.2600  0.4331 -0.1263
  132OSM   H14F14342   5.384   4.269   4.762  0.4277  0.8192  0.0944
  132OSM   H14G14343   5.432   4.107   4.772 -0.9816  0.3001  1.3067
  132OSM   C15F14344   5.602   4.238   4.746 -0.5431 -0.1509  0.0019
  132OSM   H15F14345   5.683   4.176   4.789  0.0371 -1.0854 -2.3038
  132OSM   H15G14346   5.619   4.346   4.766 -2.2102 -0.0224  0.8772
  132OSM   C16F14347   5.603   4.234   4.596 -0.2976 -0.4325  0.1256
  132OSM   H16F14348   5.513   4.177   4.563 -1.6989 -0.9611  4.3165
  132OSM   H16G14349   5.697   4.183   4.565  0.4735  0.3539  1.1318
  132OSM   C17F14350   5.587   4.367   4.527  0.1634 -0.1146 -0.0050
  132OSM   H17F14351   5.680   4.425   4.542  1.7773 -2.3889 -0.7087
  132OSM   H17G14352   5.491   4.410   4.563 -0.6653 -0.1732 -2.0034
  132OSM   C18F14353   5.574   4.358   4.370 -0.7927  0.6607 -0.8822
  132OSM   H18F14354   5.660   4.306   4.323 -2.0649 -1.4322 -0.9803
  132OSM   H18G14355   5.575   4.459   4.323 -0.0866  0.8431 -0.4946
  132OSM   H18H14356   5.481   4.301   4.349 -0.1099 -1.4318  1.2421
  133OSM      N14357   2.660   5.807   6.848  0.0506  0.4483 -0.2975
  133OSM    C1514358   2.563   5.751   6.946  0.0621  0.3851 -0.0210
  133OSM   H15A14359   2.471   5.805   6.931 -0.3293 -0.1217  0.5173
  133OSM   H15B14360   2.589   5.770   7.049  0.4602  2.0897 -0.4109
  133OSM   H15C14361   2.554   5.644   6.935 -0.2502  0.1053  2.4688
  133OSM    C1414362   2.680   5.957   6.877 -0.8154  0.2504  0.0017
  133OSM   H14A14363   2.584   6.006   6.869 -1.7906 -1.3452  1.3430
  133OSM   H14B14364   2.751   5.997   6.806  1.4325  0.9717  2.5029
  133OSM   H14C14365   2.730   5.973   6.971 -0.6785  0.1351 -0.0521
  133OSM    C1314366   2.792   5.744   6.881 -0.1522  0.0414 -0.2161
  133OSM   H13A14367   2.785   5.636   6.876  3.2255 -0.2068 -2.5406
  133OSM   H13B14368   2.832   5.763   6.979  0.4976 -0.8705 -0.2925
  133OSM   H13C14369   2.864   5.782   6.810 -0.2420 -1.0198 -0.9042
  133OSM    C1214370   2.631   5.779   6.702  0.0637 -0.2873 -0.3822
  133OSM   H12A14371   2.638   5.672   6.693 -2.6137 -0.5927  0.4264
  133OSM   H12B14372   2.713   5.810   6.639 -0.6390 -2.7880 -2.7443
  133OSM    C1114373   2.496   5.807   6.637  0.3478 -0.5072  0.4588
  133OSM   H11A14374   2.504   5.817   6.526  0.5397 -0.6618  0.4594
  133OSM   H11B14375   2.468   5.911   6.666  2.1854  0.8326 -2.1564
  133OSM      P14376   2.262   5.756   6.745 -0.3563  0.1613  0.0983
  133OSM    O1314377   2.197   5.635   6.792 -0.0066 -0.3718 -0.0746
  133OSM    O1414378   2.284   5.868   6.837 -0.5015  0.1962 -0.1827
  133OSM    O1114379   2.179   5.812   6.622 -0.2999 -0.2075  0.1500
  133OSM    O1214380   2.402   5.711   6.675 -0.6259 -0.2289 -0.5092
  133OSM    C1S14381   2.170   5.736   6.498  0.4932  0.0532 -0.8467
  133OSM    H1S14382   2.090   5.659   6.504  1.0472 -0.5229 -0.7004
  133OSM    H1T14383   2.267   5.687   6.473  1.4079  1.3307  0.0881
  133OSM     NF14384   2.159   5.730   6.254 -0.4325  0.3441 -0.0411
  133OSM    HNF14385   2.243   5.723   6.201  0.6611  2.1297  1.3271
  133OSM    C2S14386   2.148   5.823   6.367 -0.9923  0.1206 -0.1363
  133OSM    H2S14387   2.044   5.863   6.372 -0.6057  1.0280  1.1524
  133OSM    C3S14388   2.253   5.943   6.375 -0.3245  0.4170 -0.5232
  133OSM    H3S14389   2.351   5.899   6.401 -0.3292  0.1717 -0.9157
  133OSM     O314390   2.217   6.032   6.479  0.2416  0.1144  0.1602
  133OSM    HO314391   2.165   5.979   6.540  0.4470  0.5346  0.6983
  133OSM    C4S14392   2.268   6.013   6.241 -0.5179 -0.5168  0.7072
  133OSM    H4S14393   2.349   5.975   6.177 -0.8058  0.5152 -0.3116
  133OSM    C5S14394   2.207   6.129   6.204 -0.5573 -0.1228 -0.0491
  133OSM    H5S14395   2.157   6.194   6.278 -2.0914 -2.1873  0.8250
  133OSM    C6S14396   2.228   6.203   6.070 -0.5744 -0.1168 -0.6402
  133OSM    H6S14397   2.290   6.295   6.072  0.0799 -0.3047 -4.4283
  133OSM    H6T14398   2.125   6.227   6.034  0.5803  2.0172 -2.8490
  133OSM    C7S14399   2.278   6.118   5.957 -0.3024  0.4866 -0.0778
  133OSM    H7S14400   2.199   6.045   5.931 -1.4370  1.6504  0.0185
  133OSM    H7T14401   2.380   6.079   5.980  0.2363  1.0921 -1.3315
  133OSM    C8S14402   2.304   6.207   5.834 -0.1774 -0.3947  0.0494
  133OSM    H8S14403   2.376   6.284   5.870 -0.8146  1.4711 -2.4705
  133OSM    H8T14404   2.209   6.258   5.809 -1.0366 -1.7316  0.4586
  133OSM    C9S14405   2.364   6.127   5.720  0.0164  0.1204 -0.1116
  133OSM    H9S14406   2.286   6.055   5.690 -1.0295  1.0960  0.1779
  133OSM    H9T14407   2.451   6.068   5.756  0.2231  1.0895  1.0476
  133OSM   C10S14408   2.418   6.213   5.603  0.6133  0.8120 -0.2261
  133OSM   H10S14409   2.529   6.217   5.604  0.7309 -0.5982 -2.2043
  133OSM   H10T14410   2.372   6.315   5.601 -1.5971 -0.1430 -1.5612
  133OSM   C11S14411   2.365   6.153   5.473 -0.2906  0.2938  0.2648
  133OSM   H11S14412   2.258   6.124   5.481 -0.5373  1.2674  0.6277
  133OSM   H11T14413   2.434   6.071   5.443 -0.8753  0.1089 -0.6190
  133OSM   C12S14414   2.386   6.263   5.353  0.5424  0.5106  0.2098
  133OSM   H12S14415   2.496   6.280   5.348  0.7059  0.4319  2.5937
  133OSM   H12T14416   2.345   6.365   5.367 -0.4822  0.3264 -1.2543
  133OSM   C13S14417   2.326   6.212   5.225 -0.4116 -0.2741  0.3778
  133OSM   H13S14418   2.219   6.183   5.221 -0.0188 -1.6155 -1.1397
  133OSM   H13T14419   2.386   6.124   5.194 -1.9643 -0.6585 -1.7396
  133OSM   C14S14420   2.339   6.316   5.109  0.3186  0.3551  0.4751
  133OSM   H14S14421   2.446   6.348   5.108  1.2884 -2.6185 -1.1408
  133OSM   H14T14422   2.267   6.397   5.134  0.4330  0.1472  1.5324
  133OSM   C15S14423   2.298   6.268   4.976  0.7005  0.4878  0.3613
  133OSM   H15S14424   2.195   6.226   4.972  0.7761  0.3373 -2.7732
  133OSM   H15T14425   2.368   6.198   4.925  2.0849  3.7764 -2.6988
  133OSM   C16S14426   2.298   6.382   4.868 -0.0647  0.0588 -0.1811
  133OSM   H16S14427   2.397   6.430   4.877 -0.1250 -0.1049  1.7606
  133OSM   H16T14428   2.227   6.458   4.908 -0.4945 -1.3142  1.8029
  133OSM   C17S14429   2.267   6.338   4.722  0.0961 -0.0101  0.1579
  133OSM   H17S14430   2.282   6.431   4.663 -0.5105 -0.9404 -1.5210
  133OSM   H17T14431   2.157   6.329   4.706 -0.2696  0.5735  2.0920
  133OSM   C18S14432   2.359   6.238   4.644  0.0316  0.8413 -0.4209
  133OSM   H18S14433   2.459   6.283   4.624  0.3687  0.4852  0.4247
  133OSM   H18T14434   2.316   6.214   4.544  0.7927 -2.3939 -0.0756
  133OSM   H18U14435   2.355   6.142   4.699 -0.3215  1.4879  0.7115
  133OSM    C1F14436   2.060   5.635   6.234 -0.1408  0.0942  0.2322
  133OSM     OF14437   1.982   5.611   6.322  0.3117  0.6447  0.3529
  133OSM    C2F14438   2.074   5.571   6.097 -0.9826  0.1497 -1.3179
  133OSM    H2F14439   2.171   5.517   6.093 -1.7963 -1.8620  1.9401
  133OSM    H2G14440   2.069   5.660   6.031 -0.9131  1.7008  0.7014
  133OSM    C3F14441   1.968   5.468   6.066  0.8555  0.3077  0.2484
  133OSM    H3F14442   1.885   5.489   6.136  0.2858  0.8692 -0.5672
  133OSM    H3G14443   2.007   5.365   6.082  0.6067 -0.3122 -2.5243
  133OSM    C4F14444   1.917   5.476   5.923  0.4573  0.2121  0.4120
  133OSM    H4F14445   1.878   5.576   5.896  2.3202  0.3104 -2.4172
  133OSM    H4G14446   1.832   5.408   5.900  1.0797 -0.4521  0.0208
  133OSM    C5F14447   2.015   5.431   5.815 -0.5767 -0.1309 -0.3188
  133OSM    H5F14448   2.047   5.330   5.850  1.5341 -0.1511 -2.1004
  133OSM    H5G14449   2.097   5.504   5.797 -0.8462 -0.1344 -1.6919
  133OSM    C6F14450   1.946   5.420   5.682 -0.8365  0.4830 -0.0705
  133OSM    H6F14451   1.870   5.338   5.682  0.7045 -1.0049 -0.5562
  133OSM    H6G14452   2.021   5.386   5.608  0.0413  2.3571 -0.0832
  133OSM    C7F14453   1.891   5.550   5.621  0.0380 -0.1289  0.5349
  133OSM    H7F14454   1.952   5.631   5.665  1.6643 -0.9378 -0.1323
  133OSM    H7G14455   1.787   5.563   5.657  0.0691  2.2147 -0.0500
  133OSM    C8F14456   1.883   5.571   5.470  0.5785  0.6005 -0.3985
  133OSM    H8F14457   1.822   5.664   5.458 -1.0534 -0.2727  0.8189
  133OSM    H8G14458   1.823   5.491   5.423  1.3126  0.0211 -0.3572
  133OSM    C9F14459   2.014   5.584   5.392 -0.3644  0.1477  0.0137
  133OSM    H9F14460   2.078   5.664   5.433  1.4333 -0.2331 -1.8674
  133OSM   C10F14461   2.038   5.525   5.268  0.1897  0.0641  0.5143
  133OSM   H10F14462   2.135   5.529   5.216 -0.0258  0.8953  0.1565
  133OSM   C11F14463   1.937   5.433   5.196 -0.8667 -0.3082 -0.4068
  133OSM   H11F14464   1.840   5.479   5.169 -1.5155 -0.5752  1.2968
  133OSM   H11G14465   1.922   5.340   5.254  0.3097 -0.1879  0.1276
  133OSM   C12F14466   2.008   5.390   5.067  0.2201  0.4705  0.2634
  133OSM   H12F14467   1.943   5.307   5.033  1.9783 -1.3247  1.0984
  133OSM   H12G14468   2.103   5.340   5.092 -0.1195 -0.6455 -0.6176
  133OSM   C13F14469   2.010   5.498   4.965  0.1980  0.4144 -0.9944
  133OSM   H13F14470   2.071   5.586   4.995  1.0971 -0.5967  0.2883
  133OSM   H13G14471   1.909   5.540   4.947  0.1094  0.0776 -1.2954
  133OSM   C14F14472   2.067   5.460   4.833  0.2861 -0.1469  1.1974
  133OSM   H14F14473   2.056   5.545   4.761  1.0428 -2.9554 -2.5159
  133OSM   H14G14474   1.995   5.387   4.791 -1.9867  2.1343  0.8447
  133OSM   C15F14475   2.212   5.405   4.840 -0.3937 -0.2469 -0.6188
  133OSM   H15F14476   2.234   5.369   4.738 -0.4786  0.7410 -1.0034
  133OSM   H15G14477   2.232   5.328   4.918 -0.1024 -0.5539 -0.9930
  133OSM   C16F14478   2.316   5.520   4.874 -0.0558  0.5002 -0.3278
  133OSM   H16F14479   2.299   5.556   4.978 -2.6801  1.9032 -1.1523
  133OSM   H16G14480   2.304   5.605   4.804  1.7648  0.9435 -0.1487
  133OSM   C17F14481   2.454   5.467   4.860  0.1609  0.2986 -0.0215
  133OSM   H17F14482   2.472   5.453   4.751  2.1931 -0.5262  0.3739
  133OSM   H17G14483   2.469   5.368   4.907  0.9951 -1.0867 -3.0010
  133OSM   C18F14484   2.557   5.555   4.926 -0.2223  0.3269 -0.2095
  133OSM   H18F14485   2.548   5.561   5.036  0.0582 -1.6756 -0.0362
  133OSM   H18G14486   2.559   5.661   4.892  0.9453  0.1209 -0.8229
  133OSM   H18H14487   2.656   5.513   4.899 -0.8969  1.0184 -4.4269
  134OSM      N14488   0.747   5.084   6.955  0.4040 -0.3126 -0.6470
  134OSM    C1514489   0.760   5.050   7.099  0.2498  0.3489 -0.2024
  134OSM   H15A14490   0.834   5.113   7.144  2.0043 -2.5648  1.3165
  134OSM   H15B14491   0.803   4.952   7.114  1.2410  1.0842  2.0955
  134OSM   H15C14492   0.670   5.044   7.158  1.6689 -2.1588  1.9219
  134OSM    C1414493   0.706   5.227   6.942  0.2733  0.2358 -0.0818
  134OSM   H14A14494   0.601   5.239   6.961  0.6274  0.9179  1.5961
  134OSM   H14B14495   0.721   5.257   6.840  1.4540  0.3641  0.1084
  134OSM   H14C14496   0.757   5.292   7.012  1.2432 -1.9387  1.3550
  134OSM    C1314497   0.888   5.077   6.904  0.0417  0.6467  0.1004
  134OSM   H13A14498   0.884   5.091   6.797  0.2793  3.1308  0.3560
  134OSM   H13B14499   0.939   4.983   6.918 -1.0385  0.0395  0.1051
  134OSM   H13C14500   0.952   5.159   6.934 -0.5999  0.5198  1.9032
  134OSM    C1214501   0.658   4.986   6.883  0.3907  0.7724  0.1083
  134OSM   H12A14502   0.573   4.983   6.949  1.1159  0.9287  1.0902
  134OSM   H12B14503   0.708   4.891   6.884  2.2259  1.6771  1.7746
  134OSM    C1114504   0.606   5.024   6.741 -0.0409  0.2490  0.0595
  134OSM   H11A14505   0.576   4.929   6.691  0.2666  0.6487 -0.9082
  134OSM   H11B14506   0.683   5.067   6.674 -0.4026  0.6769 -0.0915
  134OSM      P14507   0.356   5.071   6.792  0.2475 -0.2231 -0.1916
  134OSM    O1314508   0.373   4.961   6.888  0.0752 -0.1333  0.8102
  134OSM    O1414509   0.267   5.180   6.836 -0.2804  0.7804 -0.0519
  134OSM    O1114510   0.293   5.012   6.658  0.1370 -0.5461  0.1545
  134OSM    O1214511   0.500   5.124   6.744  0.2382 -0.4747 -0.7814
  134OSM    C1S14512   0.235   5.080   6.547  0.8236  0.3535 -0.2820
  134OSM    H1S14513   0.220   5.186   6.575 -2.1591  0.0506 -0.5046
  134OSM    H1T14514   0.133   5.042   6.527  1.1069 -1.2001  1.0302
  134OSM     NF14515   0.280   5.185   6.325 -0.1835 -0.3996 -0.0347
  134OSM    HNF14516   0.227   5.152   6.247 -2.4467 -0.6578  1.5311
  134OSM    C2S14517   0.324   5.082   6.420  0.1036 -0.3929  0.6503
  134OSM    H2S14518   0.428   5.105   6.453 -0.1753  1.4668  0.3503
  134OSM    C3S14519   0.323   4.945   6.348 -1.0853 -0.5351 -0.5424
  134OSM    H3S14520   0.224   4.932   6.301 -1.9146  0.4886  0.8484
  134OSM     O314521   0.343   4.830   6.432 -0.2311 -0.7423 -0.4301
  134OSM    HO314522   0.345   4.865   6.521  0.9219  0.6439 -0.9631
  134OSM    C4S14523   0.433   4.955   6.240 -0.3594  0.0995 -1.1359
  134OSM    H4S14524   0.533   4.986   6.272 -0.2075 -2.1001  0.8105
  134OSM    C5S14525   0.409   4.938   6.104 -0.1776 -0.2063 -0.5083
  134OSM    H5S14526   0.311   4.909   6.065 -0.4710 -0.6878  0.5672
  134OSM    C6S14527   0.501   4.976   5.990 -0.1664  0.3042  0.0651
  134OSM    H6S14528   0.476   5.078   5.954 -3.4599 -0.4451 -0.1060
  134OSM    H6T14529   0.487   4.908   5.903 -0.2409 -0.8023  0.9245
  134OSM    C7S14530   0.650   4.977   6.023  0.3322  0.4008 -0.7208
  134OSM    H7S14531   0.670   4.876   6.064  1.7212  0.0923 -2.0566
  134OSM    H7T14532   0.673   5.048   6.105  0.3459 -1.3655  0.8722
  134OSM    C8S14533   0.731   5.005   5.903  0.2720  0.1153  0.2915
  134OSM    H8S14534   0.697   5.105   5.868 -1.9296 -0.7103 -0.0944
  134OSM    H8T14535   0.693   4.927   5.833  0.8035  0.2457 -0.1474
  134OSM    C9S14536   0.875   4.983   5.930 -0.0346  0.2098 -0.1815
  134OSM    H9S14537   0.891   4.876   5.958  0.8751  0.9536  2.3771
  134OSM    H9T14538   0.916   5.039   6.016 -0.4259 -0.1693  0.2580
  134OSM   C10S14539   0.964   5.002   5.803 -0.2275  0.2420 -0.4004
  134OSM   H10S14540   1.066   4.958   5.808  1.8340  4.3930 -1.0810
  134OSM   H10T14541   0.982   5.108   5.777 -0.0567  0.1048 -0.8564
  134OSM   C11S14542   0.903   4.949   5.673 -0.7283  0.1651  0.5502
  134OSM   H11S14543   0.826   5.027   5.655  2.5928  4.0367  1.7773
  134OSM   H11T14544   0.876   4.841   5.683  0.6913 -0.2081  0.6011
  134OSM   C12S14545   0.998   4.956   5.546 -0.4344 -0.3040 -0.1155
  134OSM   H12S14546   1.089   4.895   5.569 -0.2151  0.3498  0.8072
  134OSM   H12T14547   1.038   5.058   5.530 -1.2580  0.4440  2.1378
  134OSM   C13S14548   0.926   4.908   5.430  0.4987  0.1923  0.3661
  134OSM   H13S14549   0.847   4.984   5.407 -1.3032 -1.1150  1.9115
  134OSM   H13T14550   0.877   4.812   5.458 -0.7119  1.3863  2.6940
  134OSM   C14S14551   1.017   4.893   5.301  0.1012  0.8159  0.5140
  134OSM   H14S14552   1.094   4.816   5.324 -0.6581 -0.2310 -0.3256
  134OSM   H14T14553   1.065   4.992   5.288  1.0313  0.4048  0.7109
  134OSM   C15S14554   0.934   4.857   5.181  0.0900 -0.0036  0.3454
  134OSM   H15S14555   0.844   4.922   5.183 -0.6636 -1.0098  0.0040
  134OSM   H15T14556   0.884   4.758   5.185 -0.3299  0.2277  0.8683
  134OSM   C16S14557   1.001   4.851   5.046 -0.1063  0.0698  0.3299
  134OSM   H16S14558   0.943   4.779   4.983 -1.7521  0.4126  1.3880
  134OSM   H16T14559   1.101   4.804   5.056 -0.6415 -2.1635 -2.9492
  134OSM   C17S14560   1.013   4.983   4.974 -0.1561 -0.0483 -0.0126
  134OSM   H17S14561   1.075   5.035   5.050 -0.4709 -1.3013  1.1551
  134OSM   H17T14562   0.913   5.031   4.973  0.7147  1.8644  0.6990
  134OSM   C18S14563   1.090   4.974   4.837  0.3452  0.1365  0.8124
  134OSM   H18S14564   1.124   4.870   4.817  0.3444  0.6865 -2.4707
  134OSM   H18T14565   1.179   5.042   4.839 -1.4614  2.7746 -1.5430
  134OSM   H18U14566   1.020   5.007   4.758 -1.6344  0.3851  2.5634
  134OSM    C1F14567   0.295   5.307   6.356  0.1104 -0.4684  0.2941
  134OSM     OF14568   0.370   5.347   6.448 -0.2773  0.2327 -0.0846
  134OSM    C2F14569   0.215   5.412   6.277  0.6874  0.0433  0.4286
  134OSM    H2F14570   0.225   5.507   6.333  1.5224  0.9768 -1.2363
  134OSM    H2G14571   0.106   5.393   6.265  0.6362  1.2294 -1.2457
  134OSM    C3F14572   0.265   5.425   6.129 -0.5537 -0.3107 -0.1447
  134OSM    H3F14573   0.376   5.429   6.136 -0.5144 -1.5788  0.3294
  134OSM    H3G14574   0.231   5.519   6.081  0.9620  0.0270 -0.6048
  134OSM    C4F14575   0.217   5.306   6.041  0.1719 -0.5426 -0.0897
  134OSM    H4F14576   0.110   5.321   6.017  0.0035 -2.5003 -0.7447
  134OSM    H4G14577   0.243   5.207   6.084 -0.7687 -0.7378  0.0393
  134OSM    C5F14578   0.298   5.301   5.913 -0.0685  0.5048  0.7631
  134OSM    H5F14579   0.287   5.207   5.855  2.1292  0.2899  0.6084
  134OSM    H5G14580   0.406   5.304   5.936  0.6637 -0.0386 -2.1795
  134OSM    C6F14581   0.277   5.416   5.806 -0.0254 -0.1887  0.6001
  134OSM    H6F14582   0.317   5.509   5.851  0.8653 -0.1417 -0.2459
  134OSM    H6G14583   0.168   5.411   5.788  0.1858 -3.5218 -0.4487
  134OSM    C7F14584   0.352   5.392   5.675 -0.0398 -0.9895 -0.3246
  134OSM    H7F14585   0.356   5.285   5.646  1.3686 -1.5321  1.6097
  134OSM    H7G14586   0.459   5.415   5.697 -0.1062 -1.7230  0.8950
  134OSM    C8F14587   0.305   5.482   5.556 -0.0269 -0.2317 -0.4636
  134OSM    H8F14588   0.209   5.451   5.507 -0.3899  0.9989 -0.5679
  134OSM    H8G14589   0.367   5.440   5.474  0.2953 -0.0965 -0.2863
  134OSM    C9F14590   0.312   5.631   5.575  0.2114  0.0938  0.2871
  134OSM    H9F14591   0.317   5.668   5.679  0.1337 -0.3572  0.4542
  134OSM   C10F14592   0.362   5.713   5.472  0.9211 -0.0443 -0.2250
  134OSM   H10F14593   0.355   5.821   5.487  0.3338 -0.2323  0.9324
  134OSM   C11F14594   0.368   5.669   5.324  0.1318 -0.2153 -0.1329
  134OSM   H11F14595   0.299   5.728   5.261 -0.4642 -1.0140 -0.2436
  134OSM   H11G14596   0.345   5.563   5.300  0.4882 -0.0355 -1.3466
  134OSM   C12F14597   0.510   5.670   5.263 -0.1459  0.3034 -0.1045
  134OSM   H12F14598   0.580   5.602   5.317 -1.8603 -1.9511 -0.5735
  134OSM   H12G14599   0.557   5.770   5.278  1.2865 -0.2699 -0.6824
  134OSM   C13F14600   0.509   5.650   5.111  0.4816  0.2510  0.8181
  134OSM   H13F14601   0.458   5.737   5.064 -1.1097 -0.2120  1.5896
  134OSM   H13G14602   0.434   5.568   5.101  1.0026 -0.0641 -0.7175
  134OSM   C14F14603   0.646   5.613   5.053 -0.7086  0.5439 -0.4695
  134OSM   H14F14604   0.695   5.534   5.112 -1.9071  1.7228  2.3193
  134OSM   H14G14605   0.716   5.699   5.065  1.5403 -1.4274  1.4065
  134OSM   C15F14606   0.642   5.562   4.908  0.9915  0.0434  0.0775
  134OSM   H15F14607   0.557   5.493   4.891  0.6622  0.2808  0.7532
  134OSM   H15G14608   0.724   5.491   4.884 -0.3307 -0.7091 -2.6889
  134OSM   C16F14609   0.631   5.678   4.808 -0.4408 -0.4032 -0.2928
  134OSM   H16F14610   0.708   5.757   4.825 -0.1852 -0.5956 -0.5354
  134OSM   H16G14611   0.533   5.728   4.823 -1.1449 -2.0313  0.7639
  134OSM   C17F14612   0.642   5.634   4.663  0.1551  0.2255  0.2555
  134OSM   H17F14613   0.572   5.549   4.651  0.9714 -0.3689 -0.4275
  134OSM   H17G14614   0.747   5.601   4.646 -0.3010 -1.6772  0.9462
  134OSM   C18F14615   0.620   5.742   4.556 -0.1409  0.5301 -0.1511
  134OSM   H18F14616   0.655   5.715   4.454  1.1082  2.3985 -0.2819
  134OSM   H18G14617   0.679   5.832   4.585  0.6712 -0.8838  3.0229
  134OSM   H18H14618   0.516   5.781   4.550 -0.4936 -0.1943  0.9311
  135OSM      N14619   2.191   2.217   6.668  0.5696 -0.8184  0.5441
  135OSM    C1514620   2.272   2.156   6.773 -0.1771  0.1814  0.7702
  135OSM   H15A14621   2.352   2.214   6.816  1.5952 -1.4963 -0.0877
  135OSM   H15B14622   2.326   2.072   6.731 -0.8825  0.7553 -1.3885
  135OSM   H15C14623   2.206   2.119   6.851  1.3516 -0.8429  1.6401
  135OSM    C1414624   2.096   2.312   6.734  0.1990  0.1134  0.2338
  135OSM   H14A14625   2.018   2.249   6.774 -1.6174  1.4859 -0.9985
  135OSM   H14B14626   2.065   2.400   6.680  0.1863  1.2432  1.9931
  135OSM   H14C14627   2.145   2.363   6.816 -0.9518 -0.2736  1.1923
  135OSM    C1314628   2.282   2.301   6.579 -0.3949  0.2482 -0.0676
  135OSM   H13A14629   2.358   2.351   6.637 -0.8103 -0.6709  1.3156
  135OSM   H13B14630   2.225   2.377   6.527 -0.3498 -0.3089 -0.9392
  135OSM   H13C14631   2.331   2.247   6.500 -3.0699 -2.5515  0.0080
  135OSM    C1214632   2.116   2.126   6.577  0.7215  0.7335 -0.4890
  135OSM   H12A14633   2.180   2.047   6.542 -0.7855 -1.4828  1.4582
  135OSM   H12B14634   2.070   2.193   6.505 -1.9949 -0.0322  0.4205
  135OSM    C1114635   2.005   2.036   6.641 -0.4156 -0.0652  0.4345
  135OSM   H11A14636   2.034   1.979   6.731  0.2233  1.0924  0.9903
  135OSM   H11B14637   1.993   1.968   6.555  1.4822  0.9662 -0.7061
  135OSM      P14638   1.759   2.047   6.689 -0.2891 -0.4674  0.0400
  135OSM    O1314639   1.774   1.941   6.795 -0.0267  0.4652  0.8065
  135OSM    O1414640   1.658   2.151   6.707 -0.0322 -0.0594  0.2759
  135OSM    O1114641   1.738   1.973   6.544  0.3859 -0.5204  0.2784
  135OSM    O1214642   1.894   2.116   6.662  0.2113  0.1709  0.0136
  135OSM    C1S14643   1.690   2.057   6.433  0.3568 -0.1077 -0.5251
  135OSM    H1S14644   1.743   2.155   6.440  2.6402 -1.3753  1.4381
  135OSM    H1T14645   1.580   2.072   6.433  0.3294  0.4699 -4.0612
  135OSM     NF14646   1.725   2.086   6.196 -0.2182 -0.4010 -0.0925
  135OSM    HNF14647   1.668   2.052   6.121 -0.5956 -0.1302  0.0646
  135OSM    C2S14648   1.749   1.999   6.304  0.3620  0.2637  0.3737
  135OSM    H2S14649   1.859   1.998   6.314  0.5801  0.8833 -1.5502
  135OSM    C3S14650   1.706   1.851   6.284  0.7910  0.0174 -0.1239
  135OSM    H3S14651   1.595   1.855   6.283  0.7554 -0.8723  0.0365
  135OSM     O314652   1.717   1.756   6.392  0.0629  0.2122  0.2612
  135OSM    HO314653   1.711   1.811   6.471 -0.4702 -1.0572  1.1398
  135OSM    C4S14654   1.737   1.785   6.148 -0.4064  0.5698 -0.3581
  135OSM    H4S14655   1.675   1.809   6.060  0.8325 -1.2186 -1.8026
  135OSM    C5S14656   1.841   1.700   6.127 -0.6434 -0.7702 -0.0400
  135OSM    H5S14657   1.906   1.667   6.210  0.4179 -2.7547 -1.5761
  135OSM    C6S14658   1.874   1.636   5.991  0.3604 -0.2606 -0.1812
  135OSM    H6S14659   1.888   1.527   6.009 -0.0143 -0.1131  1.0549
  135OSM    H6T14660   1.968   1.682   5.953  0.9877  0.7680  2.4452
  135OSM    C7S14661   1.782   1.647   5.864 -1.1016 -1.2886  0.5882
  135OSM    H7S14662   1.749   1.752   5.852  0.4548 -1.0162 -2.0835
  135OSM    H7T14663   1.694   1.583   5.891 -0.5597 -1.2307  2.6873
  135OSM    C8S14664   1.855   1.601   5.741 -0.1450  0.1727 -0.6966
  135OSM    H8S14665   1.918   1.513   5.765 -1.6782 -0.9200 -0.5163
  135OSM    H8T14666   1.925   1.683   5.714 -0.8326  1.1971  0.4982
  135OSM    C9S14667   1.764   1.575   5.608  0.0028  0.2018 -0.2719
  135OSM    H9S14668   1.730   1.675   5.573  1.2066  0.1210 -1.7727
  135OSM    H9T14669   1.673   1.520   5.642  0.9992 -0.4060  1.5952
  135OSM   C10S14670   1.831   1.506   5.491 -0.0390  0.4002 -0.1107
  135OSM   H10S14671   1.857   1.404   5.526 -0.4719  1.2552  2.9846
  135OSM   H10T14672   1.928   1.557   5.471 -0.5673  1.3528 -0.3058
  135OSM   C11S14673   1.754   1.499   5.357  0.0121  0.2202 -0.3950
  135OSM   H11S14674   1.719   1.601   5.330 -1.4240 -0.1429  0.0524
  135OSM   H11T14675   1.665   1.434   5.362  0.1901  0.0431  0.7414
  135OSM   C12S14676   1.834   1.435   5.245 -0.1315 -0.5689  0.1924
  135OSM   H12S14677   1.867   1.337   5.286  3.0641  0.5032  0.4672
  135OSM   H12T14678   1.922   1.498   5.220 -0.4466 -0.3161 -0.2958
  135OSM   C13S14679   1.745   1.411   5.117 -0.8814  0.1652  0.4154
  135OSM   H13S14680   1.700   1.507   5.085 -1.1123  0.5288  1.7908
  135OSM   H13T14681   1.663   1.343   5.147 -1.0577  0.0487 -0.3002
  135OSM   C14S14682   1.835   1.365   4.992  0.0643 -0.0330  0.6572
  135OSM   H14S14683   1.866   1.261   5.014 -0.3785 -0.1403  0.7826
  135OSM   H14T14684   1.928   1.426   4.981 -2.1597  3.2463 -1.7343
  135OSM   C15S14685   1.757   1.367   4.863 -0.3976 -0.1099 -0.4552
  135OSM   H15S14686   1.652   1.337   4.883 -0.3329  0.4765  0.8668
  135OSM   H15T14687   1.782   1.287   4.791 -3.1032 -1.8279  0.3782
  135OSM   C16S14688   1.750   1.507   4.799  0.2625 -0.5613  0.3867
  135OSM   H16S14689   1.854   1.521   4.766  0.4467  1.8349  1.7631
  135OSM   H16T14690   1.716   1.594   4.860  1.1287 -0.8567  1.3069
  135OSM   C17S14691   1.644   1.505   4.690 -0.0180 -0.0260 -0.1087
  135OSM   H17S14692   1.657   1.403   4.648  0.1278  0.4408 -1.2568
  135OSM   H17T14693   1.652   1.583   4.611 -4.0320  1.0729  0.3108
  135OSM   C18S14694   1.497   1.519   4.747 -0.0186 -0.6916  0.1661
  135OSM   H18S14695   1.417   1.508   4.671 -0.6638 -1.3127  0.9219
  135OSM   H18T14696   1.494   1.616   4.802  3.2514 -0.1967 -0.3068
  135OSM   H18U14697   1.480   1.441   4.824 -1.0863  0.0089  0.6680
  135OSM    C1F14698   1.774   2.213   6.193  0.2499  0.5611  0.4211
  135OSM     OF14699   1.873   2.233   6.258 -0.1050 -0.4973  0.2756
  135OSM    C2F14700   1.709   2.298   6.094  0.4178 -0.2245  0.7106
  135OSM    H2F14701   1.604   2.327   6.118  0.0959  0.5037 -1.3083
  135OSM    H2G14702   1.730   2.236   6.004  1.9054  0.1930  0.7456
  135OSM    C3F14703   1.790   2.429   6.085  0.2423 -0.7719 -0.2993
  135OSM    H3F14704   1.899   2.410   6.079  0.3649  0.2279 -1.9850
  135OSM    H3G14705   1.780   2.481   6.183 -0.2144 -2.6310  0.6843
  135OSM    C4F14706   1.738   2.520   5.972 -0.3642 -0.2920 -0.0118
  135OSM    H4F14707   1.803   2.609   5.963  0.4369 -1.0065 -1.8766
  135OSM    H4G14708   1.751   2.464   5.876 -2.1434  1.7442 -1.5569
  135OSM    C5F14709   1.590   2.558   5.987 -0.4360 -0.2539 -0.9490
  135OSM    H5F14710   1.570   2.594   6.090  2.3324 -0.1618 -0.3608
  135OSM    H5G14711   1.528   2.467   5.981 -0.2200 -0.3581 -1.8203
  135OSM    C6F14712   1.539   2.655   5.882  0.1273 -0.2055 -0.7076
  135OSM    H6F14713   1.604   2.744   5.890  1.2220 -1.0793  0.7322
  135OSM    H6G14714   1.434   2.673   5.915  0.1822  1.9629 -1.5934
  135OSM    C7F14715   1.557   2.608   5.736  0.9630  0.4172  0.2257
  135OSM    H7F14716   1.477   2.531   5.729  1.7118 -0.5255  1.4244
  135OSM    H7G14717   1.653   2.553   5.726  1.5241  0.9050  2.3730
  135OSM    C8F14718   1.552   2.716   5.626  0.8725 -0.4516  0.4817
  135OSM    H8F14719   1.475   2.787   5.662  0.2332 -0.4178 -0.8662
  135OSM    H8G14720   1.505   2.666   5.539  1.0878 -2.0312  1.2485
  135OSM    C9F14721   1.666   2.800   5.597 -0.1318  0.1630  0.1768
  135OSM    H9F14722   1.713   2.851   5.682  0.0838 -0.6429  0.5486
  135OSM   C10F14723   1.712   2.817   5.469  0.4039 -0.5080 -0.3104
  135OSM   H10F14724   1.797   2.884   5.451 -1.5223  1.1743 -4.1396
  135OSM   C11F14725   1.671   2.756   5.341 -0.2114  0.5914  0.3505
  135OSM   H11F14726   1.564   2.772   5.316 -0.2742  1.0876  0.9237
  135OSM   H11G14727   1.682   2.647   5.362 -2.8965  0.0853 -0.5688
  135OSM   C12F14728   1.752   2.799   5.218  0.1383  0.0558  0.7975
  135OSM   H12F14729   1.857   2.764   5.227  0.4883  0.9938  0.4931
  135OSM   H12G14730   1.752   2.909   5.198 -0.7107 -0.0267  0.2908
  135OSM   C13F14731   1.696   2.737   5.086  0.1935  0.0163  0.4507
  135OSM   H13F14732   1.587   2.761   5.077  0.4222  1.0379  0.2825
  135OSM   H13G14733   1.696   2.626   5.084 -2.6476 -0.0667 -0.6997
  135OSM   C14F14734   1.756   2.805   4.960  0.4418  0.1650  0.0775
  135OSM   H14F14735   1.836   2.736   4.928 -1.1055 -1.9850  0.6284
  135OSM   H14G14736   1.803   2.900   4.995 -0.9692  0.2060  2.0260
  135OSM   C15F14737   1.658   2.831   4.846 -0.1163  0.8800 -0.3126
  135OSM   H15F14738   1.716   2.873   4.762  1.7432  0.8546  0.9046
  135OSM   H15G14739   1.575   2.896   4.883 -0.2888 -0.6935  2.3242
  135OSM   C16F14740   1.581   2.702   4.807 -0.6493  0.6081 -0.7299
  135OSM   H16F14741   1.512   2.723   4.722  2.3352  0.7735 -3.2595
  135OSM   H16G14742   1.526   2.646   4.886 -0.5236 -1.7003 -2.2158
  135OSM   C17F14743   1.675   2.607   4.733 -0.3248 -1.0964 -0.0317
  135OSM   H17F14744   1.755   2.576   4.803  1.5364 -1.4181 -2.1500
  135OSM   H17G14745   1.731   2.659   4.651  1.1740  0.5242  1.9041
  135OSM   C18F14746   1.605   2.490   4.671 -0.1389  0.0219 -0.5910
  135OSM   H18F14747   1.683   2.415   4.647  0.8067  0.8013 -0.0498
  135OSM   H18G14748   1.548   2.515   4.579 -3.2728 -0.1352  1.1513
  135OSM   H18H14749   1.543   2.456   4.757  0.0678  1.4725  0.1728
  136OSM      N14750   6.006   3.595   7.054 -0.8525 -0.3081 -0.2565
  136OSM    C1514751   5.958   3.739   7.069 -0.5242  0.1783 -0.0687
  136OSM   H15A14752   6.041   3.806   7.054 -0.7690  0.4057 -0.4315
  136OSM   H15B14753   5.925   3.755   7.171 -1.7367 -0.0412 -0.4057
  136OSM   H15C14754   5.876   3.769   7.005 -0.0498 -1.6245 -1.6176
  136OSM    C1414755   6.132   3.583   7.130 -0.0728 -0.0047 -0.0873
  136OSM   H14A14756   6.110   3.594   7.235 -0.7522  1.8571 -0.3811
  136OSM   H14B14757   6.205   3.659   7.102 -0.7077  0.3101 -0.9206
  136OSM   H14C14758   6.169   3.482   7.119  0.7529  0.3020 -0.2211
  136OSM    C1314759   5.915   3.495   7.102 -0.1584  0.0856 -0.1631
  136OSM   H13A14760   5.821   3.484   7.050 -0.7566 -0.7726  1.0396
  136OSM   H13B14761   5.887   3.516   7.205  0.0589  1.2431 -0.3237
  136OSM   H13C14762   5.952   3.394   7.096 -1.8951 -0.5273 -1.1798
  136OSM    C1214763   6.045   3.569   6.911  0.8894 -0.0140  0.3005
  136OSM   H12A14764   6.063   3.462   6.907  2.0346  0.1034  1.6861
  136OSM   H12B14765   6.137   3.619   6.885  1.4098 -1.6149 -1.1240
  136OSM    C1114766   5.942   3.600   6.794 -0.3802 -0.9536  0.5611
  136OSM   H11A14767   5.984   3.556   6.701 -0.0092  1.3134 -0.4051
  136OSM   H11B14768   5.936   3.711   6.788  3.9607 -0.5960  0.1719
  136OSM      P14769   5.783   3.395   6.779 -0.0573 -0.0508  0.1019
  136OSM    O1314770   5.883   3.298   6.825 -0.0878  0.4571 -0.0575
  136OSM    O1414771   5.647   3.364   6.822  0.3129 -0.1475 -0.3714
  136OSM    O1114772   5.782   3.406   6.621  0.1776  0.7043  0.2574
  136OSM    O1214773   5.815   3.546   6.817  0.3439 -0.1099 -1.0227
  136OSM    C1S14774   5.709   3.505   6.554 -0.1630 -0.0034 -0.2919
  136OSM    H1S14775   5.761   3.602   6.568  0.9772 -0.7046  0.5368
  136OSM    H1T14776   5.602   3.515   6.582  0.0805  0.0616  0.6498
  136OSM     NF14777   5.650   3.585   6.333 -0.3196  0.5631  1.1424
  136OSM    HNF14778   5.552   3.588   6.351 -0.2735  0.4049  1.4314
  136OSM    C2S14779   5.710   3.475   6.402 -0.6345  0.3036  0.0338
  136OSM    H2S14780   5.810   3.449   6.361 -0.9728 -2.3079  0.6926
  136OSM    C3S14781   5.644   3.340   6.377  0.0890 -0.0501 -1.1225
  136OSM    H3S14782   5.548   3.343   6.432  0.4662  3.6193 -0.3960
  136OSM     O314783   5.707   3.228   6.428 -0.0503  0.5214 -0.0838
  136OSM    HO314784   5.796   3.263   6.439 -0.2822  0.7124  1.3968
  136OSM    C4S14785   5.618   3.317   6.231 -0.1189  0.5365  0.4073
  136OSM    H4S14786   5.513   3.338   6.207 -0.6157 -3.9538 -2.5460
  136OSM    C5S14787   5.697   3.261   6.139 -0.0463  0.3835 -0.0742
  136OSM    H5S14788   5.800   3.234   6.167 -0.1899  0.2541  0.3433
  136OSM    C6S14789   5.663   3.246   5.994  0.0622 -0.2585  0.0544
  136OSM    H6S14790   5.653   3.139   5.966 -0.3803 -0.5193  1.1744
  136OSM    H6T14791   5.744   3.289   5.931  0.0056  0.3640  0.3992
  136OSM    C7S14792   5.532   3.312   5.945  0.1006 -0.0813 -0.2410
  136OSM    H7S14793   5.519   3.414   5.986 -1.4701 -0.4914  0.3456
  136OSM    H7T14794   5.453   3.253   5.997  0.4877 -0.7928 -0.4387
  136OSM    C8S14795   5.514   3.315   5.793  0.1579  0.3991  0.1303
  136OSM    H8S14796   5.407   3.319   5.763  0.3059  1.1545 -0.3048
  136OSM    H8T14797   5.554   3.219   5.753 -0.1958  1.0611 -1.9611
  136OSM    C9S14798   5.566   3.437   5.716 -0.0695  0.1488  0.0605
  136OSM    H9S14799   5.675   3.423   5.705  0.0862  1.3044 -0.0098
  136OSM    H9T14800   5.540   3.535   5.762 -0.1190 -1.2320  3.2502
  136OSM   C10S14801   5.512   3.446   5.579  0.6645 -0.4313  0.5938
  136OSM   H10S14802   5.563   3.529   5.526 -0.2142 -0.8157 -0.8988
  136OSM   H10T14803   5.404   3.471   5.583  0.7753  0.2179 -0.2412
  136OSM   C11S14804   5.538   3.322   5.496  0.3669 -0.5878  0.2895
  136OSM   H11S14805   5.511   3.228   5.549 -0.1293 -0.4785  0.2376
  136OSM   H11T14806   5.648   3.315   5.489  0.3563 -0.6065  0.1377
  136OSM   C12S14807   5.470   3.323   5.360  0.1638 -0.2627  0.0786
  136OSM   H12S14808   5.359   3.318   5.369 -0.2002 -0.8493 -3.3276
  136OSM   H12T14809   5.514   3.245   5.294  1.3596 -0.9069  1.5841
  136OSM   C13S14810   5.493   3.462   5.289  0.3472 -0.0013  0.8076
  136OSM   H13S14811   5.601   3.481   5.304  0.5256 -0.3746  0.0544
  136OSM   H13T14812   5.434   3.538   5.343  0.8803  0.7541  0.3406
  136OSM   C14S14813   5.452   3.467   5.143  0.4845  0.7722  0.3175
  136OSM   H14S14814   5.439   3.573   5.112 -0.8623  0.9625  1.4370
  136OSM   H14T14815   5.353   3.417   5.134  0.9363 -0.4675  1.8668
  136OSM   C15S14816   5.547   3.391   5.045  0.1686  0.3591  0.2389
  136OSM   H15S14817   5.540   3.281   5.058 -0.6830  0.4893  1.0466
  136OSM   H15T14818   5.649   3.429   5.065  0.0560  0.5272  0.5033
  136OSM   C16S14819   5.506   3.405   4.889  0.7692  0.0543  0.2973
  136OSM   H16S14820   5.454   3.503   4.880  0.3740 -0.2750 -1.2706
  136OSM   H16T14821   5.424   3.331   4.877  0.5479  0.5757 -1.7523
  136OSM   C17S14822   5.616   3.378   4.789 -0.4111  0.6229 -0.1644
  136OSM   H17S14823   5.712   3.414   4.832  0.3836  0.4461 -1.6952
  136OSM   H17T14824   5.598   3.424   4.689 -0.3334  0.2957 -0.3303
  136OSM   C18S14825   5.648   3.229   4.760 -0.3888  0.9901  0.0219
  136OSM   H18S14826   5.717   3.218   4.673 -2.3168 -1.8303 -1.3200
  136OSM   H18T14827   5.556   3.171   4.738  0.3703 -1.5218  2.8320
  136OSM   H18U14828   5.698   3.176   4.843 -0.5952 -1.0207 -1.0758
  136OSM    C1F14829   5.727   3.696   6.303 -0.1583  0.9784 -0.2374
  136OSM     OF14830   5.848   3.700   6.327 -0.1671  0.0895 -0.0645
  136OSM    C2F14831   5.645   3.811   6.245  0.1078 -1.0736 -0.1120
  136OSM    H2F14832   5.632   3.893   6.318 -1.2059 -0.4050 -1.0410
  136OSM    H2G14833   5.540   3.780   6.227 -0.3342  0.8188 -1.1178
  136OSM    C3F14834   5.715   3.876   6.116  0.3128  0.0867 -0.2182
  136OSM    H3F14835   5.822   3.900   6.133  0.1035  0.9732 -0.0518
  136OSM    H3G14836   5.663   3.973   6.097  0.0863  0.2467  1.1060
  136OSM    C4F14837   5.686   3.806   5.991 -0.4529  0.0708 -0.0675
  136OSM    H4F14838   5.577   3.805   5.973 -0.3584 -1.6225 -0.7429
  136OSM    H4G14839   5.714   3.700   6.014 -0.5754  0.2011  0.7040
  136OSM    C5F14840   5.748   3.866   5.855 -0.5351 -0.2801  0.8088
  136OSM    H5F14841   5.859   3.858   5.867 -0.5384 -1.3130  0.2327
  136OSM    H5G14842   5.712   3.970   5.839 -2.4883 -1.0635 -0.2153
  136OSM    C6F14843   5.706   3.786   5.731 -0.1406 -0.5190  0.2785
  136OSM    H6F14844   5.596   3.782   5.713 -0.4506  1.2660  1.4628
  136OSM    H6G14845   5.739   3.680   5.737 -1.2059 -0.9176 -0.4192
  136OSM    C7F14846   5.773   3.844   5.606 -0.2505  0.0946  0.3900
  136OSM    H7F14847   5.880   3.847   5.638 -0.5777  0.4392  1.5128
  136OSM    H7G14848   5.735   3.948   5.594 -0.2002 -0.1587 -2.8495
  136OSM    C8F14849   5.754   3.761   5.472 -0.7947 -0.3468 -0.0046
  136OSM    H8F14850   5.785   3.655   5.479 -0.9849 -0.4349 -0.4865
  136OSM    H8G14851   5.820   3.813   5.399 -0.5967  0.3097  0.6298
  136OSM    C9F14852   5.614   3.774   5.421  0.1290  0.8321 -0.5162
  136OSM    H9F14853   5.545   3.757   5.505  1.9877  1.0040  1.1075
  136OSM   C10F14854   5.568   3.848   5.316  0.0077  0.1462 -0.1502
  136OSM   H10F14855   5.458   3.842   5.314 -0.1184  1.9753 -1.1783
  136OSM   C11F14856   5.646   3.897   5.197 -0.6865  0.2594 -0.7025
  136OSM   H11F14857   5.748   3.854   5.196 -1.0052 -0.6408  1.4381
  136OSM   H11G14858   5.656   4.007   5.182  1.1630  0.1875 -0.2260
  136OSM   C12F14859   5.575   3.843   5.071  0.0732  0.1030  0.0099
  136OSM   H12F14860   5.476   3.890   5.053 -0.0314  1.0471  2.6530
  136OSM   H12G14861   5.569   3.732   5.084 -0.8580  0.2127  0.6700
  136OSM   C13F14862   5.649   3.882   4.948 -0.0181  0.1312  0.8619
  136OSM   H13F14863   5.760   3.887   4.958  0.2398  0.9529 -1.7379
  136OSM   H13G14864   5.621   3.983   4.913  5.5370  1.0558 -2.0392
  136OSM   C14F14865   5.614   3.780   4.841 -0.0107 -0.3886  0.3430
  136OSM   H14F14866   5.503   3.773   4.846  0.0214 -1.7434 -0.5404
  136OSM   H14G14867   5.648   3.680   4.873  0.4612  0.0259  1.1814
  136OSM   C15F14868   5.665   3.811   4.703 -0.0762  0.6048  0.6488
  136OSM   H15F14869   5.775   3.825   4.714  0.5375 -3.0522  0.2890
  136OSM   H15G14870   5.628   3.904   4.655  0.1986  0.7438  0.7009
  136OSM   C16F14871   5.642   3.698   4.602  0.1620 -0.4437 -0.0623
  136OSM   H16F14872   5.532   3.687   4.596  0.1707 -0.3753 -0.3368
  136OSM   H16G14873   5.703   3.615   4.645  0.7267 -0.9806 -1.8314
  136OSM   C17F14874   5.713   3.731   4.464 -0.0773  0.0191 -0.0295
  136OSM   H17F14875   5.723   3.634   4.410 -1.3122  1.7418 -3.6753
  136OSM   H17G14876   5.807   3.787   4.481  0.9181 -1.8602  0.9015
  136OSM   C18F14877   5.616   3.815   4.372 -0.4968  0.0889 -0.9488
  136OSM   H18F14878   5.520   3.760   4.361 -1.1135  0.3885  2.1174
  136OSM   H18G14879   5.670   3.841   4.278  0.0394  2.5826 -0.0333
  136OSM   H18H14880   5.587   3.914   4.413 -1.9874 -0.1738 -1.2929
  137OSM      N14881   1.309   2.448   7.165 -0.6989  1.0630  0.5513
  137OSM    C1514882   1.450   2.485   7.123  0.0362 -0.2657 -0.2021
  137OSM   H15A14883   1.485   2.432   7.035  2.5604  0.8478  0.0571
  137OSM   H15B14884   1.517   2.481   7.208 -0.4434  0.7352  0.2303
  137OSM   H15C14885   1.439   2.585   7.084 -0.0260 -0.9847 -2.1351
  137OSM    C1414886   1.288   2.299   7.152 -0.3024 -0.1100  0.5112
  137OSM   H14A14887   1.191   2.260   7.181 -0.7326 -0.0185 -0.7390
  137OSM   H14B14888   1.356   2.250   7.219  1.0346  0.7873 -0.1460
  137OSM   H14C14889   1.309   2.264   7.052  0.4593  3.9143 -0.9051
  137OSM    C1314890   1.279   2.497   7.299 -0.4848 -0.1538  0.2430
  137OSM   H13A14891   1.296   2.604   7.302  0.1806 -0.2723  1.3080
  137OSM   H13B14892   1.350   2.454   7.369 -0.7413  0.7195  1.0566
  137OSM   H13C14893   1.178   2.485   7.335  0.3951  0.2281  3.1279
  137OSM    C1214894   1.220   2.516   7.067 -0.1915 -0.0181  0.1018
  137OSM   H12A14895   1.246   2.620   7.077  1.3151 -0.5387  1.9881
  137OSM   H12B14896   1.118   2.509   7.102 -0.0301 -2.4304  0.2981
  137OSM    C1114897   1.220   2.470   6.916 -0.7068 -0.4563 -0.3668
  137OSM   H11A14898   1.141   2.526   6.862 -1.8536  1.2148  2.7891
  137OSM   H11B14899   1.176   2.368   6.919  1.0799 -1.2571  2.4630
  137OSM      P14900   1.411   2.591   6.781 -0.5274 -0.7242  0.5115
  137OSM    O1314901   1.398   2.715   6.861 -0.0946 -0.3121 -0.7328
  137OSM    O1414902   1.547   2.553   6.733  0.0128  0.7581  0.2405
  137OSM    O1114903   1.315   2.617   6.659  0.3263  0.7646 -0.0061
  137OSM    O1214904   1.352   2.465   6.859  0.1835  0.0789 -0.6492
  137OSM    C1S14905   1.320   2.737   6.585 -0.7409  0.7857  0.3601
  137OSM    H1S14906   1.410   2.740   6.520 -2.2595  2.0102 -1.8337
  137OSM    H1T14907   1.332   2.827   6.649  1.6008  1.0146 -0.3151
  137OSM     NF14908   1.221   2.870   6.406  0.0698 -0.1902  0.5226
  137OSM    HNF14909   1.160   2.948   6.418 -1.3437 -1.1007 -0.5090
  137OSM    C2S14910   1.204   2.757   6.488  1.1354 -0.5511 -0.9130
  137OSM    H2S14911   1.199   2.674   6.415 -0.2297 -0.3003 -1.1405
  137OSM    C3S14912   1.072   2.754   6.555 -1.0447 -0.4668 -0.1398
  137OSM    H3S14913   1.068   2.836   6.629  0.8910 -1.0568  0.6818
  137OSM     O314914   1.050   2.633   6.631 -0.0727 -0.5930  0.0827
  137OSM    HO314915   1.135   2.593   6.649  0.4217 -0.8054 -2.4409
  137OSM    C4S14916   0.965   2.774   6.447  1.0759 -0.7074 -0.1833
  137OSM    H4S14917   0.946   2.880   6.426 -1.7875 -1.0943  0.1215
  137OSM    C5S14918   0.909   2.677   6.375  0.2225 -1.0120  0.6050
  137OSM    H5S14919   0.931   2.572   6.399 -1.0858 -1.2454  0.8558
  137OSM    C6S14920   0.822   2.704   6.257  0.0850  0.2397  0.6675
  137OSM    H6S14921   0.718   2.678   6.284  0.7111 -0.9796  1.9688
  137OSM    H6T14922   0.862   2.636   6.178  0.2132 -1.9280  2.5101
  137OSM    C7S14923   0.810   2.847   6.206 -0.9268 -0.5574 -0.3344
  137OSM    H7S14924   0.912   2.890   6.207 -0.6653 -1.1279  1.4486
  137OSM    H7T14925   0.750   2.915   6.270 -1.0973 -1.8142  0.9000
  137OSM    C8S14926   0.744   2.858   6.068  0.2727 -0.8095  0.2598
  137OSM    H8S14927   0.713   2.963   6.049  2.1311 -0.8392 -3.9685
  137OSM    H8T14928   0.649   2.801   6.075 -1.1599  1.3880 -0.2343
  137OSM    C9S14929   0.822   2.811   5.945 -0.4467 -0.1429 -0.1125
  137OSM    H9S14930   0.835   2.700   5.947 -0.6030 -0.1566  0.5441
  137OSM    H9T14931   0.923   2.857   5.938  0.3340 -1.6927  0.4468
  137OSM   C10S14932   0.756   2.856   5.815 -0.0858 -0.1490 -0.2026
  137OSM   H10S14933   0.760   2.962   5.783  2.5701 -1.1168 -3.7899
  137OSM   H10T14934   0.653   2.814   5.818  0.3175 -1.1880  2.5534
  137OSM   C11S14935   0.817   2.787   5.690  0.0756  0.1610  0.4296
  137OSM   H11S14936   0.776   2.684   5.683  1.1438 -0.4531  2.2868
  137OSM   H11T14937   0.927   2.782   5.704 -0.0307 -0.8296  1.0832
  137OSM   C12S14938   0.779   2.855   5.557  0.0439 -0.0257 -0.5984
  137OSM   H12S14939   0.805   2.964   5.561 -2.0681  0.5455 -1.3165
  137OSM   H12T14940   0.668   2.861   5.554 -0.0476  0.0499  1.2822
  137OSM   C13S14941   0.844   2.791   5.435  0.6202 -0.0812 -0.0324
  137OSM   H13S14942   0.822   2.683   5.442  0.2115 -0.3246 -3.4750
  137OSM   H13T14943   0.953   2.816   5.435  0.1097  2.6147 -1.6116
  137OSM   C14S14944   0.789   2.844   5.298  0.2758  0.1045 -0.4440
  137OSM   H14S14945   0.807   2.954   5.302 -1.1155  0.3023  1.7012
  137OSM   H14T14946   0.681   2.822   5.287 -0.2277  1.3962  1.4199
  137OSM   C15S14947   0.872   2.789   5.182 -0.6427  0.2189 -0.1220
  137OSM   H15S14948   0.874   2.678   5.190 -0.6399  0.0953 -1.5680
  137OSM   H15T14949   0.977   2.814   5.208 -0.7857 -1.3201  2.1899
  137OSM   C16S14950   0.834   2.819   5.038 -0.2710  0.7225 -0.0426
  137OSM   H16S14951   0.827   2.930   5.040  1.2402  0.8366  1.5566
  137OSM   H16T14952   0.727   2.793   5.025 -0.8387  1.4561  2.5053
  137OSM   C17S14953   0.925   2.755   4.938 -0.0057  0.8729 -0.2393
  137OSM   H17S14954   0.923   2.646   4.957  0.2722  1.1147  1.3428
  137OSM   H17T14955   1.033   2.782   4.946  0.3567 -0.0535 -1.6612
  137OSM   C18S14956   0.872   2.794   4.799 -0.2919 -0.0451 -0.7777
  137OSM   H18S14957   0.934   2.743   4.722 -1.9265 -0.7847 -1.6609
  137OSM   H18T14958   0.877   2.903   4.780  2.3792  0.4660  1.9790
  137OSM   H18U14959   0.767   2.757   4.801 -0.3117 -0.0543 -1.6743
  137OSM    C1F14960   1.318   2.875   6.300  0.4704  0.3557 -0.2771
  137OSM     OF14961   1.407   2.789   6.278  0.1625 -0.5285 -0.3658
  137OSM    C2F14962   1.295   2.991   6.206 -0.4739  0.2515 -0.0025
  137OSM    H2F14963   1.332   3.083   6.256 -0.2232  0.0953  0.1010
  137OSM    H2G14964   1.189   3.018   6.188  0.5585  4.5009 -0.9796
  137OSM    C3F14965   1.367   2.972   6.063  0.6524  0.1153  0.0292
  137OSM    H3F14966   1.320   2.877   6.029  0.5750  0.3244 -0.4436
  137OSM    H3G14967   1.478   2.961   6.063  0.9982  2.8473 -0.7200
  137OSM    C4F14968   1.344   3.092   5.970  0.2559  0.3448  0.3014
  137OSM    H4F14969   1.395   3.178   6.019  3.0707 -1.6659  1.1989
  137OSM    H4G14970   1.238   3.119   5.955  0.4351  0.3455 -1.1905
  137OSM    C5F14971   1.389   3.070   5.823  0.2787  0.4471  0.3156
  137OSM    H5F14972   1.334   2.981   5.786 -0.1545  0.1555  1.5958
  137OSM    H5G14973   1.497   3.043   5.824  0.2870  0.4942  0.6494
  137OSM    C6F14974   1.371   3.189   5.732 -0.5427  0.1064  0.3417
  137OSM    H6F14975   1.444   3.260   5.777  0.1640  0.2071 -0.9213
  137OSM    H6G14976   1.275   3.242   5.747 -0.0808  0.4899  2.2233
  137OSM    C7F14977   1.406   3.163   5.593 -0.1617 -0.9303  0.1697
  137OSM    H7F14978   1.510   3.128   5.584 -0.4353 -1.8062  0.3457
  137OSM    H7G14979   1.392   3.265   5.551 -1.2529 -1.1800 -0.1198
  137OSM    C8F14980   1.309   3.066   5.526  0.1915 -0.1818 -0.0279
  137OSM    H8F14981   1.210   3.103   5.560 -0.0932 -2.5891  1.9853
  137OSM    H8G14982   1.300   2.970   5.582  1.3482 -0.9501 -1.1025
  137OSM    C9F14983   1.336   3.036   5.378 -0.4061  0.5508 -0.1562
  137OSM    H9F14984   1.441   3.014   5.355 -0.4666  1.1785 -1.0846
  137OSM   C10F14985   1.257   3.057   5.270  0.3846  0.2970 -0.5935
  137OSM   H10F14986   1.281   3.014   5.172  1.1290  0.9412 -0.6962
  137OSM   C11F14987   1.112   3.094   5.287  0.1491 -0.2367 -0.0001
  137OSM   H11F14988   1.090   3.176   5.358 -0.8643  0.1584 -0.7436
  137OSM   H11G14989   1.066   3.009   5.340  0.7511 -0.4218  0.2274
  137OSM   C12F14990   1.051   3.131   5.144  0.4439  0.3629  0.0874
  137OSM   H12F14991   0.943   3.115   5.166  0.6871 -0.8293  0.5251
  137OSM   H12G14992   1.094   3.054   5.076  3.1773  0.7002  1.3274
  137OSM   C13F14993   1.077   3.273   5.099  0.5144 -0.1149 -0.4858
  137OSM   H13F14994   1.177   3.312   5.126  0.8106 -0.5621 -0.9077
  137OSM   H13G14995   1.011   3.335   5.163  2.0392 -0.6774  1.7219
  137OSM   C14F14996   1.060   3.298   4.948 -0.1913 -0.7994 -0.2256
  137OSM   H14F14997   1.145   3.247   4.899  0.7254  0.0615  0.4420
  137OSM   H14G14998   1.071   3.408   4.938 -0.4961 -0.6481  0.9487
  137OSM   C15F14999   0.926   3.250   4.886 -0.3538  0.4762  0.7222
  137OSM   H15F15000   0.839   3.278   4.949 -0.8985 -0.9413  0.6389
  137OSM   H15G15001   0.924   3.139   4.893 -2.3226  0.1980 -2.4300
  137OSM   C16F15002   0.901   3.284   4.739  0.4174 -0.4816 -1.2093
  137OSM   H16F15003   0.866   3.386   4.710 -0.3210 -0.5263 -0.5058
  137OSM   H16G15004   0.823   3.213   4.706  0.0786  0.1596 -1.8421
  137OSM   C17F15005   1.023   3.247   4.647  0.3035  0.5135 -0.2297
  137OSM   H17F15006   1.040   3.139   4.666 -1.4805  0.3825  0.9763
  137OSM   H17G15007   1.108   3.315   4.666 -0.9482  2.1982 -0.3779
  137OSM   C18F15008   0.991   3.268   4.495 -0.5812  0.0333 -0.2386
  137OSM   H18F15009   1.064   3.224   4.423  0.3466 -0.0944  0.7541
  137OSM   H18G15010   0.989   3.378   4.478 -1.0781  0.0705  0.0582
  137OSM   H18H15011   0.889   3.233   4.468 -1.8132  1.6854  1.9686
  138OSM      N15012   5.336   1.525   6.870 -0.4556 -0.0520  0.1393
  138OSM    C1515013   5.376   1.665   6.904  0.1112  0.2417  0.0177
  138OSM   H15A15014   5.471   1.664   6.956  2.3097  0.7464 -3.6866
  138OSM   H15B15015   5.299   1.709   6.966 -0.8065 -1.0497 -0.1772
  138OSM   H15C15016   5.383   1.734   6.821  2.5005  0.3946  0.2917
  138OSM    C1415017   5.424   1.481   6.754  0.6079  0.2839 -0.1224
  138OSM   H14A15018   5.407   1.377   6.733 -3.7540  1.0248 -1.3209
  138OSM   H14B15019   5.524   1.497   6.791 -0.3923  1.6469  2.1804
  138OSM   H14C15020   5.409   1.540   6.664  0.8028  2.5231  1.2258
  138OSM    C1315021   5.352   1.432   6.986  0.6344 -0.4935 -0.0007
  138OSM   H13A15022   5.285   1.462   7.066 -2.2234 -1.3105 -1.9343
  138OSM   H13B15023   5.451   1.439   7.028  0.8655 -0.0690 -0.6182
  138OSM   H13C15024   5.336   1.330   6.952  1.7876 -1.7284  2.8306
  138OSM    C1215025   5.189   1.519   6.834 -0.2894  0.6544 -0.3646
  138OSM   H12A15026   5.131   1.577   6.905 -4.5457 -3.2167 -0.2218
  138OSM   H12B15027   5.155   1.420   6.858  0.6608  0.3820 -0.1254
  138OSM    C1115028   5.149   1.570   6.692 -0.1874  0.3426  0.2448
  138OSM   H11A15029   5.042   1.540   6.686  0.0281 -0.2683 -0.8410
  138OSM   H11B15030   5.198   1.536   6.598 -3.0507  2.7646 -2.3482
  138OSM      P15031   5.055   1.806   6.732  0.1982  0.1664  0.2295
  138OSM    O1315032   4.983   1.744   6.843 -0.2999 -0.0250  0.1549
  138OSM    O1415033   5.110   1.943   6.735  0.2523 -0.3709  0.2994
  138OSM    O1115034   4.961   1.805   6.600 -0.2578 -0.0752  0.0877
  138OSM    O1215035   5.170   1.706   6.688 -0.3867  0.3027 -0.4450
  138OSM    C1S15036   5.007   1.852   6.475 -0.0332  0.2132 -0.4705
  138OSM    H1S15037   5.116   1.875   6.477 -0.0032  0.3153  3.1377
  138OSM    H1T15038   4.953   1.946   6.448  0.8145  1.0885  0.7635
  138OSM     NF15039   5.036   1.805   6.232  0.4112 -0.0419  0.4568
  138OSM    HNF15040   4.972   1.860   6.178  0.6763 -1.1905 -1.1107
  138OSM    C2S15041   4.975   1.761   6.354  0.5379  0.3937  0.2161
  138OSM    H2S15042   5.021   1.661   6.372  0.3696  0.0611 -1.1375
  138OSM    C3S15043   4.821   1.751   6.348  0.8086  0.1023 -0.5565
  138OSM    H3S15044   4.790   1.856   6.332 -0.5134 -0.6027 -3.2568
  138OSM     O315045   4.751   1.710   6.466 -0.9384  0.6929  0.0017
  138OSM    HO315046   4.806   1.720   6.544 -0.2710 -1.9053 -0.0484
  138OSM    C4S15047   4.777   1.665   6.231  0.5701 -0.4301  0.8771
  138OSM    H4S15048   4.808   1.559   6.231  1.2040 -0.2484  0.3424
  138OSM    C5S15049   4.689   1.709   6.141 -0.6357 -0.1704  0.3803
  138OSM    H5S15050   4.656   1.814   6.138 -2.5972 -0.7597 -2.3696
  138OSM    C6S15051   4.647   1.628   6.020 -0.5476 -0.7487 -0.3095
  138OSM    H6S15052   4.536   1.641   6.020 -0.5968  0.5856  4.0585
  138OSM    H6T15053   4.668   1.522   6.041 -1.6554 -0.8888  0.1876
  138OSM    C7S15054   4.691   1.692   5.886 -0.0322 -0.5040  0.0781
  138OSM    H7S15055   4.802   1.688   5.891  0.0004 -1.6431 -1.0245
  138OSM    H7T15056   4.646   1.793   5.878 -2.0001 -1.2655  0.8682
  138OSM    C8S15057   4.644   1.612   5.764  0.0001  0.2250  0.5533
  138OSM    H8S15058   4.538   1.579   5.772  0.5656 -1.5537  1.2716
  138OSM    H8T15059   4.690   1.512   5.776 -0.1696 -0.1446 -1.4340
  138OSM    C9S15060   4.672   1.670   5.628 -0.0168 -0.2352 -1.0387
  138OSM    H9S15061   4.778   1.702   5.632 -0.2972  0.6243  1.0433
  138OSM    H9T15062   4.615   1.765   5.619 -3.3256 -2.1191 -1.4527
  138OSM   C10S15063   4.641   1.576   5.516  0.5975 -0.0175  0.5889
  138OSM   H10S15064   4.530   1.565   5.514  0.1688  3.0985  1.4914
  138OSM   H10T15065   4.678   1.472   5.520  1.0771  0.1708  1.4039
  138OSM   C11S15066   4.682   1.637   5.377 -0.9261  0.4154 -0.2729
  138OSM   H11S15067   4.792   1.645   5.366 -1.0373  1.6906 -0.5131
  138OSM   H11T15068   4.645   1.741   5.369 -0.3737  0.4877 -2.3643
  138OSM   C12S15069   4.645   1.565   5.246 -0.0631 -0.5071  0.5450
  138OSM   H12S15070   4.669   1.637   5.165 -0.7786  2.4590  2.8072
  138OSM   H12T15071   4.535   1.556   5.249 -0.3475  1.6914 -0.7474
  138OSM   C13S15072   4.731   1.441   5.215 -0.1371 -0.4763 -1.0009
  138OSM   H13S15073   4.712   1.365   5.293 -0.0345  0.1859 -0.3209
  138OSM   H13T15074   4.836   1.478   5.223 -0.9264  1.4948  1.3278
  138OSM   C14S15075   4.701   1.375   5.082 -0.0361  0.5885  0.1692
  138OSM   H14S15076   4.592   1.360   5.064  0.3221  0.4790 -2.1778
  138OSM   H14T15077   4.738   1.271   5.095  2.2852  1.2361 -0.7904
  138OSM   C15S15078   4.762   1.451   4.958 -0.2298  0.1603 -0.3096
  138OSM   H15S15079   4.871   1.469   4.972 -0.0349 -0.4864 -0.8989
  138OSM   H15T15080   4.705   1.544   4.942 -0.9203 -0.5865 -2.7508
  138OSM   C16S15081   4.738   1.379   4.824 -0.2389  0.1999  0.4578
  138OSM   H16S15082   4.630   1.355   4.810  0.9398 -4.6683 -2.6749
  138OSM   H16T15083   4.779   1.276   4.828 -0.7977 -0.0566 -0.3188
  138OSM   C17S15084   4.785   1.451   4.698 -0.7043  0.0991 -0.2844
  138OSM   H17S15085   4.891   1.482   4.701 -1.3721  2.6932 -1.2136
  138OSM   H17T15086   4.716   1.538   4.691 -1.8615 -0.7867 -0.3334
  138OSM   C18S15087   4.769   1.358   4.577 -0.4651  0.0776 -0.9476
  138OSM   H18S15088   4.815   1.260   4.599 -0.5255  0.8921  3.9173
  138OSM   H18T15089   4.804   1.407   4.483  0.0083 -0.0155 -0.8199
  138OSM   H18U15090   4.661   1.345   4.554 -0.2434 -0.6655 -1.6190
  138OSM    C1F15091   5.165   1.785   6.205  0.2760  0.3361 -0.1673
  138OSM     OF15092   5.243   1.750   6.291  0.1538 -0.5684  0.0487
  138OSM    C2F15093   5.205   1.787   6.057 -0.7374 -0.2283 -0.2274
  138OSM    H2F15094   5.238   1.892   6.040 -0.3338 -0.4839 -1.1185
  138OSM    H2G15095   5.118   1.765   5.991 -1.2589 -1.6304  0.8638
  138OSM    C3F15096   5.317   1.688   6.023 -0.2398 -0.2026  0.1322
  138OSM    H3F15097   5.295   1.587   6.063  0.5047  0.0039  1.1090
  138OSM    H3G15098   5.408   1.720   6.078 -0.2151  0.5061 -0.3133
  138OSM    C4F15099   5.355   1.680   5.875  0.8995 -0.6217  0.2220
  138OSM    H4F15100   5.393   1.782   5.850  0.5806 -0.1439  1.5942
  138OSM    H4G15101   5.253   1.675   5.832 -0.4762  0.8064  3.0481
  138OSM    C5F15102   5.451   1.564   5.838  0.0016 -0.0513 -0.2165
  138OSM    H5F15103   5.415   1.462   5.863 -0.6621 -0.5336 -2.8332
  138OSM    H5G15104   5.553   1.570   5.879 -0.1853 -1.4596  0.5136
  138OSM    C6F15105   5.473   1.580   5.686 -0.1536  0.2261  0.4336
  138OSM    H6F15106   5.511   1.682   5.663  4.1501 -1.7139 -2.0973
  138OSM    H6G15107   5.379   1.574   5.626  1.5523  1.5729 -2.5768
  138OSM    C7F15108   5.575   1.483   5.623  0.1264  0.0502 -0.3992
  138OSM    H7F15109   5.559   1.378   5.658  1.7235  0.6878  2.5208
  138OSM    H7G15110   5.674   1.500   5.668  0.0892 -1.0492  0.1255
  138OSM    C8F15111   5.588   1.484   5.468 -1.3109  0.0916  0.0919
  138OSM    H8F15112   5.686   1.438   5.447 -1.9762 -2.2964  1.7950
  138OSM    H8G15113   5.588   1.588   5.430 -0.7382  0.2927  0.6167
  138OSM    C9F15114   5.485   1.399   5.400 -0.1990  0.4421 -0.2573
  138OSM    H9F15115   5.389   1.452   5.392 -0.5078 -0.2388 -1.2443
  138OSM   C10F15116   5.498   1.277   5.340  0.3870 -0.2840  0.5301
  138OSM   H10F15117   5.401   1.242   5.302  0.4659 -0.7952  0.7856
  138OSM   C11F15118   5.619   1.195   5.323 -0.2212  0.5268 -0.1504
  138OSM   H11F15119   5.598   1.090   5.352  0.8073  0.1551 -0.6866
  138OSM   H11G15120   5.701   1.220   5.393  0.2238  1.2948 -0.9273
  138OSM   C12F15121   5.684   1.215   5.185  0.0999 -0.6749  0.1645
  138OSM   H12F15122   5.707   1.322   5.166  0.2809 -0.8907 -0.8815
  138OSM   H12G15123   5.621   1.192   5.097 -0.5441  1.0319  0.1399
  138OSM   C13F15124   5.811   1.130   5.162 -0.3329  0.1344 -0.1198
  138OSM   H13F15125   5.776   1.025   5.172 -0.5973 -0.0176 -2.3032
  138OSM   H13G15126   5.873   1.156   5.250 -1.0233 -0.6549  0.6186
  138OSM   C14F15127   5.876   1.143   5.023  1.4555  0.0868  0.0534
  138OSM   H14F15128   5.862   1.249   4.994 -1.9031 -0.5193 -0.9516
  138OSM   H14G15129   5.810   1.091   4.951 -0.5393  1.0083  1.1249
  138OSM   C15F15130   6.018   1.098   5.007  0.1474 -0.4351 -0.4883
  138OSM   H15F15131   6.075   1.168   5.073 -1.7926  2.2643 -1.5039
  138OSM   H15G15132   6.064   1.114   4.907 -0.4892 -0.3517 -0.7733
  138OSM   C16F15133   6.040   0.952   5.051 -0.6413 -0.1086  0.3744
  138OSM   H16F15134   6.031   0.950   5.162 -1.2495  0.9816  0.3609
  138OSM   H16G15135   6.139   0.923   5.011 -1.7627  0.5165 -3.1863
  138OSM   C17F15136   5.944   0.850   4.990  0.0907  0.0029  0.0707
  138OSM   H17F15137   5.914   0.878   4.886 -1.5681 -0.4753  0.3857
  138OSM   H17G15138   5.853   0.874   5.049 -0.0028 -0.0215 -0.0633
  138OSM   C18F15139   5.986   0.699   4.993 -0.0367  0.2853 -0.5882
  138OSM   H18F15140   6.036   0.677   5.089 -1.2883 -0.4911 -0.0884
  138OSM   H18G15141   6.053   0.683   4.905 -2.5463  0.9210 -2.7558
  138OSM   H18H15142   5.898   0.633   4.976 -0.9009  0.8426  1.4788
  139OSM      N15143   5.989   4.398   6.697  0.0888 -0.5886 -0.5339
  139OSM    C1515144   5.987   4.247   6.673 -0.0693 -0.4400 -0.6615
  139OSM   H15A15145   6.066   4.206   6.735  0.2969  2.4390  0.9670
  139OSM   H15B15146   5.998   4.225   6.568  3.0698 -0.4723 -0.4206
  139OSM   H15C15147   5.890   4.213   6.705  0.0978 -0.6523 -0.3805
  139OSM    C1415148   6.014   4.429   6.839 -0.2216  0.3785 -0.9507
  139OSM   H14A15149   5.934   4.392   6.902  1.4837  0.6532  1.5416
  139OSM   H14B15150   6.015   4.536   6.850 -0.2244  0.3250 -0.4140
  139OSM   H14C15151   6.105   4.381   6.872  0.0485  0.2000 -1.9369
  139OSM    C1315152   6.104   4.464   6.615  0.9484 -0.0407 -0.3181
  139OSM   H13A15153   6.103   4.572   6.625  1.5791 -0.2328  3.2601
  139OSM   H13B15154   6.103   4.440   6.510  0.8333 -0.8709 -0.1352
  139OSM   H13C15155   6.197   4.424   6.653 -0.4237 -1.2066  2.0493
  139OSM    C1215156   5.863   4.449   6.644  0.8356  0.9043  0.2136
  139OSM   H12A15157   5.781   4.386   6.674  1.4804  0.3379  0.7999
  139OSM   H12B15158   5.860   4.438   6.536 -1.9282  3.3432 -0.1031
  139OSM    C1115159   5.823   4.593   6.691 -0.0604 -1.0683 -0.3266
  139OSM   H11A15160   5.806   4.589   6.801  1.0515 -0.0563 -0.1054
  139OSM   H11B15161   5.724   4.626   6.652  0.5902  0.7827 -0.5010
  139OSM      P15162   5.960   4.806   6.751  0.0628 -0.1089  0.4532
  139OSM    O1315163   5.834   4.868   6.794 -0.2758 -0.4136  0.0273
  139OSM    O1415164   6.053   4.759   6.864  0.1567 -0.0849  0.6170
  139OSM    O1115165   6.045   4.915   6.662 -0.0512  0.5031  0.4468
  139OSM    O1215166   5.926   4.688   6.658  0.7437  0.2722 -0.0319
  139OSM    C1S15167   6.146   4.879   6.566  0.4017 -0.0095 -1.3240
  139OSM    H1S15168   6.153   4.772   6.537 -1.4255 -0.9595  1.4467
  139OSM    H1T15169   6.242   4.905   6.617 -0.8905  0.7317  0.8403
  139OSM     NF15170   6.235   4.906   6.354 -0.0084  0.4384 -0.3939
  139OSM    HNF15171   6.330   4.935   6.354  1.3551 -3.4138 -0.6207
  139OSM    C2S15172   6.144   4.963   6.443  0.1958  0.3183 -0.6608
  139OSM    H2S15173   6.038   4.959   6.409 -1.1509 -2.1872  3.1558
  139OSM    C3S15174   6.178   5.118   6.482 -0.0191 -0.5903  0.5081
  139OSM    H3S15175   6.283   5.110   6.517  0.2673  2.0626  0.5107
  139OSM     O315176   6.101   5.167   6.597 -0.1937 -0.4250  0.2732
  139OSM    HO315177   6.066   5.085   6.632 -0.1629 -1.8820 -2.7581
  139OSM    C4S15178   6.166   5.208   6.361 -0.1088  0.4223 -0.6965
  139OSM    H4S15179   6.073   5.180   6.310 -0.2662  1.4356 -0.9843
  139OSM    C5S15180   6.255   5.295   6.307  0.2530  0.3586 -0.9643
  139OSM    H5S15181   6.358   5.305   6.344  0.0302 -0.0086 -0.2406
  139OSM    C6S15182   6.220   5.381   6.184 -0.1189 -0.4694  0.6720
  139OSM    H6S15183   6.270   5.479   6.197 -0.3664 -0.3888  1.0241
  139OSM    H6T15184   6.111   5.395   6.170  0.5143  1.7426 -3.5381
  139OSM    C7S15185   6.273   5.321   6.054 -0.7010 -0.6546  0.2173
  139OSM    H7S15186   6.241   5.216   6.045 -0.7935 -0.6801  0.7799
  139OSM    H7T15187   6.383   5.330   6.069 -0.8930 -0.1072  1.4943
  139OSM    C8S15188   6.218   5.400   5.933  0.4063 -0.3185 -0.0411
  139OSM    H8S15189   6.267   5.500   5.941  0.9174 -0.7106  3.3765
  139OSM    H8T15190   6.108   5.411   5.940  0.3159 -0.2381 -1.3590
  139OSM    C9S15191   6.265   5.342   5.804 -0.1797  1.0484  0.6194
  139OSM    H9S15192   6.214   5.245   5.786 -1.4404  1.7416  0.3548
  139OSM    H9T15193   6.375   5.324   5.801 -0.1886  0.9597  0.8579
  139OSM   C10S15194   6.240   5.428   5.681  0.4240 -0.2527  0.0873
  139OSM   H10S15195   6.288   5.527   5.692  0.7107 -0.1951 -1.4863
  139OSM   H10T15196   6.131   5.446   5.677  0.3039  0.4404  3.7410
  139OSM   C11S15197   6.293   5.358   5.555  0.7315  1.2038  0.2607
  139OSM   H11S15198   6.265   5.251   5.557  2.1101  0.8269  1.0737
  139OSM   H11T15199   6.404   5.352   5.548  0.9014  2.9579  0.9134
  139OSM   C12S15200   6.231   5.404   5.421  0.4795  0.3129 -0.1757
  139OSM   H12S15201   6.122   5.396   5.442  0.9774 -1.5700  2.1905
  139OSM   H12T15202   6.261   5.348   5.330 -0.2626  2.1867 -1.6221
  139OSM   C13S15203   6.256   5.548   5.381 -0.0379  0.4221  0.5794
  139OSM   H13S15204   6.359   5.555   5.340 -1.5321  0.4787 -3.6314
  139OSM   H13T15205   6.239   5.608   5.473 -0.8450 -0.0308  0.7325
  139OSM   C14S15206   6.150   5.595   5.273  0.2202  0.4614 -0.4116
  139OSM   H14S15207   6.045   5.596   5.308 -0.2653  0.2201 -1.7711
  139OSM   H14T15208   6.144   5.519   5.192 -2.7108 -0.5232  0.5983
  139OSM   C15S15209   6.176   5.734   5.214  0.3187 -0.0032  0.0279
  139OSM   H15S15210   6.270   5.726   5.155  0.4046  0.5215  0.0860
  139OSM   H15T15211   6.193   5.810   5.294  0.3933 -0.0322  0.0400
  139OSM   C16S15212   6.069   5.797   5.116 -0.1063  0.5568 -0.0535
  139OSM   H16S15213   6.092   5.902   5.087 -0.6380  0.6450 -0.1785
  139OSM   H16T15214   5.974   5.808   5.173  0.0395 -1.6554  0.7151
  139OSM   C17S15215   6.042   5.706   4.995 -0.7753 -0.2082  0.6787
  139OSM   H17S15216   5.943   5.743   4.961 -0.0071  0.1926 -1.2665
  139OSM   H17T15217   6.023   5.602   5.029 -1.1023 -0.9909 -1.6875
  139OSM   C18S15218   6.151   5.717   4.886 -0.3956 -0.1448  0.3048
  139OSM   H18S15219   6.108   5.782   4.806  1.3920  0.2746 -0.3555
  139OSM   H18T15220   6.171   5.619   4.839  0.8144  0.9867 -1.6953
  139OSM   H18U15221   6.248   5.751   4.929 -0.7682 -1.1564  2.0712
  139OSM    C1F15222   6.209   4.795   6.287 -0.8532  0.2361  0.5883
  139OSM     OF15223   6.096   4.745   6.285 -0.4424  0.0652 -0.2984
  139OSM    C2F15224   6.322   4.724   6.226 -0.3050 -0.2694  0.0260
  139OSM    H2F15225   6.342   4.631   6.285 -2.0611 -0.8084 -0.1701
  139OSM    H2G15226   6.415   4.784   6.229  1.3756 -2.7236  0.4480
  139OSM    C3F15227   6.299   4.657   6.093 -0.5060 -0.3384 -0.6344
  139OSM    H3F15228   6.275   4.549   6.104  1.8427 -0.7858  0.7497
  139OSM    H3G15229   6.393   4.645   6.035 -1.0701 -0.6712 -1.5047
  139OSM    C4F15230   6.190   4.726   6.000 -0.1330  0.4963  0.4100
  139OSM    H4F15231   6.200   4.836   6.012  0.5700  0.2705  2.2249
  139OSM    H4G15232   6.087   4.703   6.033  0.2109 -2.1939 -0.1541
  139OSM    C5F15233   6.195   4.676   5.853 -0.1156  0.0470 -0.4907
  139OSM    H5F15234   6.191   4.566   5.847 -0.6528 -0.1882  2.7038
  139OSM    H5G15235   6.294   4.708   5.813  0.5045 -2.1034 -0.7639
  139OSM    C6F15236   6.083   4.735   5.767  0.7064 -0.1571  0.3533
  139OSM    H6F15237   6.085   4.846   5.764  0.2468 -0.1592 -0.1525
  139OSM    H6G15238   5.992   4.689   5.811  1.5830 -0.7447  1.6268
  139OSM    C7F15239   6.080   4.709   5.618 -0.5538 -0.4387 -0.6767
  139OSM    H7F15240   5.992   4.754   5.566  0.0028  0.3187 -0.9840
  139OSM    H7G15241   6.073   4.598   5.615 -0.5661 -0.4203 -2.5090
  139OSM    C8F15242   6.216   4.739   5.543  0.4279 -0.4054  0.0637
  139OSM    H8F15243   6.212   4.691   5.443  0.7120  1.3999 -0.8601
  139OSM    H8G15244   6.288   4.669   5.589 -0.6099 -0.7082  1.2915
  139OSM    C9F15245   6.253   4.882   5.544  0.0614  0.2387  0.7765
  139OSM    H9F15246   6.284   4.918   5.644  0.5382 -0.0658  0.7424
  139OSM   C10F15247   6.273   4.972   5.445  0.7533 -0.1137 -0.7630
  139OSM   H10F15248   6.300   5.078   5.459 -3.3035  1.2547 -1.9698
  139OSM   C11F15249   6.248   4.951   5.295  0.6175 -0.7003 -0.3954
  139OSM   H11F15250   6.160   5.008   5.260  0.2328  0.3122  2.0242
  139OSM   H11G15251   6.232   4.844   5.271  2.0824 -0.9900 -0.2114
  139OSM   C12F15252   6.371   4.996   5.212  0.6107 -0.6474 -0.3779
  139OSM   H12F15253   6.461   4.938   5.245  0.8167  0.8409  1.8823
  139OSM   H12G15254   6.396   5.102   5.234 -0.9572  0.3767 -3.0138
  139OSM   C13F15255   6.353   4.983   5.062  0.1547 -0.4911 -0.0473
  139OSM   H13F15256   6.281   5.057   5.021 -1.0617 -2.7152 -2.2027
  139OSM   H13G15257   6.310   4.883   5.035  0.2176 -0.7267  0.6937
  139OSM   C14F15258   6.491   4.999   4.996  0.5432 -0.5050  0.0300
  139OSM   H14F15259   6.478   4.962   4.892  1.2708  1.7075 -0.9215
  139OSM   H14G15260   6.569   4.932   5.037 -0.4326 -0.1070  2.7717
  139OSM   C15F15261   6.534   5.149   4.980  0.2655  0.4540 -0.0847
  139OSM   H15F15262   6.635   5.149   4.934  0.6824 -3.4515  0.4459
  139OSM   H15G15263   6.542   5.189   5.083  0.0568 -0.9385  0.5038
  139OSM   C16F15264   6.440   5.238   4.891  0.3331  0.3409 -0.8901
  139OSM   H16F15265   6.337   5.253   4.929  0.8943  2.5906 -0.1085
  139OSM   H16G15266   6.425   5.179   4.798 -1.4889  1.3085 -1.2386
  139OSM   C17F15267   6.496   5.376   4.859  0.0460 -0.3950  0.2328
  139OSM   H17F15268   6.583   5.371   4.790 -0.0800  0.4909 -0.0061
  139OSM   H17G15269   6.550   5.417   4.948  1.3586 -0.2830 -0.5843
  139OSM   C18F15270   6.388   5.472   4.804 -0.1020  0.1462  0.2190
  139OSM   H18F15271   6.434   5.574   4.804  1.6417 -0.5993  0.7616
  139OSM   H18G15272   6.296   5.462   4.865  0.0483  1.6654  0.7522
  139OSM   H18H15273   6.360   5.450   4.699 -1.9691  0.7722  0.5545
  140OSM      N15274   0.773   2.800   6.924 -1.1559 -0.4968 -0.1658
  140OSM    C1515275   0.837   2.886   7.036 -0.3272 -0.1773  0.2333
  140OSM   H15A15276   0.936   2.924   7.018  0.3757 -1.4974  1.1351
  140OSM   H15B15277   0.837   2.827   7.126  1.4802  0.0815  0.4396
  140OSM   H15C15278   0.786   2.980   7.043  1.2290  0.8212 -1.0585
  140OSM    C1415279   0.874   2.692   6.897 -0.5137 -0.0490  0.3147
  140OSM   H14A15280   0.889   2.632   6.986 -0.3317 -0.6865 -0.1378
  140OSM   H14B15281   0.965   2.733   6.856 -1.6060  0.9429 -1.2365
  140OSM   H14C15282   0.833   2.633   6.816 -1.1820  1.3800 -0.4214
  140OSM    C1315283   0.648   2.735   6.964  0.2006 -0.9923 -0.3965
  140OSM   H13A15284   0.586   2.818   6.992  2.7632  0.2233  2.2132
  140OSM   H13B15285   0.649   2.690   7.062 -0.8314  0.9082  0.5430
  140OSM   H13C15286   0.600   2.693   6.877 -2.1447  0.6062  0.0508
  140OSM    C1215287   0.761   2.891   6.798 -0.4951 -0.3248 -0.3682
  140OSM   H12A15288   0.669   2.947   6.801  0.1377  0.7345 -0.2203
  140OSM   H12B15289   0.764   2.817   6.719  1.6480  0.1040 -0.7471
  140OSM    C1115290   0.874   2.986   6.760  0.1097  0.6498 -0.0153
  140OSM   H11A15291   0.877   3.005   6.650 -2.0574 -1.9591 -0.6469
  140OSM   H11B15292   0.974   2.938   6.771  0.6866  0.9193 -3.2094
  140OSM      P15293   1.012   3.183   6.844 -0.3648  0.0631 -0.2451
  140OSM    O1315294   0.996   3.289   6.940  0.0774  0.1439  0.3175
  140OSM    O1415295   1.120   3.085   6.880  0.1535 -0.3803  0.8893
  140OSM    O1115296   1.026   3.234   6.692 -0.7160 -0.8397  0.2248
  140OSM    O1215297   0.870   3.100   6.843 -0.5814 -0.2437 -0.3425
  140OSM    C1S15298   0.928   3.322   6.632  0.1986 -0.4370  0.0752
  140OSM    H1S15299   0.919   3.422   6.678 -1.3690  0.1084 -1.3466
  140OSM    H1T15300   0.830   3.271   6.647 -0.4801  1.3344  2.1225
  140OSM     NF15301   0.853   3.415   6.410  0.6189 -0.0333  0.4549
  140OSM    HNF15302   0.780   3.367   6.361  1.7953 -2.7926  1.2077
  140OSM    C2S15303   0.948   3.328   6.481 -0.5940 -0.9460 -0.5313
  140OSM    H2S15304   1.050   3.371   6.470  0.1099 -1.9067  1.6864
  140OSM    C3S15305   0.946   3.186   6.412 -0.0412  0.9581  0.0986
  140OSM    H3S15306   0.847   3.138   6.429 -0.4511  0.8882 -2.1173
  140OSM     O315307   1.043   3.092   6.469  1.1629  0.2431 -0.2035
  140OSM    HO315308   1.056   3.138   6.552 -1.5951  0.4986  0.1918
  140OSM    C4S15309   0.977   3.207   6.267 -0.5263  0.0717 -0.2714
  140OSM    H4S15310   1.083   3.235   6.258 -0.7919  1.4517  0.6033
  140OSM    C5S15311   0.900   3.189   6.163  0.4446  0.5702  0.3341
  140OSM    H5S15312   0.795   3.177   6.194  0.6315  0.3337  0.8851
  140OSM    C6S15313   0.939   3.184   6.017  0.5129  0.5179 -0.4380
  140OSM    H6S15314   0.898   3.091   5.970  1.7000 -0.0693 -0.3352
  140OSM    H6T15315   1.048   3.169   6.028  0.2237 -1.0310  0.7771
  140OSM    C7S15316   0.900   3.309   5.932 -0.4214  0.4262 -0.4523
  140OSM    H7S15317   0.949   3.399   5.973 -0.4832  1.1301 -1.8527
  140OSM    H7T15318   0.790   3.327   5.929 -0.4187  0.5003 -0.0642
  140OSM    C8S15319   0.941   3.295   5.783 -0.1593 -0.1608 -0.6378
  140OSM    H8S15320   0.876   3.213   5.746 -1.5160  0.3899  0.4355
  140OSM    H8T15321   1.046   3.259   5.774 -0.1967 -0.8042  1.0100
  140OSM    C9S15322   0.907   3.416   5.696 -0.2135 -0.5641  0.0404
  140OSM    H9S15323   0.982   3.495   5.717 -0.6610 -0.4445  1.2823
  140OSM    H9T15324   0.814   3.473   5.720  1.1661  2.6690 -1.6951
  140OSM   C10S15325   0.889   3.378   5.551 -0.5220 -0.5807 -0.1452
  140OSM   H10S15326   0.795   3.318   5.548 -1.8554  1.4727 -1.5056
  140OSM   H10T15327   0.968   3.312   5.508  0.4408  0.3055  0.2259
  140OSM   C11S15328   0.888   3.499   5.454  0.3383  0.3280 -0.1228
  140OSM   H11S15329   0.992   3.518   5.421  0.3876 -2.6642 -2.0927
  140OSM   H11T15330   0.831   3.578   5.508 -0.1871 -0.1505  0.0264
  140OSM   C12S15331   0.808   3.467   5.323 -0.0663 -0.0539 -0.4130
  140OSM   H12S15332   0.700   3.465   5.349 -0.5094  0.9662 -2.0357
  140OSM   H12T15333   0.838   3.368   5.282 -2.7492 -0.3641 -1.8388
  140OSM   C13S15334   0.822   3.557   5.200 -0.6479 -0.4354 -0.5015
  140OSM   H13S15335   0.752   3.525   5.120 -1.7214 -1.9878  0.9950
  140OSM   H13T15336   0.926   3.547   5.163 -0.2159 -0.4954  0.6776
  140OSM   C14S15337   0.806   3.708   5.224 -0.9409 -0.2477  0.2595
  140OSM   H14S15338   0.870   3.729   5.312 -2.4941  1.4983  1.0344
  140OSM   H14T15339   0.702   3.727   5.260 -0.7171  1.6416  0.0357
  140OSM   C15S15340   0.841   3.809   5.112  0.3210 -0.1877  0.1758
  140OSM   H15S15341   0.933   3.771   5.064 -0.3877 -0.3127 -1.1424
  140OSM   H15T15342   0.866   3.909   5.153 -1.0594  0.5240 -0.6497
  140OSM   C16S15343   0.735   3.825   5.011  0.0825  0.1654 -0.1446
  140OSM   H16S15344   0.641   3.853   5.063 -1.2689 -3.6068 -0.2742
  140OSM   H16T15345   0.709   3.728   4.964 -2.0293  0.2903  0.6430
  140OSM   C17S15346   0.789   3.918   4.902 -0.6901  0.4568 -0.1385
  140OSM   H17S15347   0.883   3.873   4.863 -1.6899 -1.1504 -0.8030
  140OSM   H17T15348   0.814   4.016   4.947 -0.7926  1.0562 -1.3325
  140OSM   C18S15349   0.690   3.942   4.793 -0.2763  0.2800  0.3365
  140OSM   H18S15350   0.591   3.972   4.832 -0.6279 -0.3111 -0.0754
  140OSM   H18T15351   0.665   3.853   4.731  0.4155 -0.2826  0.8360
  140OSM   H18U15352   0.722   4.022   4.722  1.5308 -0.8895 -0.2615
  140OSM    C1F15353   0.861   3.545   6.412 -0.2942 -0.1819 -0.0237
  140OSM     OF15354   0.952   3.606   6.472 -0.1363  0.3697 -0.2316
  140OSM    C2F15355   0.749   3.621   6.354  0.1296 -0.1081  0.9142
  140OSM    H2F15356   0.753   3.727   6.386 -1.1291  0.9305 -2.0643
  140OSM    H2G15357   0.656   3.572   6.391 -0.3778 -1.7370 -2.1624
  140OSM    C3F15358   0.755   3.616   6.196  0.2381 -0.1573  0.1193
  140OSM    H3F15359   0.778   3.513   6.162  2.3931 -0.4026  2.1343
  140OSM    H3G15360   0.831   3.687   6.157 -2.0442  0.8209 -3.0255
  140OSM    C4F15361   0.619   3.645   6.122  0.4515  0.4072 -0.6061
  140OSM    H4F15362   0.583   3.748   6.145  0.6149  0.6018 -1.2103
  140OSM    H4G15363   0.545   3.569   6.155  2.2297 -1.8323 -1.5895
  140OSM    C5F15364   0.625   3.613   5.970  0.4880 -0.2689 -0.0421
  140OSM    H5F15365   0.669   3.512   5.956  1.4735  0.2693 -0.9199
  140OSM    H5G15366   0.691   3.692   5.929 -1.5722  2.1211  0.9410
  140OSM    C6F15367   0.490   3.620   5.905  0.4329  0.6553  0.7996
  140OSM    H6F15368   0.436   3.713   5.933 -2.6683 -0.6457 -0.4537
  140OSM    H6G15369   0.425   3.539   5.944  1.9777  0.0451  2.2293
  140OSM    C7F15370   0.496   3.616   5.752 -0.6057  0.9815  0.4541
  140OSM    H7F15371   0.548   3.523   5.719  0.5059  1.4463  0.8557
  140OSM    H7G15372   0.568   3.693   5.716  0.9128 -1.3454 -1.8665
  140OSM    C8F15373   0.355   3.615   5.684  0.6442 -0.2674  0.4308
  140OSM    H8F15374   0.288   3.544   5.738 -1.5771  0.2698 -1.4708
  140OSM    H8G15375   0.378   3.565   5.588 -1.1034 -0.6833  0.2056
  140OSM    C9F15376   0.284   3.737   5.667 -0.0343 -0.5872 -0.4515
  140OSM    H9F15377   0.243   3.779   5.761  2.3160  0.1237  0.3129
  140OSM   C10F15378   0.249   3.796   5.548  0.1416  0.8366 -0.0945
  140OSM   H10F15379   0.188   3.887   5.553  0.4014  1.0556 -0.7728
  140OSM   C11F15380   0.289   3.755   5.407 -0.9883 -0.1221  0.1710
  140OSM   H11F15381   0.373   3.683   5.401 -0.6588  0.2553  0.1651
  140OSM   H11G15382   0.332   3.842   5.352 -1.1174 -1.1570 -1.6746
  140OSM   C12F15383   0.172   3.711   5.312 -0.3364 -0.4591 -0.2261
  140OSM   H12F15384   0.112   3.805   5.303  1.8473  1.1593  0.9848
  140OSM   H12G15385   0.119   3.624   5.355  0.4382 -2.5084 -3.1130
  140OSM   C13F15386   0.212   3.660   5.172  0.5281 -0.8081  0.8541
  140OSM   H13F15387   0.132   3.593   5.136 -0.7703  1.0117  0.2061
  140OSM   H13G15388   0.296   3.589   5.190  1.6617  0.1486 -0.4015
  140OSM   C14F15389   0.246   3.770   5.073 -0.2715 -0.3913 -0.7175
  140OSM   H14F15390   0.331   3.829   5.114 -0.4713 -1.1301  0.8005
  140OSM   H14G15391   0.155   3.833   5.073 -2.2208 -2.9134  2.1240
  140OSM   C15F15392   0.277   3.709   4.930 -0.5061 -0.1512  0.2447
  140OSM   H15F15393   0.288   3.789   4.855 -2.5783 -0.1705 -0.1487
  140OSM   H15G15394   0.188   3.650   4.899  1.5929 -2.7442 -1.2003
  140OSM   C16F15395   0.391   3.605   4.918 -0.0650 -0.3640  0.3686
  140OSM   H16F15396   0.364   3.512   4.973 -2.8159  0.7937  1.1115
  140OSM   H16G15397   0.478   3.653   4.967  0.7610  0.2409 -1.5903
  140OSM   C17F15398   0.444   3.571   4.771 -0.5334 -0.0847  0.2709
  140OSM   H17F15399   0.467   3.669   4.723  0.4152 -0.5963 -0.3450
  140OSM   H17G15400   0.366   3.518   4.712  0.3503 -0.6508 -0.4024
  140OSM   C18F15401   0.574   3.493   4.765  0.1324  0.4483 -0.4335
  140OSM   H18F15402   0.611   3.473   4.662  0.3699  0.4955 -0.3598
  140OSM   H18G15403   0.569   3.389   4.805  1.5161  0.4380 -0.2139
  140OSM   H18H15404   0.653   3.552   4.816  1.9710  0.1362 -2.7333
  141OSM      N15405   0.493   3.840   6.918 -0.1001  0.2287  0.0599
  141OSM    C1515406   0.377   3.750   6.945  0.1555  0.5588 -0.2330
  141OSM   H15A15407   0.353   3.702   6.851  0.3948  0.2411 -0.1322
  141OSM   H15B15408   0.307   3.814   6.996  1.0910  0.5061  1.2034
  141OSM   H15C15409   0.412   3.675   7.015  1.4376  1.1695 -0.1913
  141OSM    C1415410   0.451   3.954   6.831  0.4608 -0.3835  0.1408
  141OSM   H14A15411   0.547   4.003   6.818 -0.7166  2.7875  2.1070
  141OSM   H14B15412   0.385   4.022   6.884 -1.6032 -1.7265 -0.5794
  141OSM   H14C15413   0.405   3.918   6.741  0.4503  2.4098 -1.0930
  141OSM    C1315414   0.534   3.901   7.042 -0.0504  0.4960 -0.5960
  141OSM   H13A15415   0.562   3.822   7.109 -1.3143 -0.0698 -0.7066
  141OSM   H13B15416   0.448   3.948   7.087  0.6184 -0.4093  1.7490
  141OSM   H13C15417   0.612   3.975   7.028 -1.0107  1.3336 -1.6364
  141OSM    C1215418   0.603   3.756   6.849  0.4143 -0.3852 -0.3293
  141OSM   H12A15419   0.654   3.700   6.926 -1.5168 -0.4148  0.9890
  141OSM   H12B15420   0.680   3.829   6.834 -0.2262  0.7039  1.3718
  141OSM    C1115421   0.565   3.683   6.719  0.0272 -0.0352 -0.1375
  141OSM   H11A15422   0.659   3.657   6.666 -0.3704  0.3337 -1.0375
  141OSM   H11B15423   0.520   3.751   6.644  0.8269  0.7818  0.1006
  141OSM      P15424   0.535   3.442   6.804  0.2185 -0.2459 -0.2768
  141OSM    O1315425   0.639   3.465   6.905  0.3478 -0.5945 -0.1684
  141OSM    O1415426   0.419   3.361   6.850 -0.1267  0.9277 -0.3873
  141OSM    O1115427   0.590   3.359   6.680  0.0035  0.0242  0.1507
  141OSM    O1215428   0.480   3.576   6.738 -0.4844  0.9768  0.1761
  141OSM    C1S15429   0.510   3.345   6.559 -0.4146  0.6988  0.1299
  141OSM    H1S15430   0.552   3.407   6.477  2.1293 -0.8601  0.1349
  141OSM    H1T15431   0.404   3.375   6.570 -0.4203  1.5683 -1.8617
  141OSM     NF15432   0.447   3.203   6.375 -0.0260 -0.3253  0.2802
  141OSM    HNF15433   0.359   3.159   6.358 -0.8734  0.4999  2.3204
  141OSM    C2S15434   0.519   3.203   6.504  0.4428  0.2915  0.1354
  141OSM    H2S15435   0.627   3.181   6.494  0.6024  0.7802  0.7386
  141OSM    C3S15436   0.445   3.100   6.600  0.6280  0.6614  0.1068
  141OSM    H3S15437   0.335   3.118   6.602  0.1484 -1.6330 -1.3847
  141OSM     O315438   0.471   3.098   6.745 -1.0424  0.2680 -0.1378
  141OSM    HO315439   0.512   3.182   6.766  0.6591 -0.4786 -0.2836
  141OSM    C4S15440   0.466   2.964   6.547  0.3985  0.3879  0.3700
  141OSM    H4S15441   0.567   2.923   6.533 -0.2927 -1.5718  0.8309
  141OSM    C5S15442   0.361   2.875   6.526  0.1649 -0.1348 -0.2916
  141OSM    H5S15443   0.255   2.899   6.540 -0.5155 -0.9305 -3.3421
  141OSM    C6S15444   0.387   2.730   6.483 -0.3355  0.1566  0.8266
  141OSM    H6S15445   0.368   2.649   6.556  0.8832 -1.3605 -0.4614
  141OSM    H6T15446   0.495   2.708   6.466 -0.8811 -1.2463 -1.2309
  141OSM    C7S15447   0.317   2.707   6.341  0.3099 -0.1330  0.1335
  141OSM    H7S15448   0.212   2.743   6.331 -0.1398 -1.6786 -1.1098
  141OSM    H7T15449   0.321   2.597   6.328 -0.6292 -0.0843 -0.7364
  141OSM    C8S15450   0.406   2.774   6.229  0.8968  0.4550 -0.8631
  141OSM    H8S15451   0.498   2.714   6.210  2.0666  0.9337  2.5599
  141OSM    H8T15452   0.442   2.875   6.259 -1.9430  1.4076 -0.4192
  141OSM    C9S15453   0.324   2.805   6.102  0.3493  0.3398 -0.1346
  141OSM    H9S15454   0.377   2.883   6.043 -1.4748  2.4921  0.9658
  141OSM    H9T15455   0.227   2.851   6.128  1.1310  1.1434  1.5409
  141OSM   C10S15456   0.298   2.680   6.017 -0.4278  0.3285  0.5149
  141OSM   H10S15457   0.224   2.616   6.071 -0.7819  0.2261 -0.0788
  141OSM   H10T15458   0.395   2.626   6.016  0.2186  1.4772 -0.6740
  141OSM   C11S15459   0.264   2.706   5.874 -0.0133 -0.6567 -0.3229
  141OSM   H11S15460   0.303   2.805   5.841 -0.3291  0.5659  2.6431
  141OSM   H11T15461   0.153   2.707   5.875 -0.0641  0.9578  2.5217
  141OSM   C12S15462   0.311   2.598   5.772  0.0078 -0.0487 -0.4365
  141OSM   H12S15463   0.263   2.505   5.810  0.3525 -0.3832 -0.8123
  141OSM   H12T15464   0.422   2.590   5.775  0.0561  0.7877  0.7881
  141OSM   C13S15465   0.260   2.619   5.624  0.0462 -0.4319  0.2388
  141OSM   H13S15466   0.242   2.727   5.608  2.0312 -0.1043 -0.0487
  141OSM   H13T15467   0.175   2.550   5.604  0.2805 -0.3671 -1.1047
  141OSM   C14S15468   0.382   2.571   5.536 -0.1318  0.0758  0.1352
  141OSM   H14S15469   0.401   2.463   5.556  1.7555 -0.2128 -2.6488
  141OSM   H14T15470   0.474   2.621   5.572 -0.1688  0.0011  0.3360
  141OSM   C15S15471   0.362   2.585   5.391 -0.4745 -0.2970 -0.1466
  141OSM   H15S15472   0.267   2.557   5.340 -0.7723 -1.5315  1.0331
  141OSM   H15T15473   0.452   2.552   5.335 -1.1032 -3.0106  0.3153
  141OSM   C16S15474   0.362   2.737   5.365 -0.0085 -0.0156 -0.2582
  141OSM   H16S15475   0.434   2.779   5.438 -2.2889  0.0663  2.0980
  141OSM   H16T15476   0.265   2.786   5.390 -0.8233 -3.1436  4.0064
  141OSM   C17S15477   0.402   2.778   5.223 -0.3149  1.0519 -0.7631
  141OSM   H17S15478   0.491   2.719   5.196 -1.3123 -1.7660  1.6353
  141OSM   H17T15479   0.430   2.886   5.229 -1.9738  1.4626  0.4423
  141OSM   C18S15480   0.292   2.764   5.121 -0.1199 -0.4205 -0.4580
  141OSM   H18S15481   0.266   2.656   5.114 -5.9304  0.7268 -3.3373
  141OSM   H18T15482   0.322   2.800   5.020 -0.3654  0.9374 -0.0639
  141OSM   H18U15483   0.201   2.823   5.144  0.7659  0.8575 -0.1411
  141OSM    C1F15484   0.500   3.250   6.265 -0.1581  0.1879  0.3736
  141OSM     OF15485   0.610   3.310   6.275 -0.5859  0.2385  0.2723
  141OSM    C2F15486   0.424   3.227   6.137  0.7188  0.3760 -0.4049
  141OSM    H2F15487   0.335   3.294   6.137  0.9161  0.7039  1.8250
  141OSM    H2G15488   0.381   3.124   6.135  0.2151  0.3254  3.6696
  141OSM    C3F15489   0.503   3.269   6.012 -0.4189  0.4937 -0.5256
  141OSM    H3F15490   0.606   3.228   6.001  0.6570  2.6814  0.5825
  141OSM    H3G15491   0.536   3.373   6.035  1.0501  0.0898 -0.6700
  141OSM    C4F15492   0.431   3.246   5.883 -0.1982  0.0858  0.9645
  141OSM    H4F15493   0.439   3.337   5.820  2.3028 -1.0389 -0.4930
  141OSM    H4G15494   0.323   3.226   5.903 -0.2267  1.0706  1.8623
  141OSM    C5F15495   0.482   3.131   5.791 -0.3039 -0.5211  0.1597
  141OSM    H5F15496   0.411   3.045   5.784  0.4057 -1.0068 -1.6193
  141OSM    H5G15497   0.576   3.092   5.836  0.5453  0.4769 -0.6867
  141OSM    C6F15498   0.524   3.175   5.649 -0.1087 -0.0248 -0.4122
  141OSM    H6F15499   0.573   3.084   5.609  0.0627 -0.4470  0.7397
  141OSM    H6G15500   0.601   3.255   5.661  0.9169 -1.3166  2.3280
  141OSM    C7F15501   0.413   3.221   5.560 -0.1247  0.0491 -1.1675
  141OSM    H7F15502   0.361   3.304   5.612 -2.2345 -0.6634 -2.0354
  141OSM    H7G15503   0.332   3.151   5.531 -0.0141 -0.9965  0.8836
  141OSM    C8F15504   0.472   3.278   5.422  0.2870 -0.0242  0.4878
  141OSM    H8F15505   0.522   3.372   5.452 -0.3783  1.5389 -2.8764
  141OSM    H8G15506   0.392   3.309   5.351  0.2285 -1.2567 -0.0157
  141OSM    C9F15507   0.565   3.182   5.349  0.3037 -0.1281  0.1053
  141OSM    H9F15508   0.598   3.095   5.408 -0.7372  0.7948  2.1754
  141OSM   C10F15509   0.601   3.196   5.225 -0.4665 -0.0607  0.3559
  141OSM   H10F15510   0.660   3.113   5.182  0.4121  1.5299 -1.6460
  141OSM   C11F15511   0.537   3.283   5.120  0.1296 -0.0378  0.2112
  141OSM   H11F15512   0.616   3.329   5.057  0.5373  1.2768  1.6063
  141OSM   H11G15513   0.491   3.377   5.157  0.4617  0.9588 -1.7900
  141OSM   C12F15514   0.437   3.213   5.028 -0.0077 -0.5535  0.2486
  141OSM   H12F15515   0.380   3.293   4.978 -0.5839 -0.6779  0.6988
  141OSM   H12G15516   0.376   3.160   5.104 -1.1962  0.0751 -0.2541
  141OSM   C13F15517   0.483   3.109   4.934  0.2508  0.8847  0.4051
  141OSM   H13F15518   0.546   3.038   4.992 -0.7154  0.2480  0.7048
  141OSM   H13G15519   0.559   3.152   4.864 -1.2672 -0.8675 -2.5254
  141OSM   C14F15520   0.374   3.041   4.850  0.9785 -0.5949 -0.0487
  141OSM   H14F15521   0.319   3.124   4.802  0.5829 -0.0356  1.3028
  141OSM   H14G15522   0.307   2.988   4.922  3.0366 -0.4088  2.1389
  141OSM   C15F15523   0.429   2.945   4.740  0.4566 -0.6389 -0.3540
  141OSM   H15F15524   0.367   2.867   4.692  1.5768 -0.4417 -2.2169
  141OSM   H15G15525   0.513   2.891   4.788  0.2188 -0.5656  0.1520
  141OSM   C16F15526   0.481   3.019   4.604  0.2938 -0.0936 -0.7402
  141OSM   H16F15527   0.533   3.107   4.647 -0.6647  0.2305 -0.2184
  141OSM   H16G15528   0.395   3.067   4.552 -1.0110  1.2222  2.3498
  141OSM   C17F15529   0.577   2.934   4.525  0.6102 -0.0207  0.1489
  141OSM   H17F15530   0.527   2.841   4.490  3.4807 -1.4676 -0.3231
  141OSM   H17G15531   0.668   2.895   4.574 -1.2205  1.2360  5.2058
  141OSM   C18F15532   0.628   3.002   4.400  0.1436  0.1120  0.4201
  141OSM   H18F15533   0.544   3.026   4.332 -1.6313 -1.4949  1.9572
  141OSM   H18G15534   0.704   2.935   4.353  0.1637  0.3443  0.1156
  141OSM   H18H15535   0.684   3.092   4.435 -3.6282  2.3357  1.2430
  142OSM      N15536   0.744   1.699   7.011  0.0961 -0.0580  0.1195
  142OSM    C1515537   0.744   1.556   6.966 -0.5764  0.2363  0.4759
  142OSM   H15A15538   0.842   1.517   6.992  0.0810  2.1492  1.0436
  142OSM   H15B15539   0.718   1.546   6.862  1.1590  1.3755 -0.1118
  142OSM   H15C15540   0.672   1.494   7.016 -4.3089  2.2502 -1.9426
  142OSM    C1415541   0.599   1.754   7.007  0.1480 -0.0288 -0.0914
  142OSM   H14A15542   0.537   1.682   7.058 -2.6178  2.1560 -0.0786
  142OSM   H14B15543   0.554   1.769   6.910 -0.9299  0.5087  0.4728
  142OSM   H14C15544   0.600   1.848   7.060  2.2923  1.0122 -1.8372
  142OSM    C1315545   0.792   1.701   7.154  0.3105 -0.1502 -0.3724
  142OSM   H13A15546   0.813   1.805   7.175 -2.2877  0.2702  0.5065
  142OSM   H13B15547   0.888   1.654   7.173  1.1361  0.9732 -1.6022
  142OSM   H13C15548   0.733   1.655   7.232  1.7066 -0.2816  0.6480
  142OSM    C1215549   0.840   1.782   6.928 -0.0084  0.1015  0.1489
  142OSM   H12A15550   0.807   1.785   6.825 -1.7312  1.9809  0.7059
  142OSM   H12B15551   0.931   1.725   6.912  1.3032  2.2363 -0.4436
  142OSM    C1115552   0.882   1.928   6.964  0.0369  0.5450 -0.6246
  142OSM   H11A15553   0.940   1.967   6.878 -1.6269  2.8105 -0.8139
  142OSM   H11B15554   0.946   1.922   7.055 -2.1963  2.7989  1.2575
  142OSM      P15555   0.783   2.165   7.006 -0.4328 -0.2539 -0.2187
  142OSM    O1315556   0.649   2.223   7.003  0.6007 -0.4239  0.0036
  142OSM    O1415557   0.872   2.202   7.117  0.7952 -0.3051  0.2862
  142OSM    O1115558   0.855   2.223   6.878 -0.8408 -0.3387  0.1405
  142OSM    O1215559   0.770   2.013   6.991  0.8041  0.4139  0.1879
  142OSM    C1S15560   0.821   2.185   6.744 -0.0644  0.3564 -0.0671
  142OSM    H1S15561   0.720   2.220   6.717 -1.3034 -2.5958  0.3690
  142OSM    H1T15562   0.811   2.075   6.732  0.3232  0.4807 -1.7872
  142OSM     NF15563   0.873   2.199   6.497 -0.3963 -0.3509 -0.5537
  142OSM    HNF15564   0.912   2.114   6.463 -0.6090 -1.3685  1.5729
  142OSM    C2S15565   0.925   2.230   6.634  0.2909  0.5649 -0.1395
  142OSM    H2S15566   0.942   2.340   6.643  2.8489  0.2115  0.1873
  142OSM    C3S15567   1.063   2.158   6.658  0.3440 -0.5921 -0.2870
  142OSM    H3S15568   1.049   2.049   6.642 -3.0355 -0.1915 -0.8024
  142OSM     O315569   1.107   2.169   6.798  0.0238  0.1017 -0.1978
  142OSM    HO315570   1.020   2.183   6.837  0.1852 -2.4536  1.3231
  142OSM    C4S15571   1.173   2.187   6.559  1.1663  0.0575  0.3290
  142OSM    H4S15572   1.169   2.115   6.476 -0.3213 -0.6625  0.9835
  142OSM    C5S15573   1.263   2.285   6.557  0.2821 -0.1279  0.3411
  142OSM    H5S15574   1.251   2.365   6.631  4.9106 -0.2586  1.4942
  142OSM    C6S15575   1.360   2.299   6.447 -0.4402  0.4500 -0.1520
  142OSM    H6S15576   1.363   2.209   6.382  0.9182  0.8266 -0.6573
  142OSM    H6T15577   1.457   2.310   6.500  0.0293 -1.3723 -0.5563
  142OSM    C7S15578   1.334   2.413   6.352 -0.0292 -0.7244 -0.2925
  142OSM    H7S15579   1.426   2.417   6.290 -0.5104  1.7345 -0.9562
  142OSM    H7T15580   1.348   2.512   6.399 -0.5740 -0.5716 -0.4435
  142OSM    C8S15581   1.205   2.413   6.266 -0.6536 -0.3459 -0.1991
  142OSM    H8S15582   1.121   2.401   6.338 -0.6072  1.0723  0.1173
  142OSM    H8T15583   1.203   2.315   6.215 -0.3536 -1.3109  1.5434
  142OSM    C9S15584   1.206   2.527   6.161  0.0571 -0.0752 -0.1392
  142OSM    H9S15585   1.307   2.572   6.152 -0.9389  2.7786  1.6824
  142OSM    H9T15586   1.136   2.608   6.188  0.6789  0.9532 -1.5220
  142OSM   C10S15587   1.171   2.463   6.017  0.3488  0.2388 -0.0801
  142OSM   H10S15588   1.075   2.408   6.020 -0.7184  2.0063 -0.4031
  142OSM   H10T15589   1.249   2.386   6.001  0.7845  0.2300  1.8786
  142OSM   C11S15590   1.164   2.562   5.900  0.3021 -0.6258 -0.0720
  142OSM   H11S15591   1.249   2.634   5.900 -0.6270  0.5164  0.7084
  142OSM   H11T15592   1.073   2.621   5.922 -0.3656 -2.2400  1.7852
  142OSM   C12S15593   1.165   2.498   5.763 -0.4333  0.0839  0.1747
  142OSM   H12S15594   1.082   2.426   5.746  0.1829 -0.3424 -1.1152
  142OSM   H12T15595   1.254   2.432   5.755  0.4087  1.3810 -1.7869
  142OSM   C13S15596   1.168   2.603   5.650  0.3186 -0.2780  0.0513
  142OSM   H13S15597   1.223   2.696   5.677  1.0181 -0.4418 -0.7754
  142OSM   H13T15598   1.064   2.632   5.623  0.4517 -0.9257 -1.2589
  142OSM   C14S15599   1.234   2.550   5.521  0.2968 -0.3950  0.3439
  142OSM   H14S15600   1.180   2.455   5.498 -0.3860 -0.4238  1.9068
  142OSM   H14T15601   1.340   2.528   5.545  0.2088  0.8731  2.1690
  142OSM   C15S15602   1.226   2.651   5.409 -0.4022 -0.2213 -0.5684
  142OSM   H15S15603   1.287   2.740   5.435 -1.7147  0.8172 -0.9518
  142OSM   H15T15604   1.123   2.692   5.414 -1.4951 -2.8696  1.7216
  142OSM   C16S15605   1.280   2.606   5.275 -0.2027  1.3343  0.0293
  142OSM   H16S15606   1.376   2.551   5.288 -0.4427  0.9870  0.3764
  142OSM   H16T15607   1.312   2.705   5.236 -0.9672  1.3316 -0.6309
  142OSM   C17S15608   1.178   2.532   5.194  0.0082 -0.0479 -0.7903
  142OSM   H17S15609   1.085   2.591   5.184  0.0781 -0.0552 -1.5896
  142OSM   H17T15610   1.153   2.447   5.261  2.3313  0.2612  0.5587
  142OSM   C18S15611   1.234   2.490   5.062 -0.3854  0.7060  0.2454
  142OSM   H18S15612   1.331   2.437   5.071 -0.0152  1.3930  0.4421
  142OSM   H18T15613   1.242   2.577   4.992  2.6937 -1.6989 -2.7300
  142OSM   H18U15614   1.170   2.419   5.006  2.0406 -1.6279  0.2158
  142OSM    C1F15615   0.776   2.274   6.445 -0.0282  0.0463  1.1213
  142OSM     OF15616   0.712   2.363   6.505  0.4615 -0.1993 -0.6392
  142OSM    C2F15617   0.755   2.250   6.295  0.4832 -0.0522 -0.1200
  142OSM    H2F15618   0.731   2.143   6.278  0.3737  0.1235 -1.1604
  142OSM    H2G15619   0.851   2.270   6.242  0.6270 -0.0632  0.1355
  142OSM    C3F15620   0.645   2.343   6.237 -0.0106  0.0566 -0.7284
  142OSM    H3F15621   0.661   2.451   6.256 -0.6443  0.7951 -3.8025
  142OSM    H3G15622   0.548   2.324   6.288  1.4881 -0.6202  2.0976
  142OSM    C4F15623   0.619   2.320   6.091 -0.2923  0.1290 -0.2135
  142OSM    H4F15624   0.529   2.381   6.069  0.5510  1.3334 -0.4448
  142OSM    H4G15625   0.586   2.215   6.075  0.1937  0.3768 -3.3782
  142OSM    C5F15626   0.729   2.354   5.990 -0.5069 -0.8559 -0.2139
  142OSM    H5F15627   0.818   2.297   6.024  1.1062  1.5241 -0.1632
  142OSM    H5G15628   0.760   2.461   6.000 -0.0390 -0.9935 -0.1849
  142OSM    C6F15629   0.699   2.319   5.843  0.0877 -0.3026 -0.3498
  142OSM    H6F15630   0.616   2.377   5.798 -0.0438 -0.7790 -0.7345
  142OSM    H6G15631   0.681   2.211   5.823  2.3953 -1.7658  4.1644
  142OSM    C7F15632   0.812   2.356   5.754 -0.0929  0.0185 -0.4292
  142OSM    H7F15633   0.904   2.294   5.749 -0.2665 -0.2358 -0.5111
  142OSM    H7G15634   0.855   2.455   5.780  1.7021 -0.8459  0.0555
  142OSM    C8F15635   0.755   2.380   5.604  0.0584  0.5393 -0.4841
  142OSM    H8F15636   0.683   2.464   5.598  0.9639  1.2937 -1.0168
  142OSM    H8G15637   0.705   2.282   5.590  2.2906 -0.9135  1.0576
  142OSM    C9F15638   0.862   2.404   5.504  0.6026  0.3139 -0.2592
  142OSM    H9F15639   0.952   2.443   5.555  1.7315 -1.4837 -0.7694
  142OSM   C10F15640   0.857   2.367   5.375 -0.0795 -0.6165  0.3235
  142OSM   H10F15641   0.939   2.401   5.310 -1.2532 -0.0677 -0.9304
  142OSM   C11F15642   0.725   2.332   5.312  0.4298  0.4394 -0.2424
  142OSM   H11F15643   0.699   2.408   5.235 -0.3961 -0.4836 -0.8962
  142OSM   H11G15644   0.639   2.333   5.382  0.2448  1.8369 -0.4595
  142OSM   C12F15645   0.741   2.206   5.219  0.3094  0.2781 -0.1508
  142OSM   H12F15646   0.804   2.225   5.129 -1.4356  0.5170 -1.3636
  142OSM   H12G15647   0.644   2.176   5.175 -0.1777  1.9332 -0.2529
  142OSM   C13F15648   0.784   2.082   5.303 -0.4819  0.3125 -0.2538
  142OSM   H13F15649   0.709   2.053   5.379  0.9273 -1.5435  0.5297
  142OSM   H13G15650   0.878   2.098   5.360 -1.9245  0.2747  2.2856
  142OSM   C14F15651   0.826   1.951   5.228 -0.5535 -1.1430 -0.4085
  142OSM   H14F15652   0.865   1.882   5.307 -0.2113  0.1185  0.5597
  142OSM   H14G15653   0.917   1.973   5.169  1.0954 -1.7842  1.7654
  142OSM   C15F15654   0.721   1.881   5.137 -0.5803  0.4550  0.7330
  142OSM   H15F15655   0.678   1.957   5.069 -0.5172 -0.6178 -0.5650
  142OSM   H15G15656   0.633   1.834   5.186 -2.6794  1.4524 -1.8538
  142OSM   C16F15657   0.778   1.776   5.037 -0.3714 -0.1253 -0.8056
  142OSM   H16F15658   0.790   1.688   5.104  1.1379  0.2137 -0.6090
  142OSM   H16G15659   0.876   1.790   4.987  0.4112 -2.1444  0.0606
  142OSM   C17F15660   0.662   1.731   4.941 -0.5281  0.0605 -0.4773
  142OSM   H17F15661   0.561   1.730   4.989 -0.5096  1.2961 -0.3800
  142OSM   H17G15662   0.686   1.623   4.930 -3.0615 -0.9379  2.3720
  142OSM   C18F15663   0.658   1.788   4.803  0.3033 -0.2493 -0.4569
  142OSM   H18F15664   0.586   1.729   4.742  0.3417 -0.7010 -0.0691
  142OSM   H18G15665   0.760   1.782   4.760  0.6549 -0.0901  0.3514
  142OSM   H18H15666   0.623   1.893   4.803  3.1961  0.8397  1.2902
  143OSM      N15667   5.459   5.006   6.769 -0.0815 -0.0424  0.2762
  143OSM    C1515668   5.541   4.885   6.763  0.3429  0.0548  0.3623
  143OSM   H15A15669   5.506   4.821   6.684  1.1786 -0.8812  0.7336
  143OSM   H15B15670   5.529   4.827   6.854 -0.0798  1.2759  1.1258
  143OSM   H15C15671   5.646   4.905   6.749 -0.2253  1.6719 -2.2383
  143OSM    C1415672   5.314   4.980   6.791  0.6564  0.6600  0.0648
  143OSM   H14A15673   5.269   4.917   6.715 -4.7913  2.1771  1.5637
  143OSM   H14B15674   5.266   5.076   6.776  2.1459  1.4403  0.1061
  143OSM   H14C15675   5.297   4.938   6.889  0.9411  0.6850  0.1253
  143OSM    C1315676   5.500   5.103   6.873 -0.4457  0.3685  0.2033
  143OSM   H13A15677   5.418   5.173   6.881 -1.4649 -0.6364 -0.9530
  143OSM   H13B15678   5.593   5.146   6.841 -0.7780  0.4802 -0.6372
  143OSM   H13C15679   5.506   5.053   6.968 -1.5354 -1.3134 -0.5721
  143OSM    C1215680   5.463   5.072   6.631  0.2761 -0.7571 -0.0366
  143OSM   H12A15681   5.429   4.998   6.559 -0.5784  0.0040 -0.4314
  143OSM   H12B15682   5.568   5.093   6.617  0.3630  0.6203  2.2380
  143OSM    C1115683   5.375   5.198   6.598 -0.4398 -0.0123  0.3390
  143OSM   H11A15684   5.407   5.248   6.504 -1.0270 -3.1699 -1.7375
  143OSM   H11B15685   5.354   5.258   6.688 -1.4550 -2.8958  2.1829
  143OSM      P15686   5.117   5.241   6.527 -0.0184  0.1389  0.0325
  143OSM    O1315687   5.016   5.153   6.464 -0.2639  0.1832 -0.0570
  143OSM    O1415688   5.078   5.308   6.651 -0.2678  0.1934  0.3299
  143OSM    O1115689   5.164   5.356   6.429 -0.3811 -0.6206  0.2513
  143OSM    O1215690   5.244   5.148   6.554  0.2050  0.4122 -0.0327
  143OSM    C1S15691   5.233   5.325   6.308  0.5284  0.7159  0.2432
  143OSM    H1S15692   5.291   5.230   6.310  0.7345  0.8395  0.1139
  143OSM    H1T15693   5.304   5.405   6.278 -1.1853  1.5765 -1.7127
  143OSM     NF15694   5.200   5.258   6.058 -0.2774 -0.1661 -0.0920
  143OSM    HNF15695   5.251   5.321   5.999 -0.2710 -0.1415 -0.0608
  143OSM    C2S15696   5.137   5.311   6.173 -0.2781  0.2919 -0.9008
  143OSM    H2S15697   5.052   5.244   6.201  2.1406 -2.0893  1.2714
  143OSM    C3S15698   5.065   5.450   6.143 -0.4670 -0.1728 -0.4371
  143OSM    H3S15699   5.147   5.514   6.105  0.6700 -1.4007 -0.1583
  143OSM     O315700   5.018   5.521   6.255  0.1592 -0.1309 -0.4502
  143OSM    HO315701   5.059   5.485   6.334  1.0639  1.6816 -0.0352
  143OSM    C4S15702   4.969   5.439   6.031  0.2987  1.0541 -0.0546
  143OSM    H4S15703   4.909   5.347   6.024  2.4299 -0.6349  2.0887
  143OSM    C5S15704   4.965   5.537   5.938 -0.1181  0.4391 -0.0460
  143OSM    H5S15705   5.029   5.626   5.948 -0.5764  0.6639  0.9757
  143OSM    C6S15706   4.895   5.536   5.801  0.0212  0.9301  0.8921
  143OSM    H6S15707   4.967   5.550   5.718 -0.5808 -1.3416 -0.0806
  143OSM    H6T15708   4.829   5.624   5.784  0.4006  0.8212 -1.4001
  143OSM    C7S15709   4.804   5.408   5.763  0.4766 -0.1038 -0.2489
  143OSM    H7S15710   4.707   5.427   5.813 -0.1025  1.6327 -1.9018
  143OSM    H7T15711   4.856   5.314   5.793  1.9611  0.3448 -1.3235
  143OSM    C8S15712   4.762   5.402   5.615  0.4378  0.2916  0.2942
  143OSM    H8S15713   4.820   5.326   5.559  1.0048  2.4415 -2.2624
  143OSM    H8T15714   4.796   5.496   5.566  0.9074 -0.8843 -1.7347
  143OSM    C9S15715   4.607   5.387   5.593 -0.2301  0.3339  0.9256
  143OSM    H9S15716   4.562   5.483   5.627 -1.1568  0.3350 -0.2653
  143OSM    H9T15717   4.567   5.305   5.656 -1.2273  0.1304  0.0308
  143OSM   C10S15718   4.576   5.370   5.444 -0.4833  1.2728 -0.0674
  143OSM   H10S15719   4.596   5.262   5.429 -0.1541  1.1818  0.9419
  143OSM   H10T15720   4.645   5.434   5.385  1.5413 -1.0473 -0.3690
  143OSM   C11S15721   4.423   5.396   5.404  0.0889 -0.1564  0.7193
  143OSM   H11S15722   4.388   5.498   5.430 -1.2137  0.4375 -2.8472
  143OSM   H11T15723   4.358   5.335   5.471  0.0034 -1.7028 -0.6995
  143OSM   C12S15724   4.383   5.358   5.263  0.5641 -0.8508  0.1515
  143OSM   H12S15725   4.305   5.426   5.223 -2.0051 -1.4489  3.6292
  143OSM   H12T15726   4.342   5.255   5.276  0.6932 -0.8170  0.8526
  143OSM   C13S15727   4.501   5.355   5.161 -0.3898 -0.0163 -0.7066
  143OSM   H13S15728   4.581   5.291   5.204  0.0396  1.3818  0.6912
  143OSM   H13T15729   4.539   5.459   5.172 -0.2993 -0.2575  1.8103
  143OSM   C14S15730   4.472   5.317   5.017  0.7308  0.7625 -0.4476
  143OSM   H14S15731   4.382   5.365   4.975  1.2146  0.1705 -2.2555
  143OSM   H14T15732   4.442   5.210   5.014 -0.3494  1.0279  0.4771
  143OSM   C15S15733   4.590   5.341   4.918 -0.2584 -0.2080 -0.7594
  143OSM   H15S15734   4.575   5.269   4.835  0.9609 -0.8654 -0.4459
  143OSM   H15T15735   4.686   5.304   4.960  0.0462 -1.2870 -2.2975
  143OSM   C16S15736   4.586   5.485   4.852 -0.2560 -0.0561 -0.0895
  143OSM   H16S15737   4.625   5.569   4.914  1.7269  0.4628 -1.9329
  143OSM   H16T15738   4.486   5.524   4.821  0.6768  1.6832 -1.0693
  143OSM   C17S15739   4.664   5.494   4.718  0.4266  0.3637 -0.1833
  143OSM   H17S15740   4.761   5.442   4.735  0.1836 -0.2836 -0.7118
  143OSM   H17T15741   4.680   5.601   4.694  0.4793  0.1227 -1.2780
  143OSM   C18S15742   4.596   5.431   4.598 -0.6067  0.4993  0.3875
  143OSM   H18S15743   4.496   5.469   4.565 -1.0602 -0.6121  0.4560
  143OSM   H18T15744   4.579   5.323   4.612 -1.6987  0.6755  0.5563
  143OSM   H18U15745   4.660   5.433   4.507 -0.0662 -2.9196  0.5955
  143OSM    C1F15746   5.244   5.129   6.064 -0.2864  0.1566  0.7439
  143OSM     OF15747   5.199   5.055   6.150 -1.0248 -0.0025  0.2191
  143OSM    C2F15748   5.339   5.072   5.963  0.0250 -0.1804  0.4921
  143OSM    H2F15749   5.422   5.014   6.008  2.8080  3.2452  0.2771
  143OSM    H2G15750   5.384   5.167   5.925 -1.0839 -0.6142 -2.1353
  143OSM    C3F15751   5.264   5.007   5.843  0.0175 -0.7832  0.0152
  143OSM    H3F15752   5.196   5.085   5.801  1.2243 -0.0717 -0.6822
  143OSM    H3G15753   5.212   4.912   5.869 -0.8294 -0.8435 -1.7082
  143OSM    C4F15754   5.372   4.971   5.735  1.1842  0.5515 -1.2540
  143OSM    H4F15755   5.397   4.864   5.751  0.5634  0.6304  0.3797
  143OSM    H4G15756   5.458   5.040   5.749  0.5903  1.3693 -1.5908
  143OSM    C5F15757   5.330   4.997   5.590  0.1271 -0.3358 -0.2223
  143OSM    H5F15758   5.419   4.975   5.526  0.3119 -0.8482  0.2010
  143OSM    H5G15759   5.290   5.099   5.573  2.9407  0.6162 -1.7990
  143OSM    C6F15760   5.223   4.902   5.538  0.6844 -0.0661 -0.2254
  143OSM    H6F15761   5.125   4.921   5.587  1.3748  1.5227  0.6267
  143OSM    H6G15762   5.256   4.800   5.566  1.2366  0.3022  0.5039
  143OSM    C7F15763   5.195   4.906   5.391 -0.6762 -0.2230  0.4063
  143OSM    H7F15764   5.127   4.821   5.368  1.1522 -1.5949 -0.2235
  143OSM    H7G15765   5.290   4.884   5.336  0.3154  1.2121  1.4682
  143OSM    C8F15766   5.155   5.038   5.331  0.9666 -0.5313  0.0628
  143OSM    H8F15767   5.155   5.017   5.222  2.4780  0.7351 -0.2093
  143OSM    H8G15768   5.227   5.121   5.349 -0.3026  0.2876  1.6544
  143OSM    C9F15769   5.019   5.094   5.382 -0.2484  0.5285  0.6064
  143OSM    H9F15770   5.003   5.085   5.490 -2.0420  3.4421  0.6866
  143OSM   C10F15771   4.939   5.170   5.301  0.0737 -0.7695 -0.1228
  143OSM   H10F15772   4.854   5.227   5.339  0.2322  0.3989 -1.4248
  143OSM   C11F15773   4.970   5.208   5.163 -0.6097 -0.4350  0.0790
  143OSM   H11F15774   5.081   5.207   5.153 -0.4048 -0.7387  2.0638
  143OSM   H11G15775   4.948   5.311   5.127 -0.5734  0.1267  1.6237
  143OSM   C12F15776   4.916   5.114   5.056 -0.7360 -0.5844 -0.2730
  143OSM   H12F15777   4.805   5.117   5.061 -0.6855 -0.2706  0.7997
  143OSM   H12G15778   4.942   5.010   5.085  1.6914  0.2721  0.8301
  143OSM   C13F15779   4.955   5.139   4.912  0.3067  0.1907  0.4810
  143OSM   H13F15780   5.063   5.119   4.892  0.7891  2.3289  0.7486
  143OSM   H13G15781   4.925   5.242   4.886  2.5304  0.7506 -0.0914
  143OSM   C14F15782   4.881   5.040   4.820 -0.0921 -0.2998  0.5786
  143OSM   H14F15783   4.773   5.062   4.833 -0.0210  0.0215  0.6266
  143OSM   H14G15784   4.898   4.938   4.862  0.9574  0.2333  1.4845
  143OSM   C15F15785   4.908   5.038   4.675  0.3261 -0.1991  0.5438
  143OSM   H15F15786   4.850   4.964   4.616  1.3230 -0.2740 -0.3644
  143OSM   H15G15787   5.012   5.004   4.656  0.5887  1.7311 -2.0425
  143OSM   C16F15788   4.898   5.170   4.601  0.6467  0.7013  0.4148
  143OSM   H16F15789   4.960   5.252   4.642  1.3368  0.3285  0.1279
  143OSM   H16G15790   4.796   5.213   4.591  0.2841 -0.5418 -2.2383
  143OSM   C17F15791   4.960   5.153   4.460  0.0420 -0.5453 -0.3265
  143OSM   H17F15792   4.901   5.089   4.391 -0.0622  1.5100 -2.2540
  143OSM   H17G15793   5.065   5.120   4.470  0.0637 -0.8642 -1.4400
  143OSM   C18F15794   4.967   5.287   4.384  0.3009  0.9296  0.5329
  143OSM   H18F15795   4.863   5.321   4.364 -0.6143 -0.6656  2.2746
  143OSM   H18G15796   5.018   5.273   4.287 -0.7567 -0.2986  0.1266
  143OSM   H18H15797   5.015   5.367   4.444  2.7125 -0.4985  0.6111
  144OSM      N15798   6.315   5.280   6.859  0.5172 -0.4915 -0.5500
  144OSM    C1515799   6.356   5.147   6.814  0.9862 -0.4161 -0.7112
  144OSM   H15A15800   6.334   5.074   6.891  2.6614 -0.8249 -0.5937
  144OSM   H15B15801   6.463   5.151   6.804  1.3475 -1.0665  2.1644
  144OSM   H15C15802   6.310   5.127   6.718  0.6873  3.0895 -1.4126
  144OSM    C1415803   6.401   5.330   6.975  0.4625 -0.0156  1.0187
  144OSM   H14A15804   6.402   5.252   7.050 -0.5097 -1.3785 -0.3472
  144OSM   H14B15805   6.368   5.424   7.018  0.8703 -0.1452  1.6243
  144OSM   H14C15806   6.493   5.369   6.933  1.1123  0.5866  2.8890
  144OSM    C1315807   6.316   5.376   6.747  0.3979 -0.2690  0.3200
  144OSM   H13A15808   6.258   5.464   6.771 -0.8287 -0.9687 -0.0512
  144OSM   H13B15809   6.263   5.341   6.660 -0.9039 -0.4043  1.1531
  144OSM   H13C15810   6.415   5.411   6.721  1.3701 -2.2363  1.2063
  144OSM    C1215811   6.162   5.278   6.910 -0.1651  0.0404  0.6862
  144OSM   H12A15812   6.157   5.186   6.966 -1.0564  0.4418  1.2916
  144OSM   H12B15813   6.091   5.276   6.829  0.1953  3.1122  0.1694
  144OSM    C1115814   6.117   5.399   7.000 -0.4269  0.9321 -0.4410
  144OSM   H11A15815   6.142   5.376   7.106  0.5992 -1.1553 -1.0836
  144OSM   H11B15816   6.006   5.395   7.003 -0.3595 -2.0245  1.3209
  144OSM      P15817   6.072   5.636   6.903 -0.3008  0.4100  0.0491
  144OSM    O1315818   5.957   5.656   6.991  0.0849 -0.3068 -0.0612
  144OSM    O1415819   6.148   5.756   6.875  0.4880 -0.0560  0.0164
  144OSM    O1115820   6.025   5.569   6.770  0.4803  0.8174  0.0449
  144OSM    O1215821   6.170   5.531   6.966  0.5347  0.1468  0.1458
  144OSM    C1S15822   6.039   5.652   6.650  1.0888 -0.2307 -0.5996
  144OSM    H1S15823   6.142   5.693   6.643  0.8785  0.2895 -0.7252
  144OSM    H1T15824   5.962   5.732   6.656 -0.1963 -1.5254  0.7105
  144OSM     NF15825   6.036   5.661   6.411  0.3277  0.3182  0.4952
  144OSM    HNF15826   5.950   5.692   6.369  0.8743 -1.0851 -1.8413
  144OSM    C2S15827   6.015   5.571   6.519  0.8744  0.2263  0.5492
  144OSM    H2S15828   6.089   5.488   6.518 -0.1677 -0.7564  1.2767
  144OSM    C3S15829   5.870   5.503   6.516 -0.0384  0.3188  0.0682
  144OSM    H3S15830   5.789   5.580   6.518 -0.8877 -0.4592 -1.9203
  144OSM     O315831   5.838   5.432   6.641  0.0205 -0.1049 -0.0346
  144OSM    HO315832   5.891   5.475   6.709 -0.8545 -0.2116  0.7450
  144OSM    C4S15833   5.854   5.414   6.399  0.3742 -0.3491  0.2382
  144OSM    H4S15834   5.940   5.348   6.382  0.4736 -0.5603  1.4578
  144OSM    C5S15835   5.743   5.410   6.324 -0.3600  0.7903  0.6768
  144OSM    H5S15836   5.664   5.483   6.347 -2.0279 -0.1182 -1.8443
  144OSM    C6S15837   5.726   5.313   6.210  0.2347  0.0393 -0.1089
  144OSM    H6S15838   5.646   5.243   6.243  1.1411 -0.8686  0.1762
  144OSM    H6T15839   5.823   5.263   6.189  0.8707  1.3776 -0.4702
  144OSM    C7S15840   5.698   5.397   6.080  0.1292 -0.1215 -0.0543
  144OSM    H7S15841   5.599   5.446   6.089 -0.9442 -1.9423 -1.2257
  144OSM    H7T15842   5.687   5.325   5.996 -0.2308  0.3126 -0.3836
  144OSM    C8S15843   5.816   5.489   6.045  0.1640 -0.1772 -0.4006
  144OSM    H8S15844   5.906   5.425   6.031  1.2166  1.2230 -0.2151
  144OSM    H8T15845   5.841   5.566   6.121  0.3420 -1.7910  1.2403
  144OSM    C9S15846   5.787   5.572   5.912  0.3846  0.6157 -0.0867
  144OSM    H9S15847   5.869   5.647   5.915  3.4086 -2.5050  1.7894
  144OSM    H9T15848   5.685   5.617   5.913  1.6685  3.8350 -0.7676
  144OSM   C10S15849   5.817   5.490   5.785  0.0075  0.5392  0.4026
  144OSM   H10S15850   5.727   5.427   5.771  0.0134  0.8370 -1.2196
  144OSM   H10T15851   5.903   5.421   5.794  0.5750  1.0634 -0.8563
  144OSM   C11S15852   5.836   5.575   5.663 -0.6478 -0.2859 -0.5912
  144OSM   H11S15853   5.859   5.510   5.576 -1.0275 -1.0666 -0.1135
  144OSM   H11T15854   5.938   5.621   5.669 -0.7930 -0.0875  0.7086
  144OSM   C12S15855   5.733   5.685   5.630  0.4265 -0.0504  0.5843
  144OSM   H12S15856   5.758   5.776   5.689 -0.3149  0.3512  0.2917
  144OSM   H12T15857   5.630   5.652   5.656 -0.1905  1.4218  0.1005
  144OSM   C13S15858   5.730   5.706   5.480  0.1746  0.1465 -0.5938
  144OSM   H13S15859   5.738   5.611   5.423 -0.0547  0.6732 -1.5312
  144OSM   H13T15860   5.824   5.755   5.446  1.2230 -0.6349  1.0514
  144OSM   C14S15861   5.630   5.809   5.432 -0.0176  0.1512  0.5467
  144OSM   H14S15862   5.631   5.898   5.499 -2.5813  0.3536  0.4381
  144OSM   H14T15863   5.534   5.753   5.433 -0.6427  1.0057  4.7681
  144OSM   C15S15864   5.664   5.854   5.286  0.3439  0.6287  0.1953
  144OSM   H15S15865   5.666   5.767   5.217  1.1061 -0.1479  1.1554
  144OSM   H15T15866   5.770   5.890   5.290 -0.0703  1.9295 -0.1262
  144OSM   C16S15867   5.549   5.953   5.250 -0.2407  0.1772  0.7404
  144OSM   H16S15868   5.537   6.037   5.323  0.5332 -1.1261  2.4403
  144OSM   H16T15869   5.460   5.887   5.254  0.4221 -1.1431 -2.9989
  144OSM   C17S15870   5.556   5.997   5.106 -0.1755 -0.1792 -0.0797
  144OSM   H17S15871   5.663   6.011   5.079  0.4308  0.3342  2.3468
  144OSM   H17T15872   5.500   6.091   5.084 -1.0864 -0.3544  1.3528
  144OSM   C18S15873   5.502   5.901   5.004  1.3611  0.0349 -0.1745
  144OSM   H18S15874   5.410   5.848   5.036  1.8656 -1.6159 -1.3383
  144OSM   H18T15875   5.577   5.823   4.980  1.0998 -0.4463  0.5530
  144OSM   H18U15876   5.465   5.956   4.915 -0.8344  0.2916  0.8165
  144OSM    C1F15877   6.156   5.699   6.374 -0.2418  0.4000 -0.4309
  144OSM     OF15878   6.254   5.649   6.426  0.1292  0.1386 -0.4291
  144OSM    C2F15879   6.157   5.823   6.289 -0.6895  0.2398 -0.0467
  144OSM    H2F15880   6.251   5.883   6.296 -1.0711  0.9037 -0.4857
  144OSM    H2G15881   6.073   5.892   6.312  0.1077  0.9653  0.8180
  144OSM    C3F15882   6.137   5.779   6.143  0.0140  0.2791  0.2829
  144OSM    H3F15883   6.043   5.726   6.117 -0.0323  1.1498 -1.5685
  144OSM    H3G15884   6.227   5.719   6.117 -0.9912 -0.9770 -0.4145
  144OSM    C4F15885   6.137   5.898   6.040  0.1294  0.3685 -0.3243
  144OSM    H4F15886   6.235   5.945   6.060  0.6535 -1.1896  0.9938
  144OSM    H4G15887   6.056   5.969   6.068 -2.9937 -3.1712  0.4716
  144OSM    C5F15888   6.136   5.859   5.890 -0.2478 -0.1067 -0.1503
  144OSM    H5F15889   6.037   5.820   5.860 -0.1487 -0.9049  0.5219
  144OSM    H5G15890   6.213   5.781   5.871  1.6282  1.5733  0.1594
  144OSM    C6F15891   6.166   5.970   5.790  0.3588 -0.1610 -0.3415
  144OSM    H6F15892   6.264   6.019   5.804 -0.1032  0.5768  0.4122
  144OSM    H6G15893   6.101   6.060   5.800  2.9836  1.7874  0.1505
  144OSM    C7F15894   6.154   5.920   5.642 -1.0176  0.1005 -0.8573
  144OSM    H7F15895   6.059   5.862   5.640 -0.7070 -0.4107 -1.9971
  144OSM    H7G15896   6.232   5.842   5.627  1.0930  1.8271  0.6051
  144OSM    C8F15897   6.155   6.027   5.538  0.4865  0.3097  0.4428
  144OSM    H8F15898   6.073   6.099   5.556  2.1670  2.6089 -0.6119
  144OSM    H8G15899   6.145   5.979   5.438 -1.3727  0.2121  0.6442
  144OSM    C9F15900   6.286   6.100   5.535  0.0608  0.8011  0.1192
  144OSM    H9F15901   6.316   6.126   5.637 -4.2961 -0.2386  1.8631
  144OSM   C10F15902   6.366   6.138   5.432  0.6700 -0.6803  0.1500
  144OSM   H10F15903   6.461   6.190   5.452  0.7080  0.2947 -2.2595
  144OSM   C11F15904   6.335   6.119   5.284 -0.0028 -0.1055  0.1185
  144OSM   H11F15905   6.240   6.063   5.270  0.1409  0.1524 -2.3291
  144OSM   H11G15906   6.418   6.061   5.239  1.4801  1.1022  1.2125
  144OSM   C12F15907   6.308   6.256   5.213 -0.3936  0.5814 -0.5625
  144OSM   H12F15908   6.403   6.313   5.216 -0.9146  1.7488 -3.1394
  144OSM   H12G15909   6.233   6.320   5.264 -0.2193 -0.4665  1.0818
  144OSM   C13F15910   6.274   6.234   5.067  0.0301  0.4343  0.3047
  144OSM   H13F15911   6.247   6.334   5.028  0.9321  1.3200  1.8686
  144OSM   H13G15912   6.187   6.166   5.057  1.8851 -2.5329  2.5599
  144OSM   C14F15913   6.384   6.193   4.972 -0.6134  0.5387  0.5202
  144OSM   H14F15914   6.433   6.095   4.990  3.4810  2.4946  0.9582
  144OSM   H14G15915   6.469   6.263   4.973  0.1674 -0.3873  0.2590
  144OSM   C15F15916   6.334   6.183   4.827  0.3410  0.7470  0.2199
  144OSM   H15F15917   6.235   6.134   4.838  0.1586  0.3323 -2.5123
  144OSM   H15G15918   6.405   6.124   4.766  1.4268  1.5889  0.6325
  144OSM   C16F15919   6.292   6.317   4.760 -0.6440 -0.0122  0.2730
  144OSM   H16F15920   6.388   6.373   4.753  0.4216 -1.8252 -0.6505
  144OSM   H16G15921   6.223   6.372   4.827  0.4868  0.8591  0.7661
  144OSM   C17F15922   6.228   6.313   4.626 -0.8699 -0.1659  0.1528
  144OSM   H17F15923   6.122   6.342   4.644 -0.6161  0.3090  0.8882
  144OSM   H17G15924   6.230   6.208   4.590 -1.8701  0.0396 -0.5419
  144OSM   C18F15925   6.292   6.385   4.506 -0.1801 -0.2103 -0.3574
  144OSM   H18F15926   6.211   6.412   4.435  1.1785  0.4703 -1.7252
  144OSM   H18G15927   6.372   6.330   4.452  2.1250  1.0383  1.5986
  144OSM   H18H15928   6.329   6.484   4.539 -1.3638 -0.2124  1.0457
  145OSM      N15929   0.479   0.606   6.935 -0.1902  0.0903  0.6716
  145OSM    C1515930   0.609   0.600   7.009 -0.8153 -0.3055 -0.1784
  145OSM   H15A15931   0.643   0.701   7.027 -0.1869 -0.9889  2.9584
  145OSM   H15B15932   0.684   0.545   6.955 -1.8409 -0.3230 -1.6620
  145OSM   H15C15933   0.593   0.543   7.099  1.5891 -1.2531 -0.3004
  145OSM    C1415934   0.422   0.463   6.931 -0.3071  0.3149  0.1431
  145OSM   H14A15935   0.452   0.415   7.023  2.0540  1.0397 -0.1670
  145OSM   H14B15936   0.468   0.401   6.855  1.5256 -0.2162  1.6012
  145OSM   H14C15937   0.315   0.458   6.921 -0.1618 -1.1510 -1.2027
  145OSM    C1315938   0.373   0.691   7.008 -0.0414  0.4257 -0.2399
  145OSM   H13A15939   0.283   0.688   6.947 -0.8520  1.3649  0.8773
  145OSM   H13B15940   0.397   0.796   7.011 -1.8942  0.9098 -1.0813
  145OSM   H13C15941   0.351   0.666   7.110  0.9430  1.5586  0.2718
  145OSM    C1215942   0.509   0.659   6.798 -0.5420  0.2882 -0.0817
  145OSM   H12A15943   0.543   0.762   6.798 -0.2687  0.3279  3.4246
  145OSM   H12B15944   0.419   0.643   6.740  0.5564  0.2137 -1.8391
  145OSM    C1115945   0.601   0.571   6.706  0.0625 -0.0948 -0.1383
  145OSM   H11A15946   0.706   0.555   6.739 -0.2769 -2.0834  0.1219
  145OSM   H11B15947   0.616   0.625   6.611  0.1749  0.0476 -0.0407
  145OSM      P15948   0.448   0.417   6.559 -0.0479 -0.1845 -0.3954
  145OSM    O1315949   0.397   0.275   6.566  0.1320 -0.5103  0.8919
  145OSM    O1415950   0.345   0.523   6.565  0.0420  0.5860 -0.1662
  145OSM    O1115951   0.543   0.444   6.434  0.2673  0.2023 -0.1582
  145OSM    O1215952   0.545   0.440   6.687 -0.5818 -0.8345  0.4740
  145OSM    C1S15953   0.674   0.390   6.419 -0.6623  0.3604  0.2160
  145OSM    H1S15954   0.692   0.301   6.484  0.5131  0.3897 -0.0411
  145OSM    H1T15955   0.755   0.452   6.465 -0.3178 -0.7882  1.2254
  145OSM     NF15956   0.827   0.266   6.278  0.5815 -0.7154 -0.3228
  145OSM    HNF15957   0.915   0.312   6.268 -0.0019  1.3805  2.7976
  145OSM    C2S15958   0.709   0.349   6.279  0.7318  0.0655  0.9691
  145OSM    H2S15959   0.629   0.285   6.234 -0.3359  0.1898  2.5983
  145OSM    C3S15960   0.721   0.479   6.191  0.1028  0.0175 -0.0450
  145OSM    H3S15961   0.805   0.544   6.225  0.1322  0.8806 -1.6909
  145OSM     O315962   0.596   0.543   6.209  0.3525 -0.3081  0.3231
  145OSM    HO315963   0.573   0.508   6.296 -0.9548  0.0449  0.1356
  145OSM    C4S15964   0.725   0.443   6.046  0.1744  0.5252 -0.5247
  145OSM    H4S15965   0.631   0.410   6.000  0.4040  3.0557 -3.0591
  145OSM    C5S15966   0.830   0.454   5.968  0.6968 -0.2479 -0.1521
  145OSM    H5S15967   0.928   0.487   6.006 -0.0175  1.6279  0.1955
  145OSM    C6S15968   0.813   0.429   5.819  0.4309  1.0686  0.3122
  145OSM    H6S15969   0.847   0.516   5.758  2.5607  0.7433  0.9852
  145OSM    H6T15970   0.712   0.396   5.786  0.9521  0.7051 -1.0041
  145OSM    C7S15971   0.903   0.302   5.803  0.0617  0.6262  0.0398
  145OSM    H7S15972   0.886   0.219   5.875 -1.2810 -0.3783 -1.3554
  145OSM    H7T15973   1.011   0.327   5.812  0.6361 -1.8888  1.0689
  145OSM    C8S15974   0.879   0.231   5.666 -0.3760  0.1032 -0.4884
  145OSM    H8S15975   0.772   0.206   5.646 -0.7605  0.5356  0.9749
  145OSM    H8T15976   0.937   0.136   5.672 -0.1305  0.3259  0.9749
  145OSM    C9S15977   0.939   0.306   5.542  0.1212  0.0021  0.1164
  145OSM    H9S15978   0.987   0.238   5.469  0.2618 -0.4311  0.6074
  145OSM    H9T15979   1.023   0.370   5.580 -1.0684  1.8908 -0.2769
  145OSM   C10S15980   0.843   0.386   5.467 -0.6699 -0.1375  0.3508
  145OSM   H10S15981   0.786   0.445   5.541  1.5581  0.8065  1.4322
  145OSM   H10T15982   0.775   0.323   5.406  0.0002  0.0402 -0.6192
  145OSM   C11S15983   0.911   0.481   5.369 -0.9989 -0.1391  0.1898
  145OSM   H11S15984   0.958   0.421   5.288  0.1380  0.2834  0.5077
  145OSM   H11T15985   1.001   0.537   5.401 -1.2813  0.2965  0.2298
  145OSM   C12S15986   0.814   0.584   5.309  0.7630 -0.3843  0.1633
  145OSM   H12S15987   0.872   0.635   5.230  2.7359 -1.8474  0.5780
  145OSM   H12T15988   0.789   0.654   5.392  2.2423  0.5580 -0.1587
  145OSM   C13S15989   0.695   0.516   5.240  0.3022  0.2708 -0.4482
  145OSM   H13S15990   0.633   0.459   5.313  0.4341  0.4902 -0.1604
  145OSM   H13T15991   0.724   0.447   5.158 -1.5312  0.9366 -1.7184
  145OSM   C14S15992   0.605   0.623   5.184  1.0596 -0.4459 -0.0905
  145OSM   H14S15993   0.663   0.697   5.125  0.1939  0.4918  0.2016
  145OSM   H14T15994   0.569   0.676   5.275 -0.0366  0.2677 -0.9100
  145OSM   C15S15995   0.483   0.558   5.106 -0.1642 -0.0897 -0.2182
  145OSM   H15S15996   0.450   0.463   5.154 -1.5358 -0.8598 -2.5021
  145OSM   H15T15997   0.515   0.541   5.001 -0.6826  0.9767 -0.5614
  145OSM   C16S15998   0.364   0.653   5.102  0.5816 -0.3345  0.2803
  145OSM   H16S15999   0.291   0.608   5.032  1.5799 -0.8653 -0.4391
  145OSM   H16T16000   0.395   0.752   5.062  0.1238 -0.3655 -0.1606
  145OSM   C17S16001   0.281   0.689   5.234 -0.4024  0.6322 -0.0249
  145OSM   H17S16002   0.183   0.730   5.201 -0.0945 -0.3707 -2.3734
  145OSM   H17T16003   0.345   0.762   5.288  0.7586 -2.0458  2.4640
  145OSM   C18S16004   0.248   0.578   5.332  0.0293  0.7429 -0.2434
  145OSM   H18S16005   0.182   0.495   5.297 -0.1920  0.6703  0.3234
  145OSM   H18T16006   0.180   0.612   5.413 -1.7070 -0.2513 -1.2226
  145OSM   H18U16007   0.348   0.547   5.369  0.7425  1.5256 -1.4716
  145OSM    C1F16008   0.826   0.133   6.313 -0.5827  0.0717  0.4061
  145OSM     OF16009   0.725   0.078   6.353  0.4985 -0.4402  0.6201
  145OSM    C2F16010   0.952   0.048   6.291  0.2106  0.2071 -0.4502
  145OSM    H2F16011   0.934  -0.061   6.307 -0.4365  0.0274 -2.1740
  145OSM    H2G16012   1.021   0.069   6.376  1.9345 -2.1291 -1.1435
  145OSM    C3F16013   1.029   0.080   6.164  0.4260 -0.7875  0.5396
  145OSM    H3F16014   1.078   0.179   6.152  0.6673 -1.1714 -2.2261
  145OSM    H3G16015   0.972   0.054   6.073 -0.2459  0.1998  0.6708
  145OSM    C4F16016   1.149  -0.018   6.145  0.1476  0.5496  0.0894
  145OSM    H4F16017   1.115  -0.123   6.158  0.1849  0.6560  1.1874
  145OSM    H4G16018   1.234  -0.002   6.214  1.4888 -1.7778 -0.9093
  145OSM    C5F16019   1.213  -0.013   6.003  0.1021 -0.4813 -0.4955
  145OSM    H5F16020   1.294  -0.087   6.022 -0.9804 -0.9384  2.9304
  145OSM    H5G16021   1.260   0.087   5.992 -1.1698  0.6139  2.8442
  145OSM    C6F16022   1.120  -0.042   5.883 -0.3283 -0.2510  0.6862
  145OSM    H6F16023   1.040   0.032   5.863 -0.5514 -0.6014  0.2599
  145OSM    H6G16024   1.062  -0.132   5.914 -1.4523 -0.0982 -0.8346
  145OSM    C7F16025   1.204  -0.085   5.760 -0.6308 -0.6496  0.2728
  145OSM    H7F16026   1.130  -0.129   5.689  0.8560 -0.3691 -1.5098
  145OSM    H7G16027   1.264  -0.174   5.789 -1.5966 -1.1395  0.8082
  145OSM    C8F16028   1.316   0.007   5.708  0.3614  0.4675 -0.0549
  145OSM    H8F16029   1.374  -0.054   5.636 -1.2484  0.1245 -1.1024
  145OSM    H8G16030   1.378   0.041   5.794  0.0870 -1.3961  0.9410
  145OSM    C9F16031   1.253   0.121   5.639  0.3455  0.4741  0.4950
  145OSM    H9F16032   1.195   0.184   5.708 -0.9503  0.9482 -0.9680
  145OSM   C10F16033   1.254   0.147   5.508 -0.2202 -0.1341 -0.3736
  145OSM   H10F16034   1.198   0.237   5.478 -1.4207 -0.1496  1.6400
  145OSM   C11F16035   1.311   0.062   5.397 -0.0026  0.0043 -0.4738
  145OSM   H11F16036   1.227   0.042   5.327 -1.0857 -1.0527  1.0915
  145OSM   H11G16037   1.339  -0.040   5.430  0.2727  0.3260  0.2932
  145OSM   C12F16038   1.444   0.111   5.333  0.1764 -0.4586 -0.6322
  145OSM   H12F16039   1.530   0.112   5.402  0.8489  2.2002 -1.3985
  145OSM   H12G16040   1.427   0.216   5.301  1.5389  0.0062  0.1060
  145OSM   C13F16041   1.490   0.031   5.207 -0.1835 -0.3276 -0.1168
  145OSM   H13F16042   1.503  -0.074   5.241 -3.2349 -0.4017  1.0729
  145OSM   H13G16043   1.589   0.072   5.174 -0.9501  2.9550  1.2301
  145OSM   C14F16044   1.392   0.035   5.088  0.3787 -0.3747  0.8884
  145OSM   H14F16045   1.348   0.137   5.092 -0.0156 -0.5660  1.5997
  145OSM   H14G16046   1.304  -0.031   5.096 -0.8883  0.8672 -1.5350
  145OSM   C15F16047   1.446   0.013   4.941  0.0817  0.7193  0.2851
  145OSM   H15F16048   1.524   0.089   4.919  0.0764  0.5756 -0.2384
  145OSM   H15G16049   1.364   0.022   4.868  2.4013  1.2247 -2.4352
  145OSM   C16F16050   1.512  -0.128   4.909 -0.1760  0.3652 -0.8529
  145OSM   H16F16051   1.436  -0.208   4.925  0.5000 -0.1205 -0.0093
  145OSM   H16G16052   1.601  -0.145   4.972 -1.6150  1.2759  1.5655
  145OSM   C17F16053   1.550  -0.147   4.755 -0.0830  0.1954  0.0824
  145OSM   H17F16054   1.611  -0.065   4.712  0.9692 -0.9367 -0.6447
  145OSM   H17G16055   1.450  -0.150   4.705 -0.7041 -0.1247  1.2978
  145OSM   C18F16056   1.618  -0.277   4.726 -0.2764  0.0615  0.4147
  145OSM   H18F16057   1.726  -0.274   4.755  0.0321  0.8854 -0.7162
  145OSM   H18G16058   1.631  -0.298   4.617  0.6059  2.3773 -0.0012
  145OSM   H18H16059   1.567  -0.359   4.779 -1.8447  0.4835 -0.3810
  146OSM      N16060   0.237   2.131   7.235  0.3847  1.0504 -0.7920
  146OSM    C1516061   0.368   2.138   7.310 -0.3712 -0.0830 -0.0492
  146OSM   H15A16062   0.435   2.066   7.266  0.9866  1.6041 -0.8528
  146OSM   H15B16063   0.349   2.121   7.415 -2.7554  0.3878 -0.3375
  146OSM   H15C16064   0.419   2.234   7.306  0.9705 -0.7705 -0.0878
  146OSM    C1416065   0.171   2.002   7.228 -0.2493  0.1490  0.0090
  146OSM   H14A16066   0.172   1.947   7.321  0.6165  0.8189  0.4195
  146OSM   H14B16067   0.227   1.934   7.165  1.7287  2.0073 -0.3548
  146OSM   H14C16068   0.073   2.006   7.185 -0.2049 -0.0536 -0.1116
  146OSM    C1316069   0.144   2.229   7.294 -0.2423 -0.3505 -0.4068
  146OSM   H13A16070   0.121   2.196   7.394 -0.4224  0.7127 -0.0874
  146OSM   H13B16071   0.053   2.231   7.236 -0.8976 -0.5979  0.5857
  146OSM   H13C16072   0.176   2.332   7.296 -1.9039  0.1847  1.0329
  146OSM    C1216073   0.271   2.180   7.089 -0.2345  0.2397  0.3499
  146OSM   H12A16074   0.338   2.117   7.033 -1.6461  0.3131 -1.5122
  146OSM   H12B16075   0.310   2.280   7.100  0.4709  0.0376 -0.2404
  146OSM    C1116076   0.155   2.185   6.999 -0.1651  0.0369  0.6936
  146OSM   H11A16077   0.194   2.241   6.912 -0.8976  0.1231  0.4128
  146OSM   H11B16078   0.071   2.245   7.042 -0.8777 -0.0994 -0.4703
  146OSM      P16079  -0.018   2.034   6.868 -0.2847  0.1217 -0.0488
  146OSM    O1316080  -0.017   1.904   6.797 -0.2123  0.1772  0.3936
  146OSM    O1416081  -0.132   2.050   6.961  0.3729 -0.1763 -0.1858
  146OSM    O1116082  -0.016   2.149   6.759  0.1339 -0.1145 -0.5793
  146OSM    O1216083   0.120   2.055   6.950  0.2204  0.0256 -0.2235
  146OSM    C1S16084   0.094   2.155   6.666  0.5487  0.4244  0.6239
  146OSM    H1S16085   0.084   2.066   6.601 -1.6189  0.7227  0.4845
  146OSM    H1T16086   0.187   2.149   6.727  1.5449 -2.4091 -1.0018
  146OSM     NF16087   0.194   2.277   6.477  0.3129 -0.0983 -0.6628
  146OSM    HNF16088   0.284   2.316   6.497 -0.4850  2.5048 -1.7558
  146OSM    C2S16089   0.102   2.287   6.585  0.1209  0.5594 -0.7200
  146OSM    H2S16090   0.002   2.302   6.541 -0.4453  1.7462  0.8511
  146OSM    C3S16091   0.114   2.408   6.679  0.2044 -0.0506 -0.1468
  146OSM    H3S16092   0.216   2.412   6.724  1.6525  0.7246 -3.2570
  146OSM     O316093   0.037   2.394   6.801 -0.2073  0.6668 -0.0564
  146OSM    HO316094  -0.012   2.312   6.792  1.8597 -1.0997  2.9097
  146OSM    C4S16095   0.095   2.535   6.612  0.4462  0.5727  0.0058
  146OSM    H4S16096   0.194   2.579   6.590  1.1341 -1.2118 -0.6379
  146OSM    C5S16097  -0.020   2.599   6.570 -0.7590 -0.2477 -0.4101
  146OSM    H5S16098  -0.115   2.544   6.579  1.1655 -3.8042  0.2120
  146OSM    C6S16099  -0.029   2.729   6.498 -0.3382 -0.4312 -0.4508
  146OSM    H6S16100   0.062   2.791   6.512 -0.6660 -0.2650  1.0672
  146OSM    H6T16101  -0.108   2.779   6.559  0.7589  1.6436 -0.6337
  146OSM    C7S16102  -0.081   2.715   6.348  0.0764  0.3009  0.3574
  146OSM    H7S16103  -0.178   2.660   6.352  0.4032 -0.3246 -0.1882
  146OSM    H7T16104  -0.006   2.641   6.313 -2.2755 -1.6494 -0.8319
  146OSM    C8S16105  -0.079   2.848   6.267 -0.1603  0.1893  0.5998
  146OSM    H8S16106   0.025   2.865   6.234 -0.7012 -1.6010 -2.3986
  146OSM    H8T16107  -0.104   2.927   6.342  1.9821  0.4819  1.0615
  146OSM    C9S16108  -0.169   2.840   6.135  0.3514 -0.8793 -0.5877
  146OSM    H9S16109  -0.162   2.949   6.114  0.6086 -0.8800 -0.5175
  146OSM    H9T16110  -0.267   2.797   6.165  0.1306 -0.6084 -0.9181
  146OSM   C10S16111  -0.115   2.747   6.025  0.6181  0.1867  0.0622
  146OSM   H10S16112  -0.113   2.643   6.064 -1.5488 -0.1554 -0.6035
  146OSM   H10T16113  -0.010   2.760   5.992  1.0640 -2.2368  0.3382
  146OSM   C11S16114  -0.203   2.750   5.901 -0.3651 -0.8339  0.0854
  146OSM   H11S16115  -0.221   2.854   5.866  3.3657  0.7779  2.3946
  146OSM   H11T16116  -0.302   2.704   5.922  1.2137 -4.8860 -0.6274
  146OSM   C12S16117  -0.148   2.662   5.792 -0.1903  0.3475  0.0685
  146OSM   H12S16118  -0.165   2.560   5.832  0.3966 -0.2040 -1.0345
  146OSM   H12T16119  -0.044   2.689   5.764 -0.6983  0.1245 -2.2397
  146OSM   C13S16120  -0.233   2.675   5.668 -0.1218 -0.3977 -0.3557
  146OSM   H13S16121  -0.201   2.769   5.617  1.9981 -0.6004  0.5073
  146OSM   H13T16122  -0.340   2.690   5.696  0.6247 -0.8382  3.2118
  146OSM   C14S16123  -0.221   2.556   5.579 -0.1414  0.5692 -0.1255
  146OSM   H14S16124  -0.325   2.518   5.581 -0.2349  0.8272 -0.0043
  146OSM   H14T16125  -0.154   2.476   5.617 -1.0748  0.0435  0.4568
  146OSM   C15S16126  -0.192   2.577   5.426  0.4303 -0.3135 -0.5924
  146OSM   H15S16127  -0.088   2.614   5.422 -0.7462  3.7565  1.0776
  146OSM   H15T16128  -0.258   2.651   5.375 -1.4142 -0.6954  1.1353
  146OSM   C16S16129  -0.206   2.449   5.350 -0.8606  0.2157  0.0360
  146OSM   H16S16130  -0.314   2.433   5.330 -0.6153 -2.5102  0.4745
  146OSM   H16T16131  -0.160   2.366   5.408  0.1432  2.1153  2.1221
  146OSM   C17S16132  -0.131   2.457   5.213  0.2400  0.2861  0.0917
  146OSM   H17S16133  -0.026   2.491   5.230  0.4857 -0.9688  1.2283
  146OSM   H17T16134  -0.185   2.534   5.154 -0.9548 -0.0517  0.7170
  146OSM   C18S16135  -0.140   2.328   5.139  0.0762  0.1863 -0.6319
  146OSM   H18S16136  -0.094   2.334   5.038  2.9146 -0.5435  0.5237
  146OSM   H18T16137  -0.246   2.296   5.132  0.0470  0.2587 -0.5230
  146OSM   H18U16138  -0.086   2.246   5.190 -2.0566  0.3161  2.0245
  146OSM    C1F16139   0.172   2.198   6.362 -0.6138 -0.7128 -0.1747
  146OSM     OF16140   0.070   2.125   6.357 -0.7255  0.1010 -0.1064
  146OSM    C2F16141   0.267   2.198   6.246  0.2524 -0.4273 -0.5648
  146OSM    H2F16142   0.306   2.098   6.220 -3.5490 -1.7611 -1.8654
  146OSM    H2G16143   0.350   2.268   6.271 -1.1469  1.3916 -0.7771
  146OSM    C3F16144   0.203   2.266   6.119 -0.1969 -0.1582  0.1585
  146OSM    H3F16145   0.289   2.289   6.052 -0.3702 -2.1175 -0.8231
  146OSM    H3G16146   0.166   2.366   6.148 -1.3595 -0.7102  0.6278
  146OSM    C4F16147   0.102   2.178   6.044 -0.3243  0.6187 -0.6525
  146OSM    H4F16148   0.024   2.154   6.119  0.1946  0.2172 -0.2390
  146OSM    H4G16149   0.158   2.091   6.006 -0.2484  1.6144 -2.9819
  146OSM    C5F16150   0.022   2.240   5.930  0.5920  0.1216 -0.3452
  146OSM    H5F16151   0.103   2.288   5.870  2.3698 -1.9916  0.2209
  146OSM    H5G16152  -0.051   2.317   5.961  0.8433 -0.0344  0.6585
  146OSM    C6F16153  -0.073   2.139   5.859  0.7514 -0.5014  0.4746
  146OSM    H6F16154  -0.147   2.097   5.930 -0.9839  1.6929  0.0780
  146OSM    H6G16155  -0.009   2.060   5.813  0.0652 -2.3075  2.4655
  146OSM    C7F16156  -0.164   2.207   5.750 -0.5412 -0.3722 -0.7881
  146OSM    H7F16157  -0.086   2.248   5.682 -0.6810 -0.8148 -1.2240
  146OSM    H7G16158  -0.218   2.285   5.807  0.8363  0.4454 -0.5477
  146OSM    C8F16159  -0.263   2.110   5.689 -0.0707 -0.3946  0.4356
  146OSM    H8F16160  -0.330   2.082   5.772 -2.2496  0.2541 -1.0316
  146OSM    H8G16161  -0.198   2.029   5.648 -0.1516  0.1011 -0.7073
  146OSM    C9F16162  -0.324   2.186   5.574  0.2311 -0.9656  0.3228
  146OSM    H9F16163  -0.354   2.288   5.605  1.0632 -1.2223  2.1138
  146OSM   C10F16164  -0.334   2.147   5.444 -0.1737 -0.2849  0.0920
  146OSM   H10F16165  -0.382   2.207   5.366  0.0432  0.3493  0.4389
  146OSM   C11F16166  -0.274   2.018   5.397 -0.9644 -0.3044 -0.8634
  146OSM   H11F16167  -0.277   1.935   5.470  0.2007  0.8104  0.5147
  146OSM   H11G16168  -0.165   2.035   5.379 -0.6980 -0.9597  0.0647
  146OSM   C12F16169  -0.322   1.962   5.261  0.0887 -0.2160  0.1887
  146OSM   H12F16170  -0.251   1.881   5.235 -1.0629 -0.9409 -0.8293
  146OSM   H12G16171  -0.317   2.042   5.184 -0.9126  0.5880  0.9394
  146OSM   C13F16172  -0.466   1.904   5.282 -0.1812 -1.0370  0.1713
  146OSM   H13F16173  -0.534   1.986   5.312  0.2014 -0.9676  0.8580
  146OSM   H13G16174  -0.463   1.829   5.364  1.1209 -2.5302 -1.1592
  146OSM   C14F16175  -0.534   1.836   5.165 -0.3361 -0.3570  0.1374
  146OSM   H14F16176  -0.477   1.741   5.149  1.4115  0.5073  0.9440
  146OSM   H14G16177  -0.625   1.791   5.209  0.4286 -0.5522  1.5753
  146OSM   C15F16178  -0.548   1.925   5.040  0.0535 -0.1320 -0.2168
  146OSM   H15F16179  -0.447   1.964   5.012  0.8540 -1.5209  0.6323
  146OSM   H15G16180  -0.607   2.016   5.066  0.3316 -0.0328  0.0770
  146OSM   C16F16181  -0.609   1.868   4.910 -0.0319  0.2595  0.8039
  146OSM   H16F16182  -0.710   1.824   4.919  0.8833 -2.1994 -0.1411
  146OSM   H16G16183  -0.547   1.778   4.888 -0.8625 -1.0029  3.2229
  146OSM   C17F16184  -0.615   1.978   4.797  0.0184 -0.1737  0.0240
  146OSM   H17F16185  -0.671   2.069   4.829  1.0496  0.5008 -0.0510
  146OSM   H17G16186  -0.681   1.927   4.723  1.3603 -0.6472 -0.8676
  146OSM   C18F16187  -0.474   2.028   4.754  0.3365 -0.3031  0.5004
  146OSM   H18F16188  -0.485   2.099   4.669 -0.6211  0.3582  1.1489
  146OSM   H18G16189  -0.415   1.942   4.716  0.5948  1.1141 -2.6575
  146OSM   H18H16190  -0.428   2.086   4.837  0.5680  0.7935 -0.3711
  147OSM      N16191   6.370   3.923   1.737 -0.9778 -0.8150 -0.1045
  147OSM    C1516192   6.350   3.800   1.646  0.5499 -0.6805 -0.9238
  147OSM   H15A16193   6.319   3.715   1.706 -1.6528  0.9112  0.3392
  147OSM   H15B16194   6.433   3.774   1.581  1.2219  1.5487 -1.0066
  147OSM   H15C16195   6.259   3.822   1.591 -0.8173  0.7632  1.7083
  147OSM    C1416196   6.433   4.033   1.655 -0.0293  0.6209 -0.0114
  147OSM   H14A16197   6.518   3.992   1.602  1.4655  2.9651  0.4219
  147OSM   H14B16198   6.453   4.120   1.715  1.5894  0.0190  0.3929
  147OSM   H14C16199   6.361   4.057   1.578 -2.5730 -0.6010  1.8212
  147OSM    C1316200   6.237   3.974   1.780 -1.4850 -0.0083  0.8198
  147OSM   H13A16201   6.248   4.061   1.843  0.5832 -0.5831  1.3318
  147OSM   H13B16202   6.180   3.896   1.829  1.0025 -2.0513  0.6699
  147OSM   H13C16203   6.178   4.018   1.701 -1.1202 -1.2875 -0.2061
  147OSM    C1216204   6.461   3.885   1.852 -0.3512 -0.1270  0.3826
  147OSM   H12A16205   6.563   3.863   1.824  0.4539  0.9111  2.3013
  147OSM   H12B16206   6.418   3.797   1.897  0.0037 -1.7066 -2.1711
  147OSM    C1116207   6.490   3.997   1.960 -0.6754 -0.0393 -0.1850
  147OSM   H11A16208   6.530   3.947   2.051 -1.7957 -0.0059  0.3397
  147OSM   H11B16209   6.396   4.050   1.989 -0.3223  0.1260  0.7056
  147OSM      P16210   6.732   4.096   1.951 -0.3966 -0.4100  0.3137
  147OSM    O1316211   6.799   3.974   1.904 -0.0435 -0.2906 -0.2515
  147OSM    O1416212   6.795   4.222   1.908  0.0009 -0.2870  0.3851
  147OSM    O1116213   6.727   4.086   2.113 -0.0126  0.2169  0.3381
  147OSM    O1216214   6.577   4.102   1.915  0.0472  0.1017 -0.0602
  147OSM    C1S16215   6.849   4.110   2.183  0.2029  0.2369 -0.4125
  147OSM    H1S16216   6.888   4.212   2.164 -2.4747  1.6536  1.1245
  147OSM    H1T16217   6.913   4.028   2.144 -1.1190 -1.6098  1.1330
  147OSM     NF16218   6.967   4.117   2.397  1.3792  0.0287  0.8206
  147OSM    HNF16219   6.997   4.045   2.460 -1.1880  0.3440  2.5711
  147OSM    C2S16220   6.839   4.088   2.336  0.4583  0.5365  0.0581
  147OSM    H2S16221   6.760   4.156   2.374 -1.0800 -2.5165  2.8730
  147OSM    C3S16222   6.779   3.941   2.369  0.2130 -0.0861 -0.1134
  147OSM    H3S16223   6.862   3.872   2.341  0.1908 -0.2730  0.2691
  147OSM     O316224   6.677   3.894   2.287 -0.6251  0.3819 -0.1423
  147OSM    HO316225   6.689   3.947   2.208 -0.2835 -0.4507 -0.6620
  147OSM    C4S16226   6.758   3.920   2.518  0.2949 -0.5132  0.6077
  147OSM    H4S16227   6.841   3.881   2.578  0.7600 -1.1024 -0.3973
  147OSM    C5S16228   6.644   3.965   2.589 -0.3040 -0.2555  0.5091
  147OSM    H5S16229   6.560   3.999   2.526  1.1336 -1.5571 -2.3224
  147OSM    C6S16230   6.637   3.946   2.736 -0.1107  0.1649  0.0739
  147OSM    H6S16231   6.694   3.858   2.771  1.9144  0.5372 -2.0103
  147OSM    H6T16232   6.528   3.943   2.756 -0.2983 -1.2951 -1.0207
  147OSM    C7S16233   6.687   4.076   2.816  0.2787 -0.0627  0.4191
  147OSM    H7S16234   6.644   4.173   2.783 -1.3752  0.5757  4.0275
  147OSM    H7T16235   6.797   4.084   2.798  0.3438 -0.1491  0.7622
  147OSM    C8S16236   6.660   4.049   2.959 -0.6586 -0.5022  0.0861
  147OSM    H8S16237   6.698   3.949   2.988 -2.3367 -0.5911  2.2249
  147OSM    H8T16238   6.550   4.035   2.968 -0.6459  0.7698  3.6138
  147OSM    C9S16239   6.696   4.168   3.045 -0.1897 -0.1903  0.1649
  147OSM    H9S16240   6.637   4.250   2.999  1.8295  0.6468 -1.0534
  147OSM    H9T16241   6.805   4.189   3.040 -0.3138  1.0797  1.8731
  147OSM   C10S16242   6.656   4.149   3.188 -0.8066 -0.3089 -0.7062
  147OSM   H10S16243   6.545   4.142   3.184 -0.9211 -1.6545  1.9649
  147OSM   H10T16244   6.683   4.236   3.251 -2.7479 -0.6158  0.6507
  147OSM   C11S16245   6.716   4.019   3.258  0.3036  0.1112  0.0660
  147OSM   H11S16246   6.827   4.016   3.247  0.3959 -1.5165  1.0186
  147OSM   H11T16247   6.666   3.932   3.210 -1.4757  0.7253  0.7514
  147OSM   C12S16248   6.695   4.032   3.403  0.7188 -0.7252  0.3368
  147OSM   H12S16249   6.734   4.128   3.442 -3.2661  1.2811 -0.1211
  147OSM   H12T16250   6.766   3.960   3.450  0.8130 -1.1078 -0.3817
  147OSM   C13S16251   6.551   4.001   3.441  0.6880  0.1774 -0.7364
  147OSM   H13S16252   6.520   3.904   3.398 -1.7175  1.1489 -1.3142
  147OSM   H13T16253   6.479   4.078   3.405  0.5816  0.3630 -0.1416
  147OSM   C14S16254   6.513   3.979   3.590  0.0847 -0.1787 -0.3780
  147OSM   H14S16255   6.565   3.895   3.642 -0.7729 -0.0233  0.7521
  147OSM   H14T16256   6.403   3.962   3.598  0.0470 -0.1661 -0.8366
  147OSM   C15S16257   6.535   4.102   3.678 -0.4550 -0.7246 -0.2612
  147OSM   H15S16258   6.478   4.194   3.649 -1.1349 -0.5102  1.6077
  147OSM   H15T16259   6.642   4.131   3.674 -0.1380 -1.5699  1.2045
  147OSM   C16S16260   6.488   4.082   3.822 -0.3929 -0.2371 -0.0220
  147OSM   H16S16261   6.534   3.996   3.874  0.2376  0.0941 -0.0124
  147OSM   H16T16262   6.380   4.056   3.813 -0.3598  0.3686 -3.9934
  147OSM   C17S16263   6.524   4.203   3.906 -0.2185  0.4904 -0.3539
  147OSM   H17S16264   6.468   4.279   3.848  1.8551 -0.1073 -3.3595
  147OSM   H17T16265   6.633   4.222   3.895  0.8112 -4.3402 -0.7160
  147OSM   C18S16266   6.488   4.193   4.050  0.0236 -0.2045 -0.5647
  147OSM   H18S16267   6.553   4.121   4.103  0.2647  0.5243  0.1601
  147OSM   H18T16268   6.382   4.160   4.049 -0.4863  1.3117  0.2139
  147OSM   H18U16269   6.485   4.296   4.093 -0.9802 -0.0772 -0.9003
  147OSM    C1F16270   7.029   4.236   2.400  0.1866 -0.0176 -0.1674
  147OSM     OF16271   6.974   4.337   2.359 -0.0079 -0.4237  0.0808
  147OSM    C2F16272   7.169   4.247   2.456  0.8459 -0.1575  0.7359
  147OSM    H2F16273   7.232   4.316   2.396  0.4606 -0.9781 -0.6647
  147OSM    H2G16274   7.209   4.143   2.451 -0.7742 -0.7561 -1.6593
  147OSM    C3F16275   7.158   4.292   2.603  0.3292  0.7459  0.5676
  147OSM    H3F16276   7.092   4.223   2.659  0.5460 -0.0397 -0.1167
  147OSM    H3G16277   7.110   4.389   2.625  1.2699  1.0185  1.4913
  147OSM    C4F16278   7.291   4.287   2.683  0.5063  0.6803  0.6862
  147OSM    H4F16279   7.373   4.341   2.632  0.7884  0.8324  1.2888
  147OSM    H4G16280   7.323   4.182   2.698 -1.6780  0.0866  1.5816
  147OSM    C5F16281   7.292   4.355   2.822 -0.2741  0.4778 -0.2850
  147OSM    H5F16282   7.253   4.457   2.801  0.3583  0.9390  0.7248
  147OSM    H5G16283   7.397   4.365   2.857  0.3129  0.1861 -1.8911
  147OSM    C6F16284   7.199   4.280   2.933 -0.1154  0.8428 -0.0091
  147OSM    H6F16285   7.248   4.182   2.951  0.3354  0.2619 -3.6704
  147OSM    H6G16286   7.099   4.261   2.889  0.1533  0.4046 -0.4351
  147OSM    C7F16287   7.187   4.354   3.069 -0.1973 -0.3662  0.7762
  147OSM    H7F16288   7.173   4.463   3.051  0.6605 -0.6812 -2.1744
  147OSM    H7G16289   7.276   4.324   3.127 -0.7412 -1.5837  1.0088
  147OSM    C8F16290   7.060   4.313   3.149  0.4123  0.0625  0.0264
  147OSM    H8F16291   7.053   4.202   3.157 -2.8386  0.2123  0.4159
  147OSM    H8G16292   6.976   4.355   3.090  0.2139  0.9591  0.9256
  147OSM    C9F16293   7.070   4.372   3.288  0.2181 -0.7927  0.2435
  147OSM    H9F16294   7.043   4.478   3.294 -0.8033 -1.0393  0.1667
  147OSM   C10F16295   7.102   4.320   3.410 -0.2075  0.2888  0.2620
  147OSM   H10F16296   7.095   4.392   3.492 -1.9877 -0.2277  0.6095
  147OSM   C11F16297   7.145   4.175   3.431  0.3515 -0.1314  0.2414
  147OSM   H11F16298   7.233   4.176   3.499  1.1210  1.2983 -0.7239
  147OSM   H11G16299   7.171   4.131   3.332 -2.2207  0.4343 -0.7709
  147OSM   C12F16300   7.030   4.090   3.485  0.0601 -1.0458 -0.0956
  147OSM   H12F16301   7.040   3.979   3.477 -1.9156 -1.4091  1.6043
  147OSM   H12G16302   6.932   4.110   3.435 -0.9002 -3.8927  0.4345
  147OSM   C13F16303   7.014   4.126   3.636 -0.1491  0.5328 -0.6401
  147OSM   H13F16304   6.963   4.225   3.638 -4.8465 -1.6656  0.2823
  147OSM   H13G16305   7.119   4.140   3.670 -0.6059 -2.7788  2.7142
  147OSM   C14F16306   6.953   4.009   3.717 -0.1090 -0.0216  0.1049
  147OSM   H14F16307   7.010   3.914   3.711 -0.3679 -0.1049 -2.3671
  147OSM   H14G16308   6.855   3.981   3.672 -0.0409 -0.3390  0.1505
  147OSM   C15F16309   6.927   4.044   3.866  0.2614 -0.3431  0.4950
  147OSM   H15F16310   6.866   4.137   3.869  3.8495  2.4274 -2.2990
  147OSM   H15G16311   7.020   4.076   3.918 -0.3431 -1.5820  2.4754
  147OSM   C16F16312   6.867   3.919   3.938 -0.0144  0.4691  0.1746
  147OSM   H16F16313   6.941   3.837   3.930 -1.1840 -0.5888  0.0243
  147OSM   H16G16314   6.779   3.888   3.879 -1.5827 -2.1386  3.5867
  147OSM   C17F16315   6.820   3.941   4.078  0.6172 -0.4123 -0.4656
  147OSM   H17F16316   6.731   4.006   4.071 -0.0441 -1.1334  0.7548
  147OSM   H17G16317   6.889   3.985   4.154  0.5022 -0.0234 -0.5893
  147OSM   C18F16318   6.774   3.810   4.145  0.0906 -0.3864 -0.1854
  147OSM   H18F16319   6.744   3.833   4.250 -0.9630  0.5372 -0.6670
  147OSM   H18G16320   6.856   3.737   4.161 -0.1043 -0.1851  2.0090
  147OSM   H18H16321   6.679   3.775   4.098  0.5207 -2.2760  0.2747
  148OSM      N16322   6.377   3.136   1.792 -0.7490  0.9378  0.5638
  148OSM    C1516323   6.373   3.001   1.864  0.3982 -0.4102 -0.6100
  148OSM   H15A16324   6.395   2.917   1.800 -0.1682 -0.1852 -1.1151
  148OSM   H15B16325   6.280   2.989   1.918  0.2348  1.3447 -0.4357
  148OSM   H15C16326   6.451   3.007   1.939 -0.7854  1.4060  0.5585
  148OSM    C1416327   6.521   3.176   1.749 -0.2015  0.0426  0.0519
  148OSM   H14A16328   6.585   3.176   1.835 -0.7802 -0.4417  0.4850
  148OSM   H14B16329   6.513   3.281   1.723  0.6255  0.7224  2.3615
  148OSM   H14C16330   6.554   3.109   1.671 -1.0986  1.4182 -1.5854
  148OSM    C1316331   6.308   3.132   1.664  0.7728  0.5250 -0.4055
  148OSM   H13A16332   6.207   3.099   1.683  1.5460 -1.3412  0.7217
  148OSM   H13B16333   6.356   3.071   1.589 -2.9189 -2.4225 -0.6433
  148OSM   H13C16334   6.289   3.229   1.619  1.2889 -0.3833 -2.7463
  148OSM    C1216335   6.317   3.240   1.878 -0.1904  0.0767 -0.1984
  148OSM   H12A16336   6.219   3.214   1.914  0.4029 -1.4509  0.4246
  148OSM   H12B16337   6.302   3.332   1.824 -1.4046  0.0091 -0.0062
  148OSM    C1116338   6.401   3.275   2.005  0.7578 -0.3076 -0.2268
  148OSM   H11A16339   6.421   3.182   2.062  3.2484 -0.6285 -1.4737
  148OSM   H11B16340   6.338   3.335   2.074  0.5471 -1.2299  0.4079
  148OSM      P16341   6.516   3.505   1.977  0.0588 -0.5505  0.3413
  148OSM    O1316342   6.652   3.566   1.966  0.2115  0.0192  0.7228
  148OSM    O1416343   6.413   3.562   1.887 -0.1037  0.2298  0.2265
  148OSM    O1116344   6.463   3.530   2.119 -0.2476  0.3567 -0.1689
  148OSM    O1216345   6.515   3.347   1.966  0.3020  0.0888  0.1129
  148OSM    C1S16346   6.511   3.470   2.239 -0.3986  0.3507 -0.2896
  148OSM    H1S16347   6.619   3.443   2.237  0.2181  2.5538  0.0968
  148OSM    H1T16348   6.455   3.376   2.256  2.2028 -1.3410 -0.5366
  148OSM     NF16349   6.528   3.496   2.484 -0.0897  0.3891 -0.7134
  148OSM    HNF16350   6.455   3.450   2.534  0.7623 -0.0585  0.1546
  148OSM    C2S16351   6.499   3.569   2.360  0.5548 -0.4295  0.3375
  148OSM    H2S16352   6.572   3.651   2.343  0.6591 -0.1519  2.0238
  148OSM    C3S16353   6.358   3.631   2.350  0.0490  0.1290 -0.2237
  148OSM    H3S16354   6.278   3.553   2.349  1.2829 -1.1888  0.1505
  148OSM     O316355   6.335   3.719   2.239  0.4492  0.3083 -0.1612
  148OSM    HO316356   6.394   3.683   2.172 -0.3992 -0.9599 -0.2425
  148OSM    C4S16357   6.341   3.720   2.466  0.4033 -0.3150 -0.1449
  148OSM    H4S16358   6.424   3.792   2.455  0.9163 -0.9887 -0.7798
  148OSM    C5S16359   6.259   3.717   2.570 -0.1404  0.2854 -0.8308
  148OSM    H5S16360   6.177   3.643   2.571  3.1190 -3.6727 -1.4403
  148OSM    C6S16361   6.263   3.817   2.684  0.5704  0.0461 -0.1486
  148OSM    H6S16362   6.182   3.891   2.670  0.5283  0.2354  0.9954
  148OSM    H6T16363   6.362   3.868   2.679  1.0422 -0.3757  2.8395
  148OSM    C7S16364   6.257   3.753   2.827 -0.1622  0.8224  0.2483
  148OSM    H7S16365   6.337   3.675   2.830 -0.3914  0.1274 -4.4434
  148OSM    H7T16366   6.155   3.709   2.833  0.2090 -0.1664 -0.4400
  148OSM    C8S16367   6.280   3.850   2.938 -0.5303  0.1123  0.3910
  148OSM    H8S16368   6.205   3.932   2.931 -1.5316 -0.7519  0.5957
  148OSM    H8T16369   6.381   3.895   2.931  0.2153 -1.2821  1.7026
  148OSM    C9S16370   6.262   3.777   3.068 -0.4711 -0.5421 -0.2848
  148OSM    H9S16371   6.333   3.830   3.135 -1.9554  2.9442 -1.2349
  148OSM    H9T16372   6.286   3.670   3.055 -0.0998 -0.9167  2.7144
  148OSM   C10S16373   6.125   3.796   3.129  0.3316  0.1906  0.1975
  148OSM   H10S16374   6.043   3.771   3.058  0.2262  1.3769 -0.1193
  148OSM   H10T16375   6.103   3.900   3.162  0.7234 -0.1750  1.6973
  148OSM   C11S16376   6.097   3.706   3.248 -0.4485 -0.2123  0.6302
  148OSM   H11S16377   6.071   3.607   3.205  0.9416 -0.2674 -0.1476
  148OSM   H11T16378   6.001   3.737   3.294 -1.6661 -1.8653 -0.6565
  148OSM   C12S16379   6.208   3.701   3.355 -0.1844 -0.0948  0.0685
  148OSM   H12S16380   6.254   3.802   3.363  0.0690 -0.0006 -2.0998
  148OSM   H12T16381   6.285   3.631   3.317 -0.6300 -1.9250  2.3382
  148OSM   C13S16382   6.160   3.649   3.490 -0.0705 -0.4085 -0.0619
  148OSM   H13S16383   6.183   3.540   3.486  2.1493  0.0189 -0.5671
  148OSM   H13T16384   6.052   3.663   3.512 -0.3856 -2.7703  0.1820
  148OSM   C14S16385   6.254   3.719   3.596 -0.3557 -0.7680 -1.0461
  148OSM   H14S16386   6.228   3.827   3.589  1.7194 -0.1104  0.3767
  148OSM   H14T16387   6.362   3.714   3.569  0.1621 -0.2913  0.7832
  148OSM   C15S16388   6.236   3.661   3.737 -0.2403  0.2311  0.1215
  148OSM   H15S16389   6.135   3.697   3.768 -0.5616 -0.3327 -0.2510
  148OSM   H15T16390   6.310   3.714   3.802 -1.1290 -0.5080  1.8124
  148OSM   C16S16391   6.255   3.508   3.757  0.3546 -0.1264 -0.0995
  148OSM   H16S16392   6.353   3.500   3.706  0.1988 -1.6041 -0.2088
  148OSM   H16T16393   6.180   3.453   3.697 -0.3702 -0.4675  1.0819
  148OSM   C17S16394   6.258   3.454   3.897 -0.5071 -0.0991  0.0108
  148OSM   H17S16395   6.331   3.514   3.956  0.9672 -0.8142 -0.9989
  148OSM   H17T16396   6.304   3.354   3.887  1.8591  0.8650  0.5510
  148OSM   C18S16397   6.127   3.450   3.966 -0.7351 -0.8258 -0.0481
  148OSM   H18S16398   6.068   3.378   3.905  1.0286 -0.6184 -2.1184
  148OSM   H18T16399   6.077   3.550   3.963  3.3579  1.4034 -0.7153
  148OSM   H18U16400   6.125   3.417   4.072 -0.9227 -1.0806 -0.1299
  148OSM    C1F16401   6.654   3.485   2.523 -0.3345  0.7560  0.5540
  148OSM     OF16402   6.750   3.530   2.459 -0.1493  0.1560  0.1020
  148OSM    C2F16403   6.676   3.393   2.639  0.3172  0.1247 -0.3856
  148OSM    H2F16404   6.754   3.320   2.609  0.8741  0.8798 -0.8137
  148OSM    H2G16405   6.584   3.335   2.662  0.8695 -0.9633 -0.8269
  148OSM    C3F16406   6.710   3.469   2.767 -0.4405 -0.1654 -0.3172
  148OSM    H3F16407   6.798   3.532   2.744 -0.4857 -1.0935 -3.3387
  148OSM    H3G16408   6.728   3.412   2.861 -0.7580  0.8425  0.3696
  148OSM    C4F16409   6.595   3.555   2.817 -0.2520  0.4359 -0.0207
  148OSM    H4F16410   6.510   3.487   2.839 -0.8124  0.9246 -0.6277
  148OSM    H4G16411   6.570   3.630   2.740 -2.0092 -0.8572 -0.7762
  148OSM    C5F16412   6.624   3.639   2.946 -0.3898 -0.0261  0.3816
  148OSM    H5F16413   6.537   3.705   2.970 -0.3327  0.2918 -0.2514
  148OSM    H5G16414   6.716   3.694   2.916 -0.9731  2.0113  2.0774
  148OSM    C6F16415   6.658   3.559   3.073 -0.3190  0.7378 -0.1487
  148OSM    H6F16416   6.754   3.504   3.067  0.5706  2.0896  1.0835
  148OSM    H6G16417   6.578   3.486   3.098  1.7846 -0.9101  2.3256
  148OSM    C7F16418   6.674   3.651   3.194 -0.1412  0.5550  0.1817
  148OSM    H7F16419   6.588   3.714   3.228 -0.0941  0.8755 -0.2791
  148OSM    H7G16420   6.744   3.732   3.164 -0.2733  0.8362  0.6189
  148OSM    C8F16421   6.735   3.579   3.315  0.2913 -0.5741  0.2167
  148OSM    H8F16422   6.783   3.643   3.392 -1.2810 -1.6748  2.2201
  148OSM    H8G16423   6.815   3.513   3.277  0.2511  0.0712 -1.0188
  148OSM    C9F16424   6.632   3.493   3.376  0.1529 -0.5590  0.5913
  148OSM    H9F16425   6.579   3.430   3.303 -0.1855 -0.5519  0.8260
  148OSM   C10F16426   6.596   3.493   3.509 -0.2914  0.0090  0.6951
  148OSM   H10F16427   6.516   3.424   3.540  0.2627 -1.6514 -1.2774
  148OSM   C11F16428   6.651   3.586   3.607  0.4605  0.3394 -0.1203
  148OSM   H11F16429   6.570   3.637   3.663  1.5025  1.3742  0.5059
  148OSM   H11G16430   6.710   3.670   3.564  0.2715  0.5302 -0.0085
  148OSM   C12F16431   6.747   3.530   3.716  0.3059 -0.1056  0.4687
  148OSM   H12F16432   6.773   3.621   3.774  2.4297 -0.8076  0.6784
  148OSM   H12G16433   6.840   3.500   3.665  1.3233  2.2356  0.8012
  148OSM   C13F16434   6.682   3.426   3.801 -0.1416  0.1655  0.0822
  148OSM   H13F16435   6.657   3.335   3.743  1.5483  0.2233 -0.7971
  148OSM   H13G16436   6.594   3.482   3.839  0.8588  0.9161  1.3886
  148OSM   C14F16437   6.772   3.376   3.916 -0.3935 -0.2965 -0.6788
  148OSM   H14F16438   6.850   3.446   3.954 -0.0170 -1.8365  1.5224
  148OSM   H14G16439   6.821   3.287   3.872 -1.0910 -2.1218  2.0326
  148OSM   C15F16440   6.697   3.329   4.042 -0.2258  0.4826 -0.6149
  148OSM   H15F16441   6.759   3.253   4.095 -0.5338  0.6900  0.0491
  148OSM   H15G16442   6.602   3.278   4.017 -0.5724  0.1573  1.2503
  148OSM   C16F16443   6.663   3.451   4.130  0.2441  0.3344  0.3174
  148OSM   H16F16444   6.612   3.529   4.069  0.5645  1.0146  0.9086
  148OSM   H16G16445   6.753   3.509   4.161 -0.4694  0.7262  1.7210
  148OSM   C17F16446   6.581   3.414   4.261  0.5326 -0.8008  0.0721
  148OSM   H17F16447   6.635   3.338   4.322 -2.6122 -3.1081  0.2229
  148OSM   H17G16448   6.498   3.350   4.222 -0.7301  1.3109 -0.8568
  148OSM   C18F16449   6.532   3.541   4.340 -0.7324 -0.4655  0.1691
  148OSM   H18F16450   6.618   3.571   4.405  0.9751  0.7856 -2.4837
  148OSM   H18G16451   6.445   3.520   4.405 -2.0422  0.9253 -1.0714
  148OSM   H18H16452   6.501   3.626   4.276  0.3480 -0.2706 -0.1116
  149OSM      N16453   3.140   4.538   2.061  0.6244 -0.1832 -0.5449
  149OSM    C1516454   3.137   4.453   2.186 -0.7157 -0.7277 -0.8522
  149OSM   H15A16455   3.108   4.352   2.162  2.0715 -1.5199 -1.2199
  149OSM   H15B16456   3.070   4.498   2.258 -0.9026 -0.4287 -1.2095
  149OSM   H15C16457   3.230   4.453   2.240 -2.5519  0.6580  2.6443
  149OSM    C1416458   3.194   4.670   2.100  0.3500  0.4579  0.1470
  149OSM   H14A16459   3.301   4.667   2.115  0.7017 -1.4717 -2.2164
  149OSM   H14B16460   3.151   4.707   2.192 -1.8918 -2.3101  0.3612
  149OSM   H14C16461   3.180   4.738   2.018  1.0743 -1.0767 -1.3099
  149OSM    C1316462   3.229   4.474   1.961  0.7805 -0.6673 -0.2035
  149OSM   H13A16463   3.175   4.394   1.912  0.8498 -0.6399 -0.3240
  149OSM   H13B16464   3.321   4.437   2.004  0.4740 -0.5500  0.5766
  149OSM   H13C16465   3.258   4.554   1.895  2.9787  0.3552  1.8485
  149OSM    C1216466   2.993   4.545   2.012  0.5498 -0.0776  0.1779
  149OSM   H12A16467   2.926   4.572   2.092 -0.6206  0.3043 -0.8915
  149OSM   H12B16468   2.971   4.444   1.980  0.8008  0.0930 -0.5463
  149OSM    C1116469   2.967   4.639   1.887 -0.7204 -0.4204 -0.4687
  149OSM   H11A16470   2.859   4.631   1.865 -0.5972  0.1178 -1.3199
  149OSM   H11B16471   3.031   4.601   1.804  3.2209  0.5269  1.8427
  149OSM      P16472   2.930   4.889   1.860 -0.1636  0.1874 -0.0365
  149OSM    O1316473   3.020   5.007   1.856  0.4947  0.0222  0.0190
  149OSM    O1416474   2.847   4.859   1.734 -0.1093  0.2872  0.2685
  149OSM    O1116475   2.831   4.908   1.983 -0.8552  0.2651  0.3915
  149OSM    O1216476   3.018   4.770   1.915  0.1270 -0.5007  0.3503
  149OSM    C1S16477   2.910   4.951   2.099 -0.2209 -0.5975 -0.5527
  149OSM    H1S16478   2.958   5.050   2.082 -1.5037 -0.2128 -2.3251
  149OSM    H1T16479   2.998   4.890   2.129  0.0552 -0.2976 -0.7431
  149OSM     NF16480   2.859   5.037   2.319  0.2457 -0.2510 -0.2583
  149OSM    HNF16481   2.909   5.008   2.401  0.5685  0.5709 -0.1564
  149OSM    C2S16482   2.810   4.948   2.220 -0.3088 -0.5792  0.5461
  149OSM    H2S16483   2.711   4.980   2.182  1.4100  3.1963 -1.3864
  149OSM    C3S16484   2.787   4.793   2.260  0.2867 -0.3842 -0.4640
  149OSM    H3S16485   2.882   4.754   2.302 -0.1507  1.8612  3.0150
  149OSM     O316486   2.746   4.706   2.152  0.2686  0.5792  0.3056
  149OSM    HO316487   2.772   4.753   2.073 -0.7349 -3.6659 -2.9179
  149OSM    C4S16488   2.683   4.789   2.370  0.4078 -0.1510 -0.1251
  149OSM    H4S16489   2.587   4.836   2.346  1.3070  2.3343  0.8317
  149OSM    C5S16490   2.704   4.745   2.496 -0.6663 -0.6718  0.1959
  149OSM    H5S16491   2.808   4.729   2.529 -0.7497  0.1685  0.9208
  149OSM    C6S16492   2.596   4.750   2.598 -0.5266 -0.1963  0.2814
  149OSM    H6S16493   2.504   4.807   2.570  0.0978  0.6218 -0.1559
  149OSM    H6T16494   2.634   4.799   2.690 -1.2480 -1.4200  1.2671
  149OSM    C7S16495   2.554   4.612   2.632 -0.0381  0.1601 -0.6096
  149OSM    H7S16496   2.641   4.554   2.669 -1.3506 -0.8725  1.0109
  149OSM    H7T16497   2.500   4.555   2.554 -1.2786  1.1486 -0.5033
  149OSM    C8S16498   2.450   4.627   2.745  0.4615  0.0839  0.1875
  149OSM    H8S16499   2.365   4.691   2.715 -0.7392 -1.2681  0.5876
  149OSM    H8T16500   2.498   4.681   2.829  0.1657  0.6330  0.0062
  149OSM    C9S16501   2.404   4.495   2.799  0.4075 -0.6766 -0.3327
  149OSM    H9S16502   2.487   4.422   2.815 -1.5480 -2.5321  2.1355
  149OSM    H9T16503   2.331   4.456   2.725  0.6596 -1.2724 -0.2789
  149OSM   C10S16504   2.337   4.530   2.931  0.1369 -0.0880  0.0364
  149OSM   H10S16505   2.392   4.604   2.993  1.9629 -0.1970 -1.3706
  149OSM   H10T16506   2.339   4.438   2.994  1.2689 -0.5130 -0.6045
  149OSM   C11S16507   2.193   4.590   2.906 -0.2236  0.0308 -0.7589
  149OSM   H11S16508   2.132   4.524   2.842 -0.5073 -0.5227  0.0619
  149OSM   H11T16509   2.208   4.686   2.851 -0.2755 -0.4169 -1.5568
  149OSM   C12S16510   2.114   4.606   3.041 -0.0976 -0.0556  0.6370
  149OSM   H12S16511   2.037   4.683   3.019  3.1819  3.6904  1.0467
  149OSM   H12T16512   2.182   4.650   3.118  1.4202 -1.7256  0.3090
  149OSM   C13S16513   2.040   4.481   3.094  0.0519 -0.6913 -0.0512
  149OSM   H13S16514   2.115   4.399   3.085  1.6757  0.9602 -3.1893
  149OSM   H13T16515   1.955   4.453   3.029 -2.5827  1.2429  2.2955
  149OSM   C14S16516   1.994   4.487   3.242  0.3030  0.7424 -0.3593
  149OSM   H14S16517   2.086   4.500   3.302 -0.1952  1.8243  0.2005
  149OSM   H14T16518   1.938   4.394   3.266  1.2699  0.8313  2.5780
  149OSM   C15S16519   1.890   4.609   3.272  1.0034  0.4105  0.2979
  149OSM   H15S16520   1.803   4.594   3.206 -0.4947  3.1816  1.5006
  149OSM   H15T16521   1.949   4.700   3.248 -0.8656  1.5512 -0.1696
  149OSM   C16S16522   1.844   4.608   3.413  0.0590 -0.4435 -0.1974
  149OSM   H16S16523   1.901   4.686   3.467 -1.4828 -0.5187  1.6189
  149OSM   H16T16524   1.878   4.512   3.459  0.6332  0.7251  1.9558
  149OSM   C17S16525   1.696   4.631   3.432 -0.2926  1.1346 -0.6554
  149OSM   H17S16526   1.654   4.541   3.382  2.2915  0.3346 -1.5819
  149OSM   H17T16527   1.663   4.720   3.375 -0.6160  0.6734 -1.1999
  149OSM   C18S16528   1.646   4.631   3.581  0.0824  1.0701  0.6111
  149OSM   H18S16529   1.688   4.712   3.645 -1.7891  1.7579  1.0385
  149OSM   H18T16530   1.678   4.533   3.622 -0.1578  0.4998 -0.5341
  149OSM   H18U16531   1.536   4.638   3.574  0.2061  1.3845 -3.4983
  149OSM    C1F16532   2.871   5.172   2.303  0.4821 -0.2802 -0.5200
  149OSM     OF16533   2.843   5.232   2.199 -0.4166  0.5040  0.4488
  149OSM    C2F16534   2.934   5.246   2.417 -1.2598  0.0446  0.2613
  149OSM    H2F16535   2.991   5.330   2.372  1.5562 -1.8935 -0.0717
  149OSM    H2G16536   3.008   5.190   2.478 -0.5875  1.3224  0.6412
  149OSM    C3F16537   2.838   5.307   2.518  1.0065 -0.5312 -0.2132
  149OSM    H3F16538   2.759   5.356   2.458  0.6551 -0.1100  0.5793
  149OSM    H3G16539   2.889   5.393   2.565  0.0135  1.5930 -2.7862
  149OSM    C4F16540   2.785   5.211   2.627 -0.0771 -0.0152 -0.2825
  149OSM    H4F16541   2.868   5.178   2.693 -1.2250 -0.7972  0.8198
  149OSM    H4G16542   2.745   5.118   2.580 -3.6706  1.2935 -0.0900
  149OSM    C5F16543   2.691   5.276   2.721  0.5875 -0.7520  0.1735
  149OSM    H5F16544   2.586   5.244   2.709  0.5933 -0.7099  0.0133
  149OSM    H5G16545   2.717   5.383   2.710  2.0715 -1.1486 -0.4683
  149OSM    C6F16546   2.718   5.257   2.871 -0.8004 -0.5345  0.3199
  149OSM    H6F16547   2.825   5.255   2.900 -0.4068  0.8287 -0.9157
  149OSM    H6G16548   2.671   5.160   2.898 -0.5125 -0.6417  0.4383
  149OSM    C7F16549   2.641   5.349   2.964 -0.2267 -0.5970  0.1028
  149OSM    H7F16550   2.534   5.354   2.934 -0.7726  0.0508  2.0449
  149OSM    H7G16551   2.680   5.448   2.932 -0.9982 -0.3738 -0.1846
  149OSM    C8F16552   2.665   5.341   3.118 -0.0177  0.7109  0.3976
  149OSM    H8F16553   2.633   5.435   3.169  0.7628  0.0356  2.2192
  149OSM    H8G16554   2.774   5.334   3.139  0.2176 -1.9979 -1.2740
  149OSM    C9F16555   2.586   5.214   3.162 -0.8917 -0.0720 -0.1128
  149OSM    H9F16556   2.487   5.202   3.117 -1.4320  0.7999  0.8141
  149OSM   C10F16557   2.626   5.113   3.239 -0.1192  0.5006  0.2739
  149OSM   H10F16558   2.556   5.032   3.265 -0.8086  0.9709 -0.1014
  149OSM   C11F16559   2.758   5.102   3.306 -0.2156 -0.1762  0.0601
  149OSM   H11F16560   2.749   5.064   3.409 -1.9810  1.2440  0.4744
  149OSM   H11G16561   2.810   5.201   3.314  0.4513 -0.5599  0.5386
  149OSM   C12F16562   2.857   4.991   3.257  0.6481 -0.1248 -0.2896
  149OSM   H12F16563   2.939   4.987   3.332  0.0421  2.3426  0.6226
  149OSM   H12G16564   2.893   5.006   3.153  0.2318 -0.6852 -0.5192
  149OSM   C13F16565   2.786   4.850   3.254  0.2522  0.4038  0.4417
  149OSM   H13F16566   2.692   4.860   3.195 -0.3934  0.6437  1.4907
  149OSM   H13G16567   2.759   4.818   3.357  0.2655  0.3782  0.4371
  149OSM   C14F16568   2.872   4.738   3.191 -0.0226 -0.5969  0.4237
  149OSM   H14F16569   2.964   4.737   3.253 -0.2678  0.9958  0.8718
  149OSM   H14G16570   2.893   4.765   3.085 -0.0908 -2.4764 -0.0959
  149OSM   C15F16571   2.802   4.604   3.201  0.6628 -0.2560 -0.2072
  149OSM   H15F16572   2.736   4.612   3.290 -0.0720  3.9308 -0.9586
  149OSM   H15G16573   2.881   4.527   3.219  0.2226 -0.3986  1.2541
  149OSM   C16F16574   2.712   4.565   3.084 -0.2033  0.1492 -0.4953
  149OSM   H16F16575   2.762   4.572   2.985 -1.9281  2.5670 -1.2889
  149OSM   H16G16576   2.628   4.638   3.081  0.0584  0.4868  0.1448
  149OSM   C17F16577   2.670   4.422   3.109  0.3996 -0.2740 -0.1859
  149OSM   H17F16578   2.592   4.407   3.031  0.0086  1.1470 -0.0950
  149OSM   H17G16579   2.631   4.422   3.213  1.0573  0.3802  0.0668
  149OSM   C18F16580   2.776   4.318   3.086 -0.9207  0.2254  0.1526
  149OSM   H18F16581   2.746   4.215   3.115  2.7251 -0.7440  1.0282
  149OSM   H18G16582   2.877   4.345   3.125 -0.8354  0.7778 -0.4323
  149OSM   H18H16583   2.793   4.314   2.976 -0.8769  0.5540  0.1473
  150OSM      N16584   6.355   6.202   1.852  0.0085 -0.7014 -0.3495
  150OSM    C1516585   6.494   6.184   1.814  0.2356 -0.2432  0.3205
  150OSM   H15A16586   6.537   6.280   1.789  0.0081 -0.3885 -0.6810
  150OSM   H15B16587   6.502   6.140   1.716  0.4333 -0.2482  0.3385
  150OSM   H15C16588   6.552   6.125   1.884 -0.4906 -1.6423 -0.2163
  150OSM    C1416589   6.283   6.293   1.748  0.5754  0.2421 -0.8567
  150OSM   H14A16590   6.266   6.238   1.657 -0.1482 -2.9057  1.0124
  150OSM   H14B16591   6.344   6.380   1.728  2.5940 -1.3360 -1.9816
  150OSM   H14C16592   6.186   6.319   1.788  1.1999  0.8676  0.3019
  150OSM    C1316593   6.288   6.063   1.858 -0.0108 -0.4358  0.2544
  150OSM   H13A16594   6.295   6.016   1.761 -1.0892  1.6401 -0.9001
  150OSM   H13B16595   6.186   6.074   1.891 -0.3130 -1.9282 -0.1084
  150OSM   H13C16596   6.333   5.999   1.932 -1.3698 -1.6186  0.0969
  150OSM    C1216597   6.340   6.265   1.991  0.1890 -0.4817 -0.1961
  150OSM   H12A16598   6.377   6.367   1.989 -1.2986  0.0933  0.5080
  150OSM   H12B16599   6.400   6.210   2.062  2.1290 -2.0994 -2.8798
  150OSM    C1116600   6.194   6.272   2.054  0.1260  0.0643  0.0199
  150OSM   H11A16601   6.205   6.312   2.157 -0.4938 -0.9712  0.5007
  150OSM   H11B16602   6.172   6.165   2.074  0.8456 -0.7181 -2.9435
  150OSM      P16603   5.949   6.336   2.013  0.3419  0.0700  0.1720
  150OSM    O1316604   5.888   6.467   1.993 -0.1057  0.2211 -0.4209
  150OSM    O1416605   5.892   6.223   1.932 -0.2128  0.2347 -0.4408
  150OSM    O1116606   5.935   6.291   2.164 -0.0861  0.1269  0.1485
  150OSM    O1216607   6.098   6.347   1.984 -0.1881 -0.1679  0.2758
  150OSM    C1S16608   5.944   6.399   2.263 -0.0925  0.5698 -0.0436
  150OSM    H1S16609   5.852   6.462   2.266 -0.0185  0.8832 -2.2350
  150OSM    H1T16610   6.031   6.466   2.248  0.6414 -0.4159 -0.3309
  150OSM     NF16611   6.016   6.441   2.502 -0.4411 -0.5105  0.3849
  150OSM    HNF16612   6.112   6.446   2.527 -0.3239 -0.0072 -0.1539
  150OSM    C2S16613   5.974   6.337   2.400 -0.1056 -0.4236 -0.1880
  150OSM    H2S16614   5.877   6.301   2.440 -0.2470  0.4896  0.3038
  150OSM    C3S16615   6.073   6.213   2.395 -0.3383  0.3320 -0.4695
  150OSM    H3S16616   6.172   6.247   2.357 -0.5042 -0.0735 -1.2870
  150OSM     O316617   6.044   6.105   2.309  0.0732 -0.4923 -0.5057
  150OSM    HO316618   5.969   6.135   2.258 -0.2275 -2.4298 -1.2775
  150OSM    C4S16619   6.100   6.176   2.541  0.5060 -0.3969 -0.0451
  150OSM    H4S16620   6.156   6.251   2.599 -0.4861  1.7504 -1.6916
  150OSM    C5S16621   6.038   6.075   2.607 -1.1152  0.1657  0.1196
  150OSM    H5S16622   5.972   6.013   2.544  0.7305  0.7373 -2.5038
  150OSM    C6S16623   6.053   6.025   2.749  0.1270  0.1074  0.6314
  150OSM    H6S16624   6.125   5.940   2.746 -0.6246 -0.5382 -1.6024
  150OSM    H6T16625   5.966   5.959   2.768  1.3937 -1.9548 -0.3928
  150OSM    C7S16626   6.093   6.120   2.857  0.4314  0.1170  0.3054
  150OSM    H7S16627   6.021   6.204   2.858 -0.1191 -0.2620 -1.8682
  150OSM    H7T16628   6.198   6.158   2.854  0.2341  0.6449 -0.0454
  150OSM    C8S16629   6.091   6.052   2.995  0.8023 -0.0122 -0.2732
  150OSM    H8S16630   6.180   5.987   3.005 -0.8208 -2.0707  2.3510
  150OSM    H8T16631   5.994   5.997   2.997  0.0671  1.2501  0.5927
  150OSM    C9S16632   6.078   6.154   3.110 -0.2982  0.1290 -0.5180
  150OSM    H9S16633   5.979   6.204   3.103  0.1217  0.9491 -0.6965
  150OSM    H9T16634   6.165   6.222   3.094 -0.9936  1.0631 -0.4565
  150OSM   C10S16635   6.082   6.081   3.248  0.0211 -0.0261  0.8174
  150OSM   H10S16636   6.176   6.023   3.252 -0.6992 -1.1629  1.9395
  150OSM   H10T16637   5.993   6.015   3.240 -1.2617  1.5890  1.1748
  150OSM   C11S16638   6.075   6.167   3.368  0.6645 -0.5845  0.5171
  150OSM   H11S16639   5.979   6.223   3.364  0.8866 -0.0178  2.2277
  150OSM   H11T16640   6.159   6.240   3.373  0.2706  0.0689 -1.4593
  150OSM   C12S16641   6.071   6.081   3.490 -0.1392  0.5074 -0.4847
  150OSM   H12S16642   6.168   6.028   3.495  0.1803  1.0857 -0.4239
  150OSM   H12T16643   5.989   6.006   3.492  0.6851 -0.3950 -0.1675
  150OSM   C13S16644   6.060   6.159   3.620 -0.3970 -1.2151 -0.3982
  150OSM   H13S16645   5.962   6.211   3.607 -0.8736 -2.5800 -3.0146
  150OSM   H13T16646   6.140   6.236   3.616 -0.7827 -0.8284 -0.8612
  150OSM   C14S16647   6.062   6.069   3.746 -0.1723 -0.0039  0.2804
  150OSM   H14S16648   6.150   6.003   3.759 -0.2860  0.1286  2.0962
  150OSM   H14T16649   5.968   6.010   3.751 -0.0260 -0.4157 -1.4463
  150OSM   C15S16650   6.069   6.150   3.877 -0.5367  0.6509  0.8973
  150OSM   H15S16651   5.969   6.190   3.900 -0.6391  0.1688  1.3233
  150OSM   H15T16652   6.143   6.230   3.856 -0.8232  0.1948 -2.3772
  150OSM   C16S16653   6.109   6.064   3.997  0.0750 -0.1226  0.0753
  150OSM   H16S16654   6.192   5.998   3.965 -0.6254 -0.1970 -1.7444
  150OSM   H16T16655   6.016   6.005   4.016  1.6014 -2.3877  1.0038
  150OSM   C17S16656   6.160   6.134   4.127 -0.1296  0.0838  1.0264
  150OSM   H17S16657   6.062   6.164   4.168 -0.0937  1.7662 -0.0345
  150OSM   H17T16658   6.208   6.227   4.091 -0.6511 -1.4677 -4.8427
  150OSM   C18S16659   6.243   6.049   4.223  0.1858 -0.0632  0.1163
  150OSM   H18S16660   6.346   6.055   4.183  0.1467  0.2689  0.0676
  150OSM   H18T16661   6.218   5.941   4.230  1.1947 -0.3229 -0.1827
  150OSM   H18U16662   6.243   6.101   4.321  1.3796  0.2879 -0.0512
  150OSM    C1F16663   5.937   6.542   2.530 -0.5853 -0.0260  0.3394
  150OSM     OF16664   5.816   6.530   2.510 -0.0092 -0.1325  0.6476
  150OSM    C2F16665   5.997   6.667   2.582 -0.0698 -0.2707 -0.3396
  150OSM    H2F16666   6.019   6.743   2.504  0.9751 -1.5848 -1.3893
  150OSM    H2G16667   6.089   6.643   2.640 -0.7862 -0.1473  0.8613
  150OSM    C3F16668   5.900   6.740   2.684  0.4759 -0.1028 -0.6132
  150OSM    H3F16669   5.863   6.658   2.749  1.1287 -0.1094 -0.2413
  150OSM    H3G16670   5.810   6.779   2.631 -2.1461 -1.2858  2.6024
  150OSM    C4F16671   5.965   6.853   2.758 -0.2612  0.2571 -0.0857
  150OSM    H4F16672   5.991   6.928   2.681  0.0313  1.1220  0.8309
  150OSM    H4G16673   6.057   6.815   2.807 -0.5673  0.8433  0.9739
  150OSM    C5F16674   5.859   6.916   2.852 -0.3194 -0.1377  0.6199
  150OSM    H5F16675   5.765   6.865   2.822  1.2422 -1.7289 -1.9251
  150OSM    H5G16676   5.858   7.025   2.831  0.6662 -0.3446 -0.6104
  150OSM    C6F16677   5.889   6.896   3.001  0.0755 -0.4776  0.0388
  150OSM    H6F16678   5.999   6.901   3.010  0.1452 -1.3551 -0.1718
  150OSM    H6G16679   5.862   6.791   3.026 -0.4250 -0.2575  0.4390
  150OSM    C7F16680   5.812   6.988   3.099 -0.3179  0.3360 -0.0242
  150OSM    H7F16681   5.723   7.032   3.048 -2.3297 -4.0533 -0.7575
  150OSM    H7G16682   5.881   7.064   3.142 -0.8595  1.2349 -0.7248
  150OSM    C8F16683   5.737   6.908   3.216 -0.2648  0.1472  0.4326
  150OSM    H8F16684   5.805   6.838   3.270  0.9640  0.3650 -0.7917
  150OSM    H8G16685   5.664   6.849   3.157 -2.9288  2.9902  0.6548
  150OSM    C9F16686   5.660   6.999   3.314 -0.5955  0.2827  0.0571
  150OSM    H9F16687   5.558   7.022   3.278 -1.1006 -1.2544  0.4084
  150OSM   C10F16688   5.683   7.032   3.442 -0.3111 -0.2387 -0.5404
  150OSM   H10F16689   5.599   7.081   3.494  0.7188  1.7528 -0.6456
  150OSM   C11F16690   5.809   7.004   3.524 -0.2120 -0.0848 -0.4174
  150OSM   H11F16691   5.867   7.098   3.529  0.7937 -0.7500  2.8830
  150OSM   H11G16692   5.880   6.937   3.472  1.9334  1.8616 -0.1197
  150OSM   C12F16693   5.795   6.957   3.665  0.1273 -0.5130  0.6495
  150OSM   H12F16694   5.899   6.946   3.704  0.2665  1.1641  0.8404
  150OSM   H12G16695   5.740   6.862   3.677 -1.0999 -0.1117 -1.3545
  150OSM   C13F16696   5.737   7.066   3.758  0.8265 -0.0436 -0.7290
  150OSM   H13F16697   5.640   7.101   3.716  1.7996  1.3472 -1.9141
  150OSM   H13G16698   5.793   7.161   3.750 -0.6572  1.0136  0.5539
  150OSM   C14F16699   5.729   7.030   3.912 -0.2312 -0.3626 -0.9923
  150OSM   H14F16700   5.825   6.978   3.930  0.6947  1.9212  1.1945
  150OSM   H14G16701   5.643   6.960   3.919 -0.8633  0.2410 -2.3389
  150OSM   C15F16702   5.715   7.150   3.999 -0.1633  0.7261 -1.0641
  150OSM   H15F16703   5.619   7.206   3.998  0.5606  2.0241 -1.2866
  150OSM   H15G16704   5.785   7.221   3.949 -0.8228  0.6346 -2.1523
  150OSM   C16F16705   5.764   7.124   4.143 -0.2645  0.2806  0.0813
  150OSM   H16F16706   5.869   7.089   4.138 -0.6896 -0.9137 -2.6416
  150OSM   H16G16707   5.706   7.040   4.186 -1.2886  1.0194  0.1844
  150OSM   C17F16708   5.754   7.235   4.244  0.0913 -0.0774  0.7849
  150OSM   H17F16709   5.650   7.272   4.249  0.1585  0.6015 -1.4057
  150OSM   H17G16710   5.814   7.319   4.202  0.7898 -1.2955 -0.7726
  150OSM   C18F16711   5.803   7.190   4.383  0.6871 -0.3682 -0.5930
  150OSM   H18F16712   5.912   7.168   4.388  0.3612 -1.9352  0.4645
  150OSM   H18G16713   5.740   7.111   4.429  1.3473 -0.9617 -0.6852
  150OSM   H18H16714   5.790   7.275   4.454  1.8975 -0.4466 -0.2587
  151OSM      N16715   0.253   5.290   2.697 -0.1796  0.0899  0.1260
  151OSM    C1516716   0.387   5.236   2.737  0.3001 -0.1039 -0.3837
  151OSM   H15A16717   0.444   5.212   2.648  0.6194  1.4393 -0.6265
  151OSM   H15B16718   0.380   5.151   2.803 -2.0283  0.2030 -0.1649
  151OSM   H15C16719   0.441   5.307   2.798 -0.9152  0.6120 -0.1191
  151OSM    C1416720   0.264   5.414   2.616  0.4635  0.0380  0.6551
  151OSM   H14A16721   0.334   5.401   2.534 -2.7223  0.1399 -2.2736
  151OSM   H14B16722   0.296   5.488   2.687  0.2445 -0.7273  1.5803
  151OSM   H14C16723   0.169   5.449   2.582  0.0014  1.0887  2.8686
  151OSM    C1316724   0.179   5.185   2.621 -0.4656 -0.2427  0.4650
  151OSM   H13A16725   0.073   5.202   2.627 -0.3556  0.3787  0.7969
  151OSM   H13B16726   0.196   5.081   2.640  2.5487 -0.4707 -2.4276
  151OSM   H13C16727   0.203   5.194   2.516 -2.7370 -0.6681 -0.1438
  151OSM    C1216728   0.161   5.322   2.825 -0.4105  0.6695  0.7342
  151OSM   H12A16729   0.234   5.377   2.882 -0.1863  1.9594 -0.7433
  151OSM   H12B16730   0.153   5.230   2.883 -1.6700  0.5881  0.4620
  151OSM    C1116731   0.023   5.395   2.802  0.3856  0.0496 -0.8673
  151OSM   H11A16732   0.055   5.498   2.777  5.1796 -0.4010  1.9765
  151OSM   H11B16733  -0.015   5.387   2.906  3.9008 -1.8769  0.4403
  151OSM      P16734  -0.127   5.411   2.594 -0.0961  0.1830  0.2729
  151OSM    O1316735  -0.025   5.501   2.533  0.3436  0.3094  0.6158
  151OSM    O1416736  -0.199   5.316   2.505  0.4482  0.0289  0.2757
  151OSM    O1116737  -0.227   5.511   2.663  0.7706 -0.3083 -0.3619
  151OSM    O1216738  -0.060   5.321   2.717 -0.2898  0.0456 -0.2470
  151OSM    C1S16739  -0.341   5.457   2.740  0.8003  0.2050 -0.3410
  151OSM    H1S16740  -0.353   5.349   2.721 -2.9219  0.4941 -0.3210
  151OSM    H1T16741  -0.434   5.512   2.713  1.8622  1.9148 -0.6928
  151OSM     NF16742  -0.426   5.422   2.976  0.2958  0.0302  0.4110
  151OSM    HNF16743  -0.491   5.486   3.016 -2.1572 -0.5220 -2.3227
  151OSM    C2S16744  -0.315   5.475   2.901 -0.1915  0.4599  0.4054
  151OSM    H2S16745  -0.230   5.407   2.923  0.0219  0.4328 -0.4428
  151OSM    C3S16746  -0.276   5.620   2.941 -0.0174  0.2363 -0.4070
  151OSM    H3S16747  -0.368   5.681   2.951  0.5525  0.9093  1.1328
  151OSM     O316748  -0.186   5.686   2.846  0.0338 -0.6000 -0.5655
  151OSM    HO316749  -0.182   5.631   2.767  1.9925 -1.4178  0.0434
  151OSM    C4S16750  -0.235   5.615   3.079 -0.0657 -0.4233 -0.8504
  151OSM    H4S16751  -0.315   5.607   3.153  0.7860 -0.4364  0.0913
  151OSM    C5S16752  -0.103   5.617   3.123 -0.1274 -0.4129  0.6261
  151OSM    H5S16753  -0.030   5.622   3.041 -2.0419 -0.2824 -1.1574
  151OSM    C6S16754  -0.062   5.616   3.268  0.0799 -0.4136  0.0853
  151OSM    H6S16755   0.021   5.687   3.289  0.0524 -0.1671 -0.6064
  151OSM    H6T16756   0.000   5.525   3.283 -0.6242 -0.7026  1.4363
  151OSM    C7S16757  -0.165   5.644   3.378 -0.2188 -0.1378 -0.2008
  151OSM    H7S16758  -0.239   5.561   3.375 -0.1247 -0.1820 -1.8196
  151OSM    H7T16759  -0.213   5.743   3.360  0.8198  0.6640  1.2164
  151OSM    C8S16760  -0.100   5.644   3.517 -0.3198  0.5564 -0.4280
  151OSM    H8S16761  -0.028   5.728   3.522  0.3295  0.0798 -1.4640
  151OSM    H8T16762  -0.045   5.549   3.535 -0.2482  0.4963 -0.9689
  151OSM    C9S16763  -0.192   5.672   3.637  0.7230 -0.2686 -0.7766
  151OSM    H9S16764  -0.277   5.602   3.646 -0.7489  1.5700  0.4070
  151OSM    H9T16765  -0.225   5.777   3.624  0.8077 -0.0575  0.5727
  151OSM   C10S16766  -0.108   5.680   3.762 -0.3119 -0.2405  0.8725
  151OSM   H10S16767  -0.067   5.783   3.765  0.3548 -0.4646 -0.1463
  151OSM   H10T16768  -0.024   5.607   3.758 -0.9159 -0.8909 -1.0806
  151OSM   C11S16769  -0.203   5.655   3.892  0.0163 -0.1957  0.3236
  151OSM   H11S16770  -0.233   5.548   3.899  2.0805 -0.8390  0.0533
  151OSM   H11T16771  -0.300   5.706   3.874  1.0431  1.6416 -0.2930
  151OSM   C12S16772  -0.135   5.706   4.021 -0.3041 -0.0726  0.0459
  151OSM   H12S16773  -0.101   5.809   3.995  0.7192 -1.1200 -3.3216
  151OSM   H12T16774  -0.040   5.653   4.043  1.8845  2.5187 -2.4214
  151OSM   C13S16775  -0.226   5.719   4.149  0.0134  0.2348  0.0735
  151OSM   H13S16776  -0.245   5.615   4.181 -1.4330  0.6858  0.7339
  151OSM   H13T16777  -0.321   5.767   4.116 -1.4896 -0.6605  2.8215
  151OSM   C14S16778  -0.170   5.799   4.265  0.1569  0.4211 -0.3140
  151OSM   H14S16779  -0.120   5.883   4.211  2.0748 -0.9120 -0.6922
  151OSM   H14T16780  -0.086   5.742   4.310  2.0472  3.0005 -0.3612
  151OSM   C15S16781  -0.269   5.838   4.372  0.6417  0.4630  0.4449
  151OSM   H15S16782  -0.303   5.942   4.351  2.1909  0.7075 -1.0178
  151OSM   H15T16783  -0.219   5.854   4.470 -1.9874 -1.7135  2.2855
  151OSM   C16S16784  -0.378   5.740   4.386  0.2626 -0.1709  0.2276
  151OSM   H16S16785  -0.336   5.638   4.388  0.4099 -0.1632 -1.4720
  151OSM   H16T16786  -0.443   5.745   4.297  1.0780  0.5625 -0.3411
  151OSM   C17S16787  -0.459   5.752   4.513  0.2807  0.3096 -0.1281
  151OSM   H17S16788  -0.517   5.845   4.496  1.9572  1.2736 -0.8673
  151OSM   H17T16789  -0.402   5.756   4.609 -1.1952  0.0030  0.7921
  151OSM   C18S16790  -0.557   5.625   4.507 -0.2606  0.5755  0.3066
  151OSM   H18S16791  -0.492   5.536   4.505 -0.9388  0.0416 -2.6527
  151OSM   H18T16792  -0.625   5.620   4.419 -1.8788 -2.7979  1.5843
  151OSM   H18U16793  -0.623   5.621   4.597  0.0074  0.3065  0.4919
  151OSM    C1F16794  -0.462   5.297   2.987  0.1592  1.8267  1.1455
  151OSM     OF16795  -0.400   5.198   2.928  0.5635 -0.4072 -0.9078
  151OSM    C2F16796  -0.595   5.265   3.055  0.2303 -0.1598  0.7848
  151OSM    H2F16797  -0.667   5.341   3.017  0.7735  0.2580  0.5898
  151OSM    H2G16798  -0.580   5.264   3.165 -0.3087 -1.0816  0.8630
  151OSM    C3F16799  -0.657   5.129   3.023 -0.7931 -0.2506 -0.0216
  151OSM    H3F16800  -0.583   5.048   3.036  0.0301  0.8812  3.1350
  151OSM    H3G16801  -0.702   5.144   2.922 -2.4398  0.8756  0.8341
  151OSM    C4F16802  -0.774   5.092   3.117  0.1900 -0.2232  0.1552
  151OSM    H4F16803  -0.845   5.024   3.065  0.1516  1.1650 -1.7027
  151OSM    H4G16804  -0.824   5.189   3.138 -1.2246 -0.5537 -1.5079
  151OSM    C5F16805  -0.726   5.026   3.249 -0.1290 -0.6305  0.2348
  151OSM    H5F16806  -0.629   5.073   3.274  0.1623 -0.7199 -0.6831
  151OSM    H5G16807  -0.707   4.919   3.224 -1.8872 -0.4871 -2.1292
  151OSM    C6F16808  -0.826   5.032   3.356 -0.2345  0.4646  0.4796
  151OSM    H6F16809  -0.926   4.993   3.327 -1.6225  1.0781  3.9079
  151OSM    H6G16810  -0.851   5.139   3.371 -1.8740 -0.0212  1.4160
  151OSM    C7F16811  -0.783   4.959   3.480 -0.1329 -0.4723  0.4921
  151OSM    H7F16812  -0.678   4.988   3.503  0.2745  1.3245 -3.1126
  151OSM    H7G16813  -0.775   4.852   3.449  0.9912  0.0779 -1.2231
  151OSM    C8F16814  -0.876   4.995   3.601  0.2328 -0.3855  0.3051
  151OSM    H8F16815  -0.983   4.981   3.578  0.2870  1.6457 -1.3954
  151OSM    H8G16816  -0.871   5.104   3.620 -3.4817 -0.2111  0.9800
  151OSM    C9F16817  -0.822   4.918   3.723  0.1723  0.0391  1.0562
  151OSM    H9F16818  -0.713   4.919   3.732  0.5422 -1.6653 -2.0019
  151OSM   C10F16819  -0.874   4.840   3.821 -0.2937  0.4804  0.1937
  151OSM   H10F16820  -0.807   4.787   3.891 -0.1170  0.9726  0.4041
  151OSM   C11F16821  -1.022   4.817   3.843 -0.3788  0.0470 -0.2951
  151OSM   H11F16822  -1.051   4.720   3.796 -1.0249  0.8441 -1.5776
  151OSM   H11G16823  -1.091   4.900   3.817  1.8057  2.3011  0.6707
  151OSM   C12F16824  -1.046   4.799   3.997 -0.0357 -0.3715  0.0811
  151OSM   H12F16825  -1.021   4.895   4.047 -0.6691 -1.3204  2.3681
  151OSM   H12G16826  -0.966   4.738   4.045 -0.1805  0.2621  1.1512
  151OSM   C13F16827  -1.186   4.745   4.030  0.7109 -0.3805  0.2584
  151OSM   H13F16828  -1.203   4.670   3.950  0.9558  0.8923 -1.0264
  151OSM   H13G16829  -1.263   4.823   4.011 -0.9327 -2.1591 -0.7055
  151OSM   C14F16830  -1.216   4.689   4.171  0.1727 -0.2382 -0.0904
  151OSM   H14F16831  -1.144   4.608   4.196 -1.9534 -1.2553  3.4526
  151OSM   H14G16832  -1.312   4.635   4.161  1.6987 -2.7285 -2.9377
  151OSM   C15F16833  -1.225   4.796   4.278 -0.6405 -0.7398  0.2025
  151OSM   H15F16834  -1.302   4.876   4.266 -0.6579 -0.9722 -1.5154
  151OSM   H15G16835  -1.132   4.854   4.294 -1.9496  0.9267  2.3233
  151OSM   C16F16836  -1.257   4.748   4.418 -0.4908 -0.3704  0.7128
  151OSM   H16F16837  -1.226   4.833   4.484  1.1475  1.4641 -2.2035
  151OSM   H16G16838  -1.191   4.661   4.439  0.5523  0.6712  1.9455
  151OSM   C17F16839  -1.408   4.711   4.446 -0.0943  0.2678 -0.9818
  151OSM   H17F16840  -1.434   4.615   4.397  0.1972  0.7901 -2.2084
  151OSM   H17G16841  -1.467   4.795   4.404 -0.2682  0.6996  0.0972
  151OSM   C18F16842  -1.430   4.708   4.597 -0.0108  0.2335  0.0003
  151OSM   H18F16843  -1.392   4.802   4.642 -2.5788  1.6097 -0.5460
  151OSM   H18G16844  -1.378   4.623   4.645 -1.6653  0.1224  1.6902
  151OSM   H18H16845  -1.537   4.705   4.624 -0.0112  1.3757  0.1834
  152OSM      N16846   0.015   6.726   1.963 -0.3383  0.0671  0.3378
  152OSM    C1516847   0.159   6.711   2.021  0.2192 -0.2013 -0.2377
  152OSM   H15A16848   0.180   6.808   2.062 -3.0586  0.5317 -0.0398
  152OSM   H15B16849   0.232   6.692   1.944 -0.3177  0.3969 -0.9084
  152OSM   H15C16850   0.163   6.644   2.106 -0.3097 -1.0097 -0.8314
  152OSM    C1416851   0.030   6.817   1.846 -0.1933  0.6404  0.4809
  152OSM   H14A16852   0.053   6.912   1.891  0.6299  0.8407 -0.3407
  152OSM   H14B16853  -0.066   6.816   1.796 -1.7963 -0.1456  3.3847
  152OSM   H14C16854   0.110   6.789   1.779  0.3080 -2.2553  2.1187
  152OSM    C1316855  -0.021   6.589   1.911  0.4781 -0.1251 -0.2078
  152OSM   H13A16856   0.066   6.541   1.870  1.9966  1.5254  0.9587
  152OSM   H13B16857  -0.091   6.613   1.831  0.4388  2.0779  0.4169
  152OSM   H13C16858  -0.072   6.522   1.978 -0.0663  2.5605  2.2806
  152OSM    C1216859  -0.088   6.781   2.061 -0.0102  0.2566 -0.1966
  152OSM   H12A16860  -0.186   6.793   2.016 -0.5827  1.6479  1.3130
  152OSM   H12B16861  -0.075   6.888   2.072  1.5102  0.3262 -2.1042
  152OSM    C1116862  -0.106   6.718   2.208 -0.0796  0.0125  0.5410
  152OSM   H11A16863  -0.188   6.774   2.259 -2.1515 -1.3020 -1.1497
  152OSM   H11B16864  -0.016   6.740   2.269 -1.3952  3.3285  1.5202
  152OSM      P16865  -0.270   6.501   2.248  0.1332  0.2645 -0.4345
  152OSM    O1316866  -0.391   6.543   2.181  0.8074 -0.1450  0.6335
  152OSM    O1416867  -0.239   6.355   2.235  0.4998  0.3587 -0.3099
  152OSM    O1116868  -0.282   6.520   2.395 -0.5925  0.4460  0.5246
  152OSM    O1216869  -0.144   6.583   2.195 -0.1248 -0.4546  0.1923
  152OSM    C1S16870  -0.177   6.478   2.486 -0.2657  0.7918 -0.1563
  152OSM    H1S16871  -0.086   6.541   2.474 -1.4839  2.4319 -1.4012
  152OSM    H1T16872  -0.152   6.370   2.478 -1.2159  0.4512  1.1944
  152OSM     NF16873  -0.134   6.444   2.730 -0.4067  0.6715 -0.0170
  152OSM    HNF16874  -0.143   6.354   2.772  0.2848  1.9298  3.0941
  152OSM    C2S16875  -0.233   6.490   2.630 -0.0997  0.1789 -0.3723
  152OSM    H2S16876  -0.237   6.601   2.637 -0.6503  0.2068 -1.0547
  152OSM    C3S16877  -0.369   6.421   2.644  0.4965 -0.0366 -0.7375
  152OSM    H3S16878  -0.362   6.314   2.616 -2.5619 -0.7185  0.7553
  152OSM     O316879  -0.467   6.465   2.555 -0.1395 -0.0427  0.2706
  152OSM    HO316880  -0.415   6.509   2.488 -0.6677  0.8242  0.4087
  152OSM    C4S16881  -0.415   6.432   2.790  0.0915 -0.0901  0.1790
  152OSM    H4S16882  -0.365   6.353   2.849  2.9777  1.4589 -0.0331
  152OSM    C5S16883  -0.491   6.529   2.850  0.1108 -0.3380 -0.8259
  152OSM    H5S16884  -0.533   6.613   2.793  0.0901 -0.0565 -0.3964
  152OSM    C6S16885  -0.517   6.538   2.997 -0.2506  0.3800  0.3520
  152OSM    H6S16886  -0.432   6.585   3.050  0.4939  2.3804 -2.4194
  152OSM    H6T16887  -0.538   6.437   3.039 -2.0484  1.1662  1.4707
  152OSM    C7S16888  -0.648   6.618   3.039  0.1362 -0.4320 -0.2963
  152OSM    H7S16889  -0.733   6.592   2.972  0.8410 -0.4867 -1.2006
  152OSM    H7T16890  -0.637   6.726   3.015 -1.3182  0.3046  2.0830
  152OSM    C8S16891  -0.697   6.606   3.182 -0.1796 -0.2249 -0.2973
  152OSM    H8S16892  -0.716   6.499   3.206 -2.4434  0.4587  1.3833
  152OSM    H8T16893  -0.793   6.661   3.195  0.7279  0.8391  3.1476
  152OSM    C9S16894  -0.604   6.648   3.293 -0.3331 -0.1044 -0.6018
  152OSM    H9S16895  -0.564   6.750   3.277  0.5627 -0.0164  1.7923
  152OSM    H9T16896  -0.523   6.574   3.311  0.3263  0.5916 -0.7005
  152OSM   C10S16897  -0.681   6.646   3.430 -0.5731  0.6366 -0.4200
  152OSM   H10S16898  -0.735   6.549   3.436  0.4186  0.1391  1.4702
  152OSM   H10T16899  -0.752   6.730   3.418  0.2689  1.1453 -2.1563
  152OSM   C11S16900  -0.597   6.653   3.562  0.5791 -0.1530 -0.1618
  152OSM   H11S16901  -0.529   6.740   3.550  2.1267 -1.1100  1.2757
  152OSM   H11T16902  -0.528   6.567   3.575 -2.4798 -2.5833  1.1461
  152OSM   C12S16903  -0.693   6.656   3.679  0.3482 -0.0737  0.2565
  152OSM   H12S16904  -0.755   6.564   3.676  0.2356  0.0271 -1.1809
  152OSM   H12T16905  -0.758   6.746   3.677  0.4827  0.0497  1.1457
  152OSM   C13S16906  -0.615   6.656   3.813 -0.1099  0.0122  0.2032
  152OSM   H13S16907  -0.575   6.755   3.844  3.6233 -1.6539  1.3404
  152OSM   H13T16908  -0.525   6.591   3.807  1.5355  2.2774 -1.2512
  152OSM   C14S16909  -0.696   6.600   3.929 -0.6171 -0.0910 -0.0789
  152OSM   H14S16910  -0.678   6.492   3.949 -2.1108  0.1095  2.8283
  152OSM   H14T16911  -0.806   6.616   3.921 -0.4826  0.2889 -1.3730
  152OSM   C15S16912  -0.656   6.682   4.052  0.5035 -0.9649  0.2274
  152OSM   H15S16913  -0.691   6.788   4.049 -0.3577 -1.1943  1.4212
  152OSM   H15T16914  -0.547   6.684   4.068  0.4407  1.6302  0.8508
  152OSM   C16S16915  -0.701   6.616   4.180 -0.2420  0.2195 -0.0719
  152OSM   H16S16916  -0.636   6.527   4.182  1.1072  1.1306 -1.2846
  152OSM   H16T16917  -0.809   6.590   4.169  0.1015 -1.4641  0.3174
  152OSM   C17S16918  -0.696   6.700   4.312  0.3782 -0.1741  0.4584
  152OSM   H17S16919  -0.602   6.757   4.316  0.5633 -0.3961 -0.5194
  152OSM   H17T16920  -0.703   6.632   4.399 -1.3632 -3.9618 -2.3033
  152OSM   C18S16921  -0.812   6.793   4.315  0.3420  0.4178  0.0029
  152OSM   H18S16922  -0.911   6.745   4.303 -0.1471  1.7010 -1.3434
  152OSM   H18T16923  -0.811   6.879   4.245 -3.8701  0.1241 -0.6778
  152OSM   H18U16924  -0.824   6.840   4.415 -1.2956 -0.4569  0.2524
  152OSM    C1F16925  -0.020   6.501   2.757 -0.3001 -0.1417 -0.1093
  152OSM     OF16926  -0.003   6.618   2.728  0.2752  0.1148 -0.1281
  152OSM    C2F16927   0.086   6.411   2.813 -0.8419 -0.0253 -0.8202
  152OSM    H2F16928   0.140   6.355   2.733 -1.3248 -2.2263  0.3045
  152OSM    H2G16929   0.042   6.326   2.869  0.3069  0.3226  0.6688
  152OSM    C3F16930   0.193   6.466   2.912  0.7442 -0.5546 -0.0290
  152OSM    H3F16931   0.155   6.515   3.005  0.3901 -1.7234  0.4544
  152OSM    H3G16932   0.256   6.543   2.863  0.5881  0.7904  1.7607
  152OSM    C4F16933   0.288   6.355   2.964  0.7207  0.1277 -0.0462
  152OSM    H4F16934   0.352   6.332   2.876 -0.3888 -0.3450 -0.7531
  152OSM    H4G16935   0.219   6.273   2.994 -2.4613  2.0585 -1.5179
  152OSM    C5F16936   0.379   6.397   3.083  0.2597  0.0458  0.5518
  152OSM    H5F16937   0.442   6.480   3.047 -0.0627  0.7993  1.6708
  152OSM    H5G16938   0.446   6.309   3.096  0.1297 -0.0316  0.7187
  152OSM    C6F16939   0.314   6.435   3.213  0.1142 -0.2735  0.8130
  152OSM    H6F16940   0.261   6.347   3.253 -0.4803 -0.3870 -0.1877
  152OSM    H6G16941   0.244   6.521   3.204  1.9307  1.1448 -0.6271
  152OSM    C7F16942   0.410   6.483   3.325 -0.4018  0.6316 -0.5662
  152OSM    H7F16943   0.475   6.566   3.290  1.4827 -0.7600 -0.4936
  152OSM    H7G16944   0.469   6.391   3.346 -1.5020 -0.0501 -0.3332
  152OSM    C8F16945   0.338   6.536   3.454 -0.1112  0.0329  0.0427
  152OSM    H8F16946   0.245   6.593   3.432 -0.5120  0.5562  2.8130
  152OSM    H8G16947   0.404   6.611   3.503 -0.2911  0.7101 -0.7235
  152OSM    C9F16948   0.302   6.435   3.561 -0.5131  0.6159 -0.0181
  152OSM    H9F16949   0.250   6.345   3.526  3.5713 -2.1261  0.2829
  152OSM   C10F16950   0.327   6.440   3.691  0.1627 -0.1238 -0.8584
  152OSM   H10F16951   0.307   6.344   3.742  2.3493 -0.0727  0.2121
  152OSM   C11F16952   0.411   6.537   3.778  0.3254 -0.5236 -0.3158
  152OSM   H11F16953   0.466   6.612   3.718 -0.9608  1.8972  1.3248
  152OSM   H11G16954   0.486   6.480   3.837  0.9351  0.1661 -0.4137
  152OSM   C12F16955   0.312   6.620   3.876  0.5168  0.1618  0.1568
  152OSM   H12F16956   0.217   6.658   3.832  2.2330  2.4457 -1.9104
  152OSM   H12G16957   0.353   6.713   3.921 -2.3026  0.8117  1.5667
  152OSM   C13F16958   0.290   6.533   4.001  0.2112  0.4724 -0.0631
  152OSM   H13F16959   0.266   6.430   3.968 -0.7232 -0.1572  2.3290
  152OSM   H13G16960   0.211   6.584   4.060 -1.2601 -0.2941 -1.3087
  152OSM   C14F16961   0.399   6.547   4.107 -0.0203 -0.2005 -0.4546
  152OSM   H14F16962   0.438   6.651   4.114 -0.5126 -0.0990  1.8474
  152OSM   H14G16963   0.480   6.477   4.078 -0.1466 -0.2802 -0.6147
  152OSM   C15F16964   0.338   6.490   4.240  0.4448 -0.8095 -0.4539
  152OSM   H15F16965   0.314   6.387   4.206  0.3526 -0.5929 -1.0657
  152OSM   H15G16966   0.247   6.538   4.283 -0.6055 -1.2859 -2.0581
  152OSM   C16F16967   0.448   6.492   4.349  0.8122 -0.6652  0.0340
  152OSM   H16F16968   0.549   6.460   4.316 -0.1567 -2.8620 -0.9723
  152OSM   H16G16969   0.408   6.417   4.421 -0.8492 -0.0412 -0.2034
  152OSM   C17F16970   0.447   6.620   4.436  0.1749 -0.3177  0.0146
  152OSM   H17F16971   0.342   6.654   4.453  0.3947  0.5660 -0.3358
  152OSM   H17G16972   0.485   6.706   4.376  0.7877 -0.2937  0.4399
  152OSM   C18F16973   0.513   6.596   4.568 -0.0373  0.1550 -0.0220
  152OSM   H18F16974   0.508   6.688   4.630 -1.9877  1.6116 -2.2045
  152OSM   H18G16975   0.618   6.560   4.563  0.3509  1.2971 -0.2095
  152OSM   H18H16976   0.454   6.513   4.614 -0.8386  0.8769  0.2677
  153OSM      N16977   6.113   1.204   2.014  0.2678  0.7940  0.2897
  153OSM    C1516978   6.123   1.258   1.875  0.4511  0.2678 -0.2954
  153OSM   H15A16979   6.211   1.319   1.860  0.7067  0.3867  1.4398
  153OSM   H15B16980   6.045   1.330   1.856  1.5046  1.3594 -0.5599
  153OSM   H15C16981   6.118   1.176   1.806 -2.7673 -0.7939  1.0087
  153OSM    C1416982   6.072   1.312   2.113  0.5253 -0.2340  0.8814
  153OSM   H14A16983   5.967   1.335   2.103  0.6851  0.9494  1.7727
  153OSM   H14B16984   6.117   1.410   2.112 -0.7231  0.4371  3.3472
  153OSM   H14C16985   6.093   1.267   2.209  1.9897 -0.4371  0.4907
  153OSM    C1316986   5.997   1.107   2.005  0.0729  0.5340  0.4717
  153OSM   H13A16987   5.979   1.069   2.104  0.9269  0.1361  0.4895
  153OSM   H13B16988   6.026   1.020   1.947 -0.5088  0.3582  0.4351
  153OSM   H13C16989   5.909   1.145   1.954 -0.2412  0.4705  0.9671
  153OSM    C1216990   6.246   1.132   2.056 -0.0018  0.2094 -0.2183
  153OSM   H12A16991   6.325   1.205   2.045 -0.0901  0.0443 -2.2199
  153OSM   H12B16992   6.252   1.052   1.984  0.6752 -0.1254  0.2011
  153OSM    C1116993   6.250   1.073   2.196  0.3225 -0.2423  0.3935
  153OSM   H11A16994   6.222   1.147   2.273 -4.0640 -0.6061 -0.5817
  153OSM   H11B16995   6.354   1.044   2.222  0.4580  0.3239  0.4920
  153OSM      P16996   6.201   0.827   2.131  0.0628  0.4168 -0.2222
  153OSM    O1316997   6.076   0.785   2.061  0.0648  0.0154 -0.4121
  153OSM    O1416998   6.321   0.853   2.049  0.0971 -0.4499  0.5281
  153OSM    O1116999   6.234   0.715   2.245 -0.1645  0.1197  0.4230
  153OSM    O1217000   6.160   0.960   2.214  0.1718  0.1232 -0.2182
  153OSM    C1S17001   6.136   0.699   2.345  0.2097  0.2808 -0.2275
  153OSM    H1S17002   6.066   0.623   2.306  0.5499  0.8379 -2.0391
  153OSM    H1T17003   6.075   0.789   2.368  0.0389  0.3473 -0.9303
  153OSM     NF17004   6.087   0.619   2.570 -0.5892  0.7396 -0.4050
  153OSM    HNF17005   6.080   0.681   2.648  0.7848  0.6733 -0.2047
  153OSM    C2S17006   6.198   0.649   2.482 -0.2000  0.0714  0.2786
  153OSM    H2S17007   6.251   0.555   2.455  3.1213  1.8903  0.0392
  153OSM    C3S17008   6.304   0.757   2.527 -0.4450 -0.2079  0.0417
  153OSM    H3S17009   6.245   0.845   2.559 -0.5394 -0.6323  1.0947
  153OSM     O317010   6.415   0.789   2.436 -0.2718 -0.2950 -0.2040
  153OSM    HO317011   6.380   0.772   2.348 -0.6546  0.5952 -0.2328
  153OSM    C4S17012   6.358   0.706   2.666 -0.5324 -0.0953 -0.0237
  153OSM    H4S17013   6.300   0.745   2.750 -0.3856 -3.7480  1.9922
  153OSM    C5S17014   6.471   0.629   2.686  0.2049 -0.1927  0.3856
  153OSM    H5S17015   6.513   0.571   2.602  0.6490  0.8642 -0.1444
  153OSM    C6S17016   6.524   0.585   2.816 -0.7203 -0.2161 -0.1429
  153OSM    H6S17017   6.629   0.615   2.831 -0.5155 -1.3019  0.7462
  153OSM    H6T17018   6.533   0.475   2.832  1.7218  0.3808  3.8615
  153OSM    C7S17019   6.440   0.627   2.933 -0.3149  0.2239  0.1518
  153OSM    H7S17020   6.339   0.580   2.935 -0.1934 -0.0603 -0.2251
  153OSM    H7T17021   6.419   0.736   2.931 -1.1372  0.0718 -0.9256
  153OSM    C8S17022   6.504   0.592   3.066 -0.1737 -0.2144 -0.5714
  153OSM    H8S17023   6.597   0.652   3.073 -1.2508  1.4321  0.2204
  153OSM    H8T17024   6.529   0.485   3.084 -1.2045 -0.2546  0.7111
  153OSM    C9S17025   6.420   0.626   3.193 -0.8183  0.4034 -0.3180
  153OSM    H9S17026   6.324   0.570   3.197  0.5115 -2.1100 -1.3698
  153OSM    H9T17027   6.401   0.735   3.188 -3.8522 -0.0261  0.0178
  153OSM   C10S17028   6.504   0.595   3.324 -0.0365 -0.5008 -0.5205
  153OSM   H10S17029   6.607   0.637   3.326  0.8375 -2.3944 -2.5710
  153OSM   H10T17030   6.520   0.486   3.333 -0.3847 -0.5671 -0.6697
  153OSM   C11S17031   6.432   0.633   3.456  0.5277 -0.4542 -0.4412
  153OSM   H11S17032   6.326   0.602   3.458  0.1385  0.7969 -0.6544
  153OSM   H11T17033   6.428   0.744   3.456  0.4628 -0.4402 -2.2410
  153OSM   C12S17034   6.506   0.573   3.583  0.4287 -0.3629 -0.4186
  153OSM   H12S17035   6.610   0.613   3.590 -0.0311  0.6754  0.7273
  153OSM   H12T17036   6.510   0.464   3.563 -1.4136 -0.5138 -0.0597
  153OSM   C13S17037   6.419   0.625   3.707  0.8063 -0.7807  0.0338
  153OSM   H13S17038   6.317   0.589   3.685  0.3036  0.3103  0.5032
  153OSM   H13T17039   6.420   0.736   3.698  0.4444 -0.8723 -1.5135
  153OSM   C14S17040   6.467   0.561   3.837  0.0529  0.5667  0.1175
  153OSM   H14S17041   6.578   0.568   3.838  0.2417 -1.7886  0.3126
  153OSM   H14T17042   6.462   0.450   3.826  3.0897  0.3933 -0.2547
  153OSM   C15S17043   6.419   0.630   3.964  0.6229  0.0354  0.5238
  153OSM   H15S17044   6.318   0.600   4.001 -0.3329  1.5418 -0.7562
  153OSM   H15T17045   6.427   0.740   3.950 -0.6004  0.5823  3.3180
  153OSM   C16S17046   6.518   0.602   4.075  0.2410  0.5874 -0.5118
  153OSM   H16S17047   6.604   0.666   4.047  0.3785  0.7123  0.1775
  153OSM   H16T17048   6.539   0.493   4.064 -0.8963  0.2443  0.4421
  153OSM   C17S17049   6.453   0.627   4.208  0.5172  0.1413  0.8820
  153OSM   H17S17050   6.355   0.581   4.230 -0.4940  0.5200 -2.3744
  153OSM   H17T17051   6.445   0.737   4.219  1.5666  0.6730 -2.4925
  153OSM   C18S17052   6.537   0.579   4.327  0.1069  0.2494  0.4857
  153OSM   H18S17053   6.480   0.593   4.422 -1.2161 -0.1681 -0.2254
  153OSM   H18T17054   6.633   0.634   4.330  1.6350 -2.0787 -1.5351
  153OSM   H18U17055   6.563   0.471   4.313 -0.1514  0.4079 -1.4390
  153OSM    C1F17056   5.999   0.523   2.545  0.5137 -0.9966 -0.6316
  153OSM     OF17057   6.014   0.443   2.452  0.2916 -0.0678 -0.2079
  153OSM    C2F17058   5.880   0.532   2.630 -0.3794  0.7264  0.7642
  153OSM    H2F17059   5.874   0.627   2.688  2.4044  0.6293  1.3391
  153OSM    H2G17060   5.881   0.450   2.704 -1.7301  0.0855  0.1053
  153OSM    C3F17061   5.753   0.522   2.541  0.1965  0.2114 -0.7404
  153OSM    H3F17062   5.756   0.432   2.476  2.1596 -1.6749  1.7170
  153OSM    H3G17063   5.752   0.606   2.469  1.2720 -1.0330 -2.2790
  153OSM    C4F17064   5.628   0.521   2.633  0.4657 -0.0647 -0.7507
  153OSM    H4F17065   5.534   0.547   2.579 -1.1816  0.0262  1.9610
  153OSM    H4G17066   5.633   0.579   2.728 -1.0684 -1.5744  0.3183
  153OSM    C5F17067   5.600   0.382   2.701  0.3368 -0.0447  0.5774
  153OSM    H5F17068   5.522   0.395   2.778 -0.2660 -2.1373  0.3843
  153OSM    H5G17069   5.691   0.359   2.761  1.2803 -1.7223 -1.3263
  153OSM    C6F17070   5.581   0.263   2.602  0.2331 -0.6709 -0.1964
  153OSM    H6F17071   5.676   0.250   2.545 -0.3497  0.8480 -1.6088
  153OSM    H6G17072   5.502   0.291   2.529  0.0625  2.4417  1.0143
  153OSM    C7F17073   5.526   0.133   2.663 -0.0258 -1.1888  0.5175
  153OSM    H7F17074   5.482   0.149   2.763 -1.7673  2.2919 -0.6386
  153OSM    H7G17075   5.607   0.057   2.672  0.4123 -1.0527 -1.6860
  153OSM    C8F17076   5.427   0.059   2.574  0.3779  0.7698 -0.0203
  153OSM    H8F17077   5.395  -0.035   2.625 -0.5262  0.5380 -0.9874
  153OSM    H8G17078   5.470   0.027   2.477 -0.5883 -3.5542  0.7550
  153OSM    C9F17079   5.300   0.132   2.534  0.2906 -0.1117 -0.7963
  153OSM    H9F17080   5.311   0.216   2.464 -2.2630  0.3053 -0.7882
  153OSM   C10F17081   5.178   0.103   2.580 -0.1248 -0.9118  0.7031
  153OSM   H10F17082   5.102   0.179   2.557 -0.2308 -1.0765  0.5010
  153OSM   C11F17083   5.143  -0.017   2.662  0.3043  0.2586 -0.0005
  153OSM   H11F17084   5.208  -0.105   2.643 -0.4105 -0.0236 -1.2538
  153OSM   H11G17085   5.044  -0.061   2.637  1.6855 -1.8203 -2.1446
  153OSM   C12F17086   5.144   0.005   2.814 -0.2581  0.4718 -0.5082
  153OSM   H12F17087   5.076   0.082   2.855  1.9486  2.0076  0.5070
  153OSM   H12G17088   5.243   0.050   2.837 -0.0481 -1.0364  1.8980
  153OSM   C13F17089   5.116  -0.130   2.881 -0.3069 -0.8751  0.5365
  153OSM   H13F17090   5.197  -0.199   2.849 -0.9221 -1.3414 -0.0449
  153OSM   H13G17091   5.023  -0.172   2.837  0.6569 -1.6979 -0.7716
  153OSM   C14F17092   5.102  -0.124   3.031  0.2616  0.2793  0.3799
  153OSM   H14F17093   5.197  -0.080   3.068  0.9488 -1.0635  0.3036
  153OSM   H14G17094   5.102  -0.226   3.076 -1.1585  0.3640  0.6056
  153OSM   C15F17095   4.968  -0.056   3.079 -0.5786  0.0584  1.0016
  153OSM   H15F17096   4.875  -0.114   3.061  0.2497 -0.9165 -0.4071
  153OSM   H15G17097   4.956   0.038   3.021 -1.9201  0.4589  1.8847
  153OSM   C16F17098   4.962  -0.017   3.235  0.5127 -0.3576  0.9131
  153OSM   H16F17099   4.860   0.025   3.235  0.6907  0.1016  0.1052
  153OSM   H16G17100   5.039   0.060   3.258  0.6231 -0.6017  1.3787
  153OSM   C17F17101   4.971  -0.135   3.329 -0.5622  0.7703  0.5487
  153OSM   H17F17102   5.062  -0.195   3.311 -1.2660 -0.1921  0.0961
  153OSM   H17G17103   4.887  -0.199   3.292  0.6160 -0.0174 -0.8645
  153OSM   C18F17104   4.962  -0.090   3.474 -0.4634 -0.2367  0.1713
  153OSM   H18F17105   4.884  -0.012   3.486 -2.2123 -1.6939 -1.1221
  153OSM   H18G17106   5.059  -0.043   3.501 -0.1513  0.2395 -1.6212
  153OSM   H18H17107   4.944  -0.181   3.535  3.5441 -0.6249  1.0500
  154OSM      N17108   4.067   6.431   1.853 -0.1465  0.2736 -0.8429
  154OSM    C1517109   3.996   6.423   1.724 -0.1799  0.2409 -0.0780
  154OSM   H15A17110   3.940   6.331   1.717 -1.2099  0.8837 -0.5036
  154OSM   H15B17111   4.057   6.419   1.635 -0.4024 -1.3378 -0.1842
  154OSM   H15C17112   3.921   6.499   1.711 -0.8455 -0.3978 -0.0512
  154OSM    C1417113   4.170   6.315   1.871 -0.1808  0.3604  0.8010
  154OSM   H14A17114   4.222   6.334   1.964  1.0959 -1.6307  0.5556
  154OSM   H14B17115   4.227   6.301   1.781 -1.4190  3.3912 -0.5802
  154OSM   H14C17116   4.118   6.225   1.899 -1.2432  0.3881 -0.9659
  154OSM    C1317117   4.152   6.561   1.849 -0.0639 -1.0639 -0.4932
  154OSM   H13A17118   4.202   6.572   1.944  1.2649  1.7181 -1.4084
  154OSM   H13B17119   4.095   6.653   1.845 -0.3033 -1.1266  0.8835
  154OSM   H13C17120   4.229   6.555   1.773 -0.9162 -1.0322 -1.3814
  154OSM    C1217121   3.978   6.438   1.977 -0.2103  0.2713  0.0814
  154OSM   H12A17122   3.921   6.530   1.973  0.7049  0.8819  0.7058
  154OSM   H12B17123   4.043   6.460   2.061  0.6087 -0.3467 -0.3748
  154OSM    C1117124   3.875   6.334   2.001 -0.2394  0.0546  0.2827
  154OSM   H11A17125   3.811   6.331   1.910 -1.2216  0.3121  0.9556
  154OSM   H11B17126   3.812   6.364   2.088 -2.2002 -0.8853 -0.7572
  154OSM      P17127   3.966   6.158   2.163 -0.2211 -0.0335 -0.1476
  154OSM    O1317128   3.834   6.120   2.227 -0.1578 -0.3442  0.0614
  154OSM    O1417129   4.079   6.065   2.178  0.3655 -0.2834  0.1370
  154OSM    O1117130   4.013   6.292   2.232  0.3844  0.1708  0.6681
  154OSM    O1217131   3.938   6.204   2.014  0.0616 -0.2325 -0.1317
  154OSM    C1S17132   3.953   6.332   2.355  0.3143 -0.3764  0.1114
  154OSM    H1S17133   3.843   6.333   2.347  0.0453 -0.9492  2.6732
  154OSM    H1T17134   3.978   6.438   2.380 -2.6439  0.4769 -0.1959
  154OSM     NF17135   3.951   6.318   2.610  0.4220 -0.4247  0.1624
  154OSM    HNF17136   4.005   6.390   2.651 -0.0988  0.9390 -1.4174
  154OSM    C2S17137   4.011   6.262   2.484 -0.4971  0.5919 -0.4414
  154OSM    H2S17138   3.971   6.159   2.472 -2.3787  1.1282  0.8171
  154OSM    C3S17139   4.172   6.257   2.484  0.0881 -0.9148  0.3043
  154OSM    H3S17140   4.206   6.362   2.471 -1.0389 -0.7032 -1.1546
  154OSM     O317141   4.233   6.198   2.375 -0.7886 -0.2262  0.0396
  154OSM    HO317142   4.160   6.180   2.316 -2.5358 -2.1458  2.5734
  154OSM    C4S17143   4.217   6.207   2.614 -0.5460  0.3405 -0.0189
  154OSM    H4S17144   4.188   6.104   2.639 -1.6458  0.7140  0.2891
  154OSM    C5S17145   4.310   6.268   2.684  0.6468 -0.1508 -0.4017
  154OSM    H5S17146   4.360   6.355   2.637  0.7299  0.6356  1.0879
  154OSM    C6S17147   4.374   6.219   2.814  0.3809 -0.0845 -0.2807
  154OSM    H6S17148   4.391   6.298   2.891 -0.9987 -3.6476  4.0763
  154OSM    H6T17149   4.477   6.188   2.786  0.2133  1.1657 -2.5824
  154OSM    C7S17150   4.308   6.099   2.888  1.2366 -0.5496  0.3609
  154OSM    H7S17151   4.283   6.026   2.808  0.2347  0.4752 -0.2747
  154OSM    H7T17152   4.213   6.134   2.933  1.9896  1.0984  0.7546
  154OSM    C8S17153   4.389   6.032   2.990 -0.3659 -0.5661 -0.2785
  154OSM    H8S17154   4.469   6.101   3.024 -0.4319  0.3157 -1.8500
  154OSM    H8T17155   4.453   5.956   2.941  1.3742  1.5834 -1.4734
  154OSM    C9S17156   4.309   5.993   3.119  0.3827  0.1707 -0.6244
  154OSM    H9S17157   4.249   5.902   3.100 -0.6440  0.3967  1.2836
  154OSM    H9T17158   4.231   6.067   3.145  0.5181  0.5690 -1.3457
  154OSM   C10S17159   4.400   5.974   3.244 -0.4892  0.3099  0.8339
  154OSM   H10S17160   4.471   6.060   3.240 -0.2656  0.0830 -0.6373
  154OSM   H10T17161   4.466   5.886   3.232  0.3004  0.6218  2.5834
  154OSM   C11S17162   4.313   5.974   3.365  0.0848 -0.6548  0.2961
  154OSM   H11S17163   4.222   5.915   3.342 -1.1400  1.5963 -1.0092
  154OSM   H11T17164   4.280   6.075   3.398  0.7541 -0.2939 -0.1043
  154OSM   C12S17165   4.385   5.907   3.482  0.3881 -0.8296 -0.5187
  154OSM   H12S17166   4.475   5.968   3.500 -0.9964  0.5683  2.2835
  154OSM   H12T17167   4.422   5.807   3.450  0.1304 -0.8348 -0.8117
  154OSM   C13S17168   4.286   5.885   3.600  0.0532 -0.5567  0.2911
  154OSM   H13S17169   4.225   5.794   3.581 -0.4954 -0.0931 -0.2175
  154OSM   H13T17170   4.224   5.976   3.614  0.2488 -0.5691  1.2846
  154OSM   C14S17171   4.356   5.867   3.731 -0.0179  0.2387 -0.0797
  154OSM   H14S17172   4.379   5.967   3.775 -0.7475  0.7439 -0.8152
  154OSM   H14T17173   4.458   5.824   3.723 -0.0372  0.3510 -1.1564
  154OSM   C15S17174   4.269   5.790   3.832 -0.5579  0.4442 -0.1166
  154OSM   H15S17175   4.163   5.817   3.816  0.0309  2.8713 -0.3909
  154OSM   H15T17176   4.286   5.831   3.934  0.1768 -0.1232 -0.0028
  154OSM   C16S17177   4.299   5.643   3.847 -0.3870 -0.1160  0.6090
  154OSM   H16S17178   4.322   5.611   3.743  1.3230  0.4971  0.7589
  154OSM   H16T17179   4.206   5.593   3.883 -0.8749  1.9642  2.3947
  154OSM   C17S17180   4.423   5.620   3.939  0.6130  0.6433  0.0474
  154OSM   H17S17181   4.396   5.658   4.040  0.6545  1.3344 -0.1963
  154OSM   H17T17182   4.522   5.664   3.916  1.4143 -0.5862  0.9855
  154OSM   C18S17183   4.435   5.474   3.967  1.1504  0.6324 -0.3977
  154OSM   H18S17184   4.342   5.433   4.011  0.6543  0.4528 -1.5713
  154OSM   H18T17185   4.520   5.437   4.028 -0.1751 -1.5132  0.2591
  154OSM   H18U17186   4.445   5.434   3.864 -1.6025 -0.5065 -0.3167
  154OSM    C1F17187   3.822   6.309   2.631  0.8163  0.1450  0.5128
  154OSM     OF17188   3.746   6.251   2.556 -0.2612 -0.4058 -0.3377
  154OSM    C2F17189   3.772   6.392   2.746 -0.0961  0.7003 -0.6515
  154OSM    H2F17190   3.662   6.403   2.739 -0.2187  0.0769  0.0937
  154OSM    H2G17191   3.810   6.495   2.731 -0.7201  0.9077 -0.7937
  154OSM    C3F17192   3.818   6.338   2.884  0.0190 -0.1572 -0.3539
  154OSM    H3F17193   3.929   6.339   2.878  0.2050  0.9956  2.0147
  154OSM    H3G17194   3.780   6.235   2.903  0.8376 -0.3790  0.1148
  154OSM    C4F17195   3.779   6.428   3.001  0.5815 -0.7724 -0.0971
  154OSM    H4F17196   3.668   6.430   3.010  0.6066  0.2451  0.1522
  154OSM    H4G17197   3.809   6.533   2.981  1.5407 -0.9124  0.5724
  154OSM    C5F17198   3.851   6.387   3.125  0.2008 -0.4852  0.6839
  154OSM    H5F17199   3.945   6.444   3.136 -0.3187  1.2906 -2.5832
  154OSM    H5G17200   3.875   6.278   3.121  1.3758 -0.2398  0.7648
  154OSM    C6F17201   3.769   6.404   3.250 -0.1109  0.2063  0.1363
  154OSM    H6F17202   3.681   6.338   3.240 -0.4581  1.0085 -3.6432
  154OSM    H6G17203   3.726   6.506   3.247 -1.8738 -0.4520  1.3501
  154OSM    C7F17204   3.850   6.379   3.375 -0.3210 -0.3209  0.5934
  154OSM    H7F17205   3.802   6.432   3.459  0.0786  1.7623 -0.4332
  154OSM    H7G17206   3.949   6.429   3.373 -0.6124  0.2577 -0.8966
  154OSM    C8F17207   3.857   6.230   3.414 -0.0289  0.1936 -0.4625
  154OSM    H8F17208   3.933   6.211   3.493  0.6424 -2.2087 -1.6081
  154OSM    H8G17209   3.908   6.174   3.333  1.5117  0.6431  0.1452
  154OSM    C9F17210   3.729   6.168   3.462 -0.1088  0.0230 -0.0700
  154OSM    H9F17211   3.662   6.147   3.377  0.9965 -0.5516 -0.8195
  154OSM   C10F17212   3.695   6.136   3.590  0.6168  0.3627  0.1163
  154OSM   H10F17213   3.596   6.098   3.618  1.3472 -1.1499  0.7965
  154OSM   C11F17214   3.779   6.154   3.716  0.7524  0.0590  0.4470
  154OSM   H11F17215   3.887   6.159   3.690  0.8535 -0.5626  0.7147
  154OSM   H11G17216   3.763   6.064   3.779  0.1908  0.3244  0.6846
  154OSM   C12F17217   3.724   6.276   3.792 -0.5886  0.4026  0.4051
  154OSM   H12F17218   3.706   6.365   3.728 -2.3014  1.4656  2.2508
  154OSM   H12G17219   3.802   6.304   3.865  0.3347 -0.4022 -0.2359
  154OSM   C13F17220   3.591   6.246   3.850 -0.1714 -0.0447  0.0049
  154OSM   H13F17221   3.520   6.208   3.773 -0.9077  1.2620  0.0182
  154OSM   H13G17222   3.536   6.333   3.891  0.1794 -0.2625  0.9712
  154OSM   C14F17223   3.599   6.149   3.969  0.9341 -0.0178 -0.4883
  154OSM   H14F17224   3.648   6.195   4.057 -0.4274  0.0552  0.2572
  154OSM   H14G17225   3.658   6.056   3.952  0.5320 -0.4617  0.4485
  154OSM   C15F17226   3.455   6.100   4.002  0.2911 -0.2968  0.7316
  154OSM   H15F17227   3.417   6.087   3.898  0.3897  1.9662  0.3484
  154OSM   H15G17228   3.383   6.177   4.039 -0.6905  0.5651 -2.6175
  154OSM   C16F17229   3.458   5.966   4.078  0.2560  0.3641  0.2994
  154OSM   H16F17230   3.532   5.892   4.041  1.7291  1.3485  1.1722
  154OSM   H16G17231   3.357   5.923   4.065 -1.6308  4.3913  0.2385
  154OSM   C17F17232   3.494   5.969   4.223  0.7754 -0.3212  0.1010
  154OSM   H17F17233   3.603   5.984   4.239  1.0159 -2.6577  1.1403
  154OSM   H17G17234   3.481   5.865   4.258 -1.2704 -0.3400 -0.5988
  154OSM   C18F17235   3.416   6.077   4.306 -0.7054  0.5973 -0.0612
  154OSM   H18F17236   3.415   6.180   4.265 -0.3300  0.6239 -0.0102
  154OSM   H18G17237   3.448   6.075   4.412 -0.7168  1.8010 -0.0311
  154OSM   H18H17238   3.316   6.029   4.301  0.4689 -2.1067  0.2952
  155OSM      N17239   1.630   1.093   2.101  0.4666 -0.4760 -0.5627
  155OSM    C1517240   1.762   1.037   2.130 -0.4190 -1.2528 -0.2938
  155OSM   H15A17241   1.756   1.004   2.233 -0.6358  0.5447  0.3157
  155OSM   H15B17242   1.836   1.116   2.118 -1.6130 -0.1011 -0.3193
  155OSM   H15C17243   1.780   0.956   2.061 -2.4356 -2.5619  0.6370
  155OSM    C1417244   1.607   1.212   2.198 -0.3084  0.0222  0.3813
  155OSM   H14A17245   1.511   1.258   2.181 -0.3406  0.0089  0.5267
  155OSM   H14B17246   1.686   1.282   2.175  0.6017 -0.6073  1.4755
  155OSM   H14C17247   1.619   1.188   2.303  2.7444 -1.9275 -0.2877
  155OSM    C1317248   1.623   1.159   1.969 -0.8936  0.0015  0.1312
  155OSM   H13A17249   1.715   1.216   1.963  0.1995 -1.7896 -1.5376
  155OSM   H13B17250   1.533   1.208   1.936  0.6422  1.2753 -2.4784
  155OSM   H13C17251   1.639   1.091   1.887 -1.0938  0.9798 -0.7389
  155OSM    C1217252   1.526   0.984   2.113  1.0085 -0.1652  0.0380
  155OSM   H12A17253   1.531   0.951   2.216  0.3560 -1.8220 -0.4210
  155OSM   H12B17254   1.555   0.897   2.055  0.1047 -1.0678  0.8942
  155OSM    C1117255   1.380   1.032   2.081 -0.0898  0.4731  0.5106
  155OSM   H11A17256   1.324   0.937   2.096  1.6930 -0.4112  2.0443
  155OSM   H11B17257   1.368   1.046   1.972  0.2668 -2.3973  0.0203
  155OSM      P17258   1.235   1.122   2.278 -0.3209 -0.3302 -0.0737
  155OSM    O1317259   1.214   1.251   2.343  0.4989 -0.2451  0.1546
  155OSM    O1417260   1.112   1.046   2.241 -0.3618 -0.3477  0.0711
  155OSM    O1117261   1.313   1.027   2.368  0.0154  0.3576 -0.0128
  155OSM    O1217262   1.330   1.139   2.153 -0.8950 -0.4366 -1.2511
  155OSM    C1S17263   1.350   1.056   2.503  0.4069 -0.1225 -0.0709
  155OSM    H1S17264   1.297   1.145   2.544  0.9310  0.2762 -0.2553
  155OSM    H1T17265   1.457   1.086   2.506  0.2547  0.3921  0.7123
  155OSM     NF17266   1.378   0.989   2.734  0.3464 -0.3509 -0.1179
  155OSM    HNF17267   1.467   0.953   2.761  1.9668  3.4810  0.3481
  155OSM    C2S17268   1.331   0.940   2.607 -0.0273  0.3538  0.2218
  155OSM    H2S17269   1.221   0.923   2.604  0.3635 -2.5346 -2.0406
  155OSM    C3S17270   1.403   0.815   2.561  0.3060  0.5681 -0.2554
  155OSM    H3S17271   1.512   0.827   2.576  0.3977  1.0834 -1.2071
  155OSM     O317272   1.376   0.781   2.423  0.3301  0.6789  0.3998
  155OSM    HO317273   1.317   0.840   2.376 -3.5242 -4.3391 -2.0674
  155OSM    C4S17274   1.364   0.708   2.656  0.2407 -0.1681  0.0338
  155OSM    H4S17275   1.431   0.732   2.740  1.2598  1.3646 -1.1397
  155OSM    C5S17276   1.257   0.625   2.659  0.6489 -0.4065  0.2749
  155OSM    H5S17277   1.178   0.635   2.584 -0.6948  0.4818  1.7595
  155OSM    C6S17278   1.218   0.527   2.769 -0.5430 -0.0663 -0.0923
  155OSM    H6S17279   1.234   0.424   2.732  3.3875  0.3069  0.1353
  155OSM    H6T17280   1.109   0.531   2.792 -0.5390 -1.4248  0.2544
  155OSM    C7S17281   1.285   0.562   2.905 -0.2719  0.1880 -0.5962
  155OSM    H7S17282   1.252   0.665   2.929 -2.4799 -0.5208 -0.3373
  155OSM    H7T17283   1.395   0.550   2.899 -0.3018  0.0061 -0.7897
  155OSM    C8S17284   1.240   0.468   3.019  0.0575  0.3067 -0.5433
  155OSM    H8S17285   1.255   0.360   2.996 -0.2979 -0.1047  1.0465
  155OSM    H8T17286   1.131   0.486   3.025 -0.0406 -0.8144  2.2752
  155OSM    C9S17287   1.298   0.505   3.160 -0.3250 -0.7153 -0.4065
  155OSM    H9S17288   1.408   0.513   3.145 -0.0396 -2.5267  0.5254
  155OSM    H9T17289   1.279   0.424   3.233 -0.3424  0.2847  0.7373
  155OSM   C10S17290   1.239   0.643   3.211  0.4493  1.0721  0.5439
  155OSM   H10S17291   1.129   0.653   3.193  0.5439 -0.5594 -1.3483
  155OSM   H10T17292   1.280   0.719   3.141  1.0023  0.1573 -0.1538
  155OSM   C11S17293   1.293   0.661   3.351  0.2735 -0.5297 -0.4720
  155OSM   H11S17294   1.298   0.771   3.369 -1.3443  0.0004 -2.6937
  155OSM   H11T17295   1.397   0.623   3.351 -0.2465 -2.2370  2.5324
  155OSM   C12S17296   1.230   0.589   3.468  0.7896 -0.7743  0.0232
  155OSM   H12S17297   1.239   0.480   3.450  2.1623 -0.9397  1.5020
  155OSM   H12T17298   1.125   0.614   3.496 -0.3614 -2.1870 -2.6242
  155OSM   C13S17299   1.311   0.617   3.591 -0.9069 -0.1933 -0.6316
  155OSM   H13S17300   1.305   0.727   3.599  0.3334 -0.2388  2.1775
  155OSM   H13T17301   1.418   0.590   3.577  0.2705  2.8494  1.3362
  155OSM   C14S17302   1.261   0.549   3.720 -0.0828  0.5299  0.2338
  155OSM   H14S17303   1.257   0.441   3.696 -0.8035  0.9137 -1.4926
  155OSM   H14T17304   1.161   0.584   3.756 -1.2477 -1.9172 -0.4149
  155OSM   C15S17305   1.372   0.550   3.829 -0.1136  0.1789 -0.8234
  155OSM   H15S17306   1.396   0.651   3.867  1.7762 -0.0646 -1.2649
  155OSM   H15T17307   1.459   0.508   3.773  1.5870 -1.2921  2.5723
  155OSM   C16S17308   1.332   0.474   3.952 -0.6652 -0.5375  0.0927
  155OSM   H16S17309   1.317   0.367   3.928  1.4715 -0.8766  0.0569
  155OSM   H16T17310   1.238   0.521   3.987  0.1545  0.5617  0.9143
  155OSM   C17S17311   1.436   0.495   4.064  0.1670 -0.1440  0.4390
  155OSM   H17S17312   1.441   0.603   4.089  1.4699  0.1753 -1.0575
  155OSM   H17T17313   1.536   0.468   4.025 -0.0789 -2.1876  1.0991
  155OSM   C18S17314   1.402   0.406   4.194  0.0220 -0.0789 -0.1526
  155OSM   H18S17315   1.391   0.300   4.165 -2.2474  0.2107 -0.5429
  155OSM   H18T17316   1.309   0.447   4.237 -0.2743 -0.4510 -0.4307
  155OSM   H18U17317   1.486   0.422   4.265  0.4136  0.8294 -0.7861
  155OSM    C1F17318   1.319   1.093   2.803 -0.4458  0.3366 -0.1171
  155OSM     OF17319   1.203   1.120   2.783  0.2564 -0.7407 -0.3182
  155OSM    C2F17320   1.393   1.154   2.917 -0.4947  0.2338  0.4243
  155OSM    H2F17321   1.498   1.119   2.907 -0.4237  0.0860  1.5343
  155OSM    H2G17322   1.352   1.104   3.007  1.4624  0.6642  1.6124
  155OSM    C3F17323   1.382   1.311   2.915  0.5618  0.5831 -0.6155
  155OSM    H3F17324   1.275   1.339   2.908  0.6502  1.4414  1.0303
  155OSM    H3G17325   1.442   1.345   2.828  2.6842 -0.4347  0.3628
  155OSM    C4F17326   1.447   1.377   3.043  0.7321 -0.1328 -0.4039
  155OSM    H4F17327   1.379   1.347   3.126 -0.7029  1.8780 -0.7949
  155OSM    H4G17328   1.446   1.487   3.034  0.6335 -0.0390  0.6251
  155OSM    C5F17329   1.588   1.322   3.071  0.4888  0.5186 -0.2044
  155OSM    H5F17330   1.565   1.216   3.097 -3.3769  0.8533 -1.5179
  155OSM    H5G17331   1.640   1.372   3.156  1.4736 -0.0723 -0.4461
  155OSM    C6F17332   1.690   1.337   2.957  0.2769  0.3191  0.1233
  155OSM    H6F17333   1.667   1.440   2.920  0.0476  1.3913  2.9688
  155OSM    H6G17334   1.687   1.259   2.878  2.4352  2.3582 -2.1492
  155OSM    C7F17335   1.834   1.338   3.009  0.5436 -0.2655 -0.0805
  155OSM    H7F17336   1.846   1.410   3.093 -0.9061  1.7278 -1.4939
  155OSM    H7G17337   1.894   1.383   2.928  0.2122  1.9500  0.8492
  155OSM    C8F17338   1.902   1.206   3.034  0.7056  0.0917 -0.3279
  155OSM    H8F17339   2.004   1.230   3.071  0.0671  0.0421  1.5945
  155OSM    H8G17340   1.916   1.147   2.941  0.7037 -1.6836  0.7461
  155OSM    C9F17341   1.838   1.122   3.144 -0.7388 -0.2000  0.0021
  155OSM    H9F17342   1.773   1.041   3.107  1.4333 -2.2934  0.5587
  155OSM   C10F17343   1.848   1.130   3.278 -0.5951  0.3119 -0.1483
  155OSM   H10F17344   1.798   1.061   3.348 -0.9870 -0.4170 -1.1231
  155OSM   C11F17345   1.915   1.239   3.353  0.3767  0.7845 -0.0401
  155OSM   H11F17346   1.868   1.338   3.330 -0.4416  1.0331  2.3815
  155OSM   H11G17347   2.024   1.245   3.335  0.5441 -0.1822  0.6141
  155OSM   C12F17348   1.887   1.225   3.501  0.0999 -0.4570 -0.5163
  155OSM   H12F17349   1.782   1.195   3.520  0.4228 -0.1643  2.0483
  155OSM   H12G17350   1.900   1.322   3.553  2.5702 -0.3751 -1.1248
  155OSM   C13F17351   1.975   1.126   3.582  0.1466  0.5634 -0.5390
  155OSM   H13F17352   2.081   1.155   3.564  0.9345 -1.3825  0.6670
  155OSM   H13G17353   1.979   1.025   3.537  1.4025  0.3415  0.0209
  155OSM   C14F17354   1.944   1.117   3.734  0.1946  0.4454  0.2645
  155OSM   H14F17355   2.014   1.041   3.774  0.3341  0.3123 -0.2278
  155OSM   H14G17356   1.839   1.082   3.742  0.6280 -0.4896  2.5188
  155OSM   C15F17357   1.952   1.246   3.815  0.4195  0.8039 -0.5722
  155OSM   H15F17358   1.864   1.310   3.793 -0.5702 -0.5872 -0.8095
  155OSM   H15G17359   2.049   1.298   3.799  1.1701 -0.0552  0.9449
  155OSM   C16F17360   1.930   1.227   3.968  0.1203  0.3451  0.3499
  155OSM   H16F17361   1.999   1.148   4.003 -0.1208  0.7994  1.9100
  155OSM   H16G17362   1.828   1.186   3.984  0.3111 -1.0983 -1.7660
  155OSM   C17F17363   1.943   1.358   4.050  0.8405 -0.4318 -0.6413
  155OSM   H17F17364   1.902   1.335   4.150 -0.2364  0.1376 -0.9378
  155OSM   H17G17365   1.888   1.440   4.000  0.9492 -0.2848 -0.5207
  155OSM   C18F17366   2.092   1.394   4.062  0.3032 -0.2876 -0.1626
  155OSM   H18F17367   2.144   1.308   4.109 -0.4023  0.7496  2.7495
  155OSM   H18G17368   2.107   1.488   4.120  2.5615 -0.3708 -0.5354
  155OSM   H18H17369   2.131   1.411   3.959 -0.7349  0.3854 -0.4643
  156OSM      N17370   2.412   0.695   1.728 -0.3804  0.0990  0.2688
  156OSM    C1517371   2.461   0.784   1.835  0.3379  0.3308 -0.6431
  156OSM   H15A17372   2.557   0.831   1.815  0.9663  0.6802  2.6824
  156OSM   H15B17373   2.473   0.720   1.921  0.2048 -1.5870 -1.9931
  156OSM   H15C17374   2.390   0.861   1.862 -1.7484 -1.6751 -0.0750
  156OSM    C1417375   2.277   0.645   1.758 -0.0617  0.1662 -0.2839
  156OSM   H14A17376   2.216   0.733   1.769  2.8119  2.0427  1.9014
  156OSM   H14B17377   2.284   0.586   1.848  2.0690 -1.7246 -1.5761
  156OSM   H14C17378   2.258   0.580   1.673  1.3183  1.6689 -1.8304
  156OSM    C1317379   2.385   0.777   1.602 -0.0507  0.2723 -0.1364
  156OSM   H13A17380   2.345   0.711   1.527  1.5697 -0.1468 -0.6728
  156OSM   H13B17381   2.477   0.817   1.562  1.3615 -0.1650  2.4358
  156OSM   H13C17382   2.320   0.860   1.627  0.1074  0.4612 -0.3497
  156OSM    C1217383   2.510   0.575   1.705  0.0604 -0.0017 -0.2218
  156OSM   H12A17384   2.594   0.607   1.644  0.0691 -0.5395 -0.4960
  156OSM   H12B17385   2.460   0.525   1.623 -1.1660  2.1289 -0.8482
  156OSM    C1117386   2.565   0.491   1.825 -0.1377 -0.1602 -0.0922
  156OSM   H11A17387   2.644   0.555   1.871  0.3268  0.8054 -2.1322
  156OSM   H11B17388   2.624   0.405   1.787 -0.5723 -0.7059  0.4500
  156OSM      P17389   2.396   0.323   1.920  0.0726  0.2691  0.0137
  156OSM    O1317390   2.271   0.331   1.999  0.0845 -0.0283 -0.2418
  156OSM    O1417391   2.379   0.264   1.786 -0.1199  0.3578  0.1659
  156OSM    O1117392   2.501   0.239   2.001 -0.0236  0.3427  0.3937
  156OSM    O1217393   2.462   0.463   1.912  0.0162 -0.2001  0.4465
  156OSM    C1S17394   2.582   0.288   2.103 -0.4103 -0.6658  0.1394
  156OSM    H1S17395   2.566   0.396   2.124 -3.3349 -1.0274  0.2454
  156OSM    H1T17396   2.688   0.282   2.071 -0.3890 -2.2168  0.4072
  156OSM     NF17397   2.610   0.298   2.354 -0.4766 -0.1769  0.7965
  156OSM    HNF17398   2.686   0.270   2.412  1.1050  2.9953  0.4827
  156OSM    C2S17399   2.569   0.216   2.248 -0.1854  0.4266  0.1726
  156OSM    H2S17400   2.461   0.199   2.269 -0.8699  2.0924 -1.6429
  156OSM    C3S17401   2.638   0.077   2.230  1.3751  0.2867 -0.2887
  156OSM    H3S17402   2.736   0.101   2.183  1.0137  1.4246 -0.4856
  156OSM     O317403   2.582  -0.007   2.128  0.5221  0.0334 -0.1822
  156OSM    HO317404   2.539   0.055   2.070 -0.2851  1.5384  1.9042
  156OSM    C4S17405   2.656   0.006   2.359 -0.1352  0.5349 -0.5949
  156OSM    H4S17406   2.756   0.026   2.401 -0.6245 -0.9771  1.4633
  156OSM    C5S17407   2.572  -0.082   2.413 -0.3526 -0.5349 -0.2599
  156OSM    H5S17408   2.477  -0.105   2.363  0.5857 -1.3422 -1.7577
  156OSM    C6S17409   2.615  -0.140   2.544  0.0819  1.0030 -0.1238
  156OSM    H6S17410   2.711  -0.099   2.583  0.1979  0.0209  0.6590
  156OSM    H6T17411   2.638  -0.246   2.520  1.6993  1.5175 -1.0217
  156OSM    C7S17412   2.514  -0.131   2.657 -0.4822  0.2466  0.5985
  156OSM    H7S17413   2.415  -0.175   2.636 -0.3230  0.6105 -1.0302
  156OSM    H7T17414   2.493  -0.024   2.676  1.4860  1.4342 -2.9108
  156OSM    C8S17415   2.563  -0.206   2.781  0.4208 -0.4719  0.5456
  156OSM    H8S17416   2.668  -0.174   2.800  0.0396  0.6824  0.7881
  156OSM    H8T17417   2.570  -0.314   2.756  0.5382 -0.6808  1.4457
  156OSM    C9S17418   2.470  -0.180   2.902  1.0909 -0.5772 -0.0707
  156OSM    H9S17419   2.361  -0.186   2.877  0.5548 -0.1691  2.0005
  156OSM    H9T17420   2.483  -0.071   2.919 -0.0838 -0.5913  1.1191
  156OSM   C10S17421   2.511  -0.248   3.034  0.3990 -0.2824 -0.3181
  156OSM   H10S17422   2.619  -0.276   3.036  0.4351 -0.1164  0.1053
  156OSM   H10T17423   2.465  -0.347   3.052  0.9438 -0.2323  1.5462
  156OSM   C11S17424   2.474  -0.155   3.148 -0.2649 -0.0187 -0.0293
  156OSM   H11S17425   2.363  -0.147   3.140 -0.3479 -1.4096 -0.6319
  156OSM   H11T17426   2.527  -0.058   3.138  1.0867 -0.9588 -3.2356
  156OSM   C12S17427   2.508  -0.207   3.289 -1.4202  0.7959  0.3030
  156OSM   H12S17428   2.619  -0.200   3.296 -1.3113  0.4794 -0.9750
  156OSM   H12T17429   2.473  -0.311   3.308 -1.3234  0.4948 -1.0656
  156OSM   C13S17430   2.450  -0.109   3.390  0.0259  0.2516  0.4624
  156OSM   H13S17431   2.351  -0.072   3.356  0.8611  2.9279  0.7390
  156OSM   H13T17432   2.520  -0.023   3.391 -1.2911  1.4472 -1.8224
  156OSM   C14S17433   2.452  -0.151   3.536  0.2615 -0.0244 -0.5454
  156OSM   H14S17434   2.361  -0.213   3.549  0.5776 -0.4743 -0.4743
  156OSM   H14T17435   2.441  -0.057   3.594 -0.3146  0.4268 -1.3605
  156OSM   C15S17436   2.585  -0.209   3.592 -0.3306 -0.0284  0.5995
  156OSM   H15S17437   2.671  -0.148   3.557  0.1908 -1.3996 -0.6369
  156OSM   H15T17438   2.595  -0.314   3.557 -0.8769  0.2240 -0.3505
  156OSM   C16S17439   2.603  -0.214   3.752  0.0619  0.3762  0.8515
  156OSM   H16S17440   2.534  -0.285   3.802  0.6356 -0.2369  0.7783
  156OSM   H16T17441   2.583  -0.116   3.801  0.0533  0.6982  0.2228
  156OSM   C17S17442   2.745  -0.253   3.790 -0.2844  1.1624 -0.1428
  156OSM   H17S17443   2.820  -0.189   3.739  0.5722  1.6320  1.6080
  156OSM   H17T17444   2.771  -0.357   3.759  2.0497  0.7392  2.7770
  156OSM   C18S17445   2.755  -0.244   3.940 -0.6121 -0.3880  0.2011
  156OSM   H18S17446   2.735  -0.143   3.982  0.5798  0.1512 -0.4872
  156OSM   H18T17447   2.856  -0.279   3.968 -0.5056 -3.2724 -3.0375
  156OSM   H18U17448   2.686  -0.312   3.996 -0.7621 -0.8480 -0.5194
  156OSM    C1F17449   2.550   0.406   2.384  0.1832  0.3675 -0.3462
  156OSM     OF17450   2.451   0.438   2.327 -0.7637  0.2193  0.3502
  156OSM    C2F17451   2.610   0.486   2.493  0.0512  0.0672 -0.4204
  156OSM    H2F17452   2.719   0.500   2.479 -0.0040  0.3501 -0.5870
  156OSM    H2G17453   2.591   0.420   2.581  0.1886 -0.0354 -0.4680
  156OSM    C3F17454   2.549   0.619   2.534 -0.2341 -0.4140 -0.0089
  156OSM    H3F17455   2.444   0.603   2.566  0.1698 -0.4619  1.3684
  156OSM    H3G17456   2.548   0.691   2.450  1.7208 -2.4921 -1.9446
  156OSM    C4F17457   2.626   0.695   2.645  0.3939  0.4915  0.4347
  156OSM    H4F17458   2.608   0.804   2.643 -3.8639 -0.0145  1.0752
  156OSM    H4G17459   2.735   0.673   2.642  1.0586  3.4195  0.2886
  156OSM    C5F17460   2.574   0.644   2.780 -0.1958  0.5772 -0.0898
  156OSM    H5F17461   2.568   0.533   2.778  2.6056  0.3272 -2.6758
  156OSM    H5G17462   2.470   0.681   2.788 -0.8692 -0.7436 -2.1136
  156OSM    C6F17463   2.635   0.707   2.910 -0.2603 -0.3807 -0.0440
  156OSM    H6F17464   2.618   0.816   2.917  0.7177 -0.2355  0.2174
  156OSM    H6G17465   2.744   0.691   2.901 -0.5819 -1.8512 -2.2205
  156OSM    C7F17466   2.569   0.647   3.028  0.2039  0.1636 -0.8638
  156OSM    H7F17467   2.576   0.536   3.026  1.7375  0.1770  0.7688
  156OSM    H7G17468   2.461   0.673   3.029  0.1532 -0.0434 -0.2180
  156OSM    C8F17469   2.634   0.693   3.164  0.2478 -0.4651 -0.8881
  156OSM    H8F17470   2.562   0.666   3.244  1.5581  0.5258  0.6825
  156OSM    H8G17471   2.634   0.804   3.165 -1.6817 -0.4235  0.7050
  156OSM    C9F17472   2.760   0.623   3.204  0.0370  0.0075 -0.1136
  156OSM    H9F17473   2.809   0.572   3.121  2.2846 -0.1210  1.2268
  156OSM   C10F17474   2.808   0.617   3.330  0.0140  1.7401 -0.2126
  156OSM   H10F17475   2.907   0.571   3.346 -0.5474  0.1837 -0.9670
  156OSM   C11F17476   2.756   0.673   3.453 -0.1727 -0.1813  0.7790
  156OSM   H11F17477   2.673   0.745   3.439 -0.8971 -0.3671  3.5905
  156OSM   H11G17478   2.837   0.734   3.500 -0.7843  2.8849 -1.7726
  156OSM   C12F17479   2.690   0.582   3.561  0.2734  0.1380  1.1253
  156OSM   H12F17480   2.757   0.493   3.564 -0.1462 -0.2201  0.3565
  156OSM   H12G17481   2.596   0.552   3.509  0.1465  1.8517  0.2868
  156OSM   C13F17482   2.673   0.640   3.698 -0.3061 -0.2152 -0.3778
  156OSM   H13F17483   2.587   0.709   3.711 -0.5383 -0.9193  2.3192
  156OSM   H13G17484   2.764   0.687   3.740  0.8544 -2.9912  0.4775
  156OSM   C14F17485   2.643   0.525   3.793  0.4475  0.2585 -0.6538
  156OSM   H14F17486   2.711   0.438   3.782  0.0333 -0.1976  0.2607
  156OSM   H14G17487   2.539   0.491   3.773  0.3221 -0.0904  0.5034
  156OSM   C15F17488   2.664   0.562   3.939 -0.3035  0.2141 -0.0403
  156OSM   H15F17489   2.590   0.631   3.985 -1.1579 -1.1244  0.6650
  156OSM   H15G17490   2.759   0.617   3.950  0.3082 -0.8314  0.0328
  156OSM   C16F17491   2.656   0.432   4.031  0.1130 -0.0875 -0.1744
  156OSM   H16F17492   2.703   0.458   4.128  1.0861  1.1883 -0.9542
  156OSM   H16G17493   2.723   0.355   3.988 -1.5801 -1.2221 -0.9009
  156OSM   C17F17494   2.518   0.370   4.048  0.1061 -0.1696  0.4486
  156OSM   H17F17495   2.476   0.344   3.949 -0.7549  2.7173 -0.0441
  156OSM   H17G17496   2.439   0.442   4.078 -2.0316 -2.0756 -0.3420
  156OSM   C18F17497   2.514   0.260   4.153  0.1121  0.4170  0.6235
  156OSM   H18F17498   2.511   0.323   4.245 -0.9202  1.5480 -0.1501
  156OSM   H18G17499   2.611   0.209   4.135 -0.5749 -0.4609 -0.7513
  156OSM   H18H17500   2.429   0.189   4.157  1.9460 -1.9472 -0.0740
  157OSM      N17501   1.584   2.537   1.647  0.7698  0.5588  0.5663
  157OSM    C1517502   1.635   2.561   1.511  0.6523 -0.1289  0.0161
  157OSM   H15A17503   1.559   2.541   1.438 -0.2304  0.7109  0.6871
  157OSM   H15B17504   1.715   2.489   1.501 -1.2440 -2.0086 -3.1072
  157OSM   H15C17505   1.665   2.662   1.488 -0.8697  0.3155 -0.0937
  157OSM    C1417506   1.461   2.614   1.653  0.3159 -0.5192  0.6177
  157OSM   H14A17507   1.390   2.592   1.732  1.6628 -1.5299  1.6021
  157OSM   H14B17508   1.406   2.605   1.561 -1.6033  0.8878  1.5481
  157OSM   H14C17509   1.483   2.720   1.652  2.5107 -0.7169 -4.5047
  157OSM    C1317510   1.540   2.388   1.655  0.3516  1.0410  0.2621
  157OSM   H13A17511   1.624   2.328   1.626 -2.4179 -3.2760  0.2872
  157OSM   H13B17512   1.450   2.363   1.601  0.6508  1.6289 -0.5298
  157OSM   H13C17513   1.513   2.352   1.753  0.0716 -2.6799 -1.0390
  157OSM    C1217514   1.679   2.572   1.757 -1.0346 -0.3070 -0.4633
  157OSM   H12A17515   1.691   2.679   1.754 -2.8958  0.0531  1.7199
  157OSM   H12B17516   1.773   2.520   1.753 -0.1058  1.3342 -0.6438
  157OSM    C1117517   1.627   2.556   1.902 -1.2215  0.4729 -0.1092
  157OSM   H11A17518   1.521   2.588   1.896 -1.6747 -1.0978 -1.2355
  157OSM   H11B17519   1.689   2.625   1.963  1.5744 -0.3662 -1.7795
  157OSM      P17520   1.769   2.340   1.957  0.3256 -0.6684 -0.1347
  157OSM    O1317521   1.747   2.202   1.914 -0.5185  0.6640  0.3684
  157OSM    O1417522   1.862   2.430   1.883 -0.0419 -0.5229 -0.8016
  157OSM    O1117523   1.808   2.345   2.113 -0.0139 -0.2161  0.1178
  157OSM    O1217524   1.632   2.421   1.951  0.0702 -0.1188 -0.7648
  157OSM    C1S17525   1.715   2.318   2.214 -0.2731 -0.5129  0.0821
  157OSM    H1S17526   1.697   2.208   2.221 -0.0392 -0.4973  1.2489
  157OSM    H1T17527   1.621   2.374   2.199 -0.6767 -0.6311  1.8723
  157OSM     NF17528   1.682   2.278   2.466  0.6704 -0.2443  0.3182
  157OSM    HNF17529   1.605   2.330   2.502 -0.9022 -2.3670  0.1781
  157OSM    C2S17530   1.761   2.347   2.361 -0.1158 -0.8304 -0.2212
  157OSM    H2S17531   1.863   2.306   2.375 -0.1296 -0.3292  1.6461
  157OSM    C3S17532   1.777   2.504   2.382 -0.1021  0.7061 -0.2395
  157OSM    H3S17533   1.677   2.553   2.381 -0.0071  0.9774  1.3468
  157OSM     O317534   1.837   2.566   2.269 -0.4061  0.3589  0.3397
  157OSM    HO317535   1.831   2.504   2.196 -2.4664 -0.3101  1.0072
  157OSM    C4S17536   1.851   2.553   2.511 -0.5923 -0.2297 -0.3484
  157OSM    H4S17537   1.776   2.568   2.590 -1.8420 -1.1602 -1.3015
  157OSM    C5S17538   1.977   2.598   2.518 -1.1316  0.0893 -0.1478
  157OSM    H5S17539   2.040   2.595   2.428 -0.9412 -0.6858  0.0054
  157OSM    C6S17540   2.050   2.651   2.645 -0.3034 -0.4768  0.9189
  157OSM    H6S17541   2.073   2.760   2.643  1.1941 -0.7788  0.7292
  157OSM    H6T17542   2.153   2.611   2.640 -0.7438 -1.7006  1.1836
  157OSM    C7S17543   1.990   2.621   2.784 -0.0193  0.4346  0.7050
  157OSM    H7S17544   1.951   2.519   2.800  1.0095 -0.1529 -0.3471
  157OSM    H7T17545   1.898   2.681   2.796 -0.6982 -0.8268  2.0979
  157OSM    C8S17546   2.078   2.657   2.907  0.0215  0.1194  0.1878
  157OSM    H8S17547   2.123   2.758   2.909 -0.5563  0.4054 -0.6002
  157OSM    H8T17548   2.166   2.590   2.898  0.4504  0.5141  1.3279
  157OSM    C9S17549   2.005   2.629   3.042  1.0322 -0.5472 -0.5324
  157OSM    H9S17550   1.987   2.520   3.045 -0.7031 -0.2789  0.1805
  157OSM    H9T17551   1.902   2.671   3.047 -0.2446 -2.9781 -3.2357
  157OSM   C10S17552   2.085   2.682   3.161  0.3118 -0.4668 -0.6834
  157OSM   H10S17553   2.033   2.646   3.252 -3.0044 -1.0488 -2.6519
  157OSM   H10T17554   2.101   2.792   3.160  0.8645 -0.5351 -0.2436
  157OSM   C11S17555   2.227   2.627   3.190 -0.5573  0.5085  0.2664
  157OSM   H11S17556   2.299   2.642   3.107 -1.5694 -0.7990 -0.8838
  157OSM   H11T17557   2.233   2.518   3.213  2.2577  0.4295 -0.5204
  157OSM   C12S17558   2.308   2.690   3.305 -0.0772 -0.4581 -0.2688
  157OSM   H12S17559   2.252   2.675   3.399 -0.2780 -0.0621 -0.3225
  157OSM   H12T17560   2.313   2.799   3.286 -2.3946  0.3625  3.0198
  157OSM   C13S17561   2.456   2.638   3.324 -1.2584  0.2400  0.4530
  157OSM   H13S17562   2.500   2.718   3.388  0.0331  0.7139 -0.9782
  157OSM   H13T17563   2.520   2.643   3.234  0.6013 -0.4892  1.6642
  157OSM   C14S17564   2.465   2.497   3.378 -0.6080 -0.1873  0.4223
  157OSM   H14S17565   2.573   2.471   3.390 -0.8126 -0.7917  1.0336
  157OSM   H14T17566   2.429   2.430   3.297 -1.1693  1.4154 -0.7060
  157OSM   C15S17567   2.386   2.465   3.509 -0.5190  0.0422  0.6580
  157OSM   H15S17568   2.279   2.463   3.478 -0.2118 -0.2810 -0.4299
  157OSM   H15T17569   2.395   2.550   3.580 -0.1572  0.7686 -0.2312
  157OSM   C16S17570   2.442   2.341   3.582 -0.1930 -0.1172 -0.2522
  157OSM   H16S17571   2.547   2.356   3.616 -0.7373  1.5650  0.7763
  157OSM   H16T17572   2.433   2.242   3.533  0.3852 -1.0425  1.4123
  157OSM   C17S17573   2.366   2.333   3.717 -0.6451 -0.0540  0.7464
  157OSM   H17S17574   2.264   2.331   3.672  0.6295 -1.1322 -2.3439
  157OSM   H17T17575   2.390   2.429   3.767 -0.1928 -0.8029  2.0149
  157OSM   C18S17576   2.387   2.211   3.803  0.1527 -0.0449 -0.4743
  157OSM   H18S17577   2.291   2.156   3.814 -1.6510  2.2607 -3.1394
  157OSM   H18T17578   2.411   2.246   3.906  2.7876  0.0672 -1.0675
  157OSM   H18U17579   2.463   2.136   3.772 -0.5787 -2.5816  3.2019
  157OSM    C1F17580   1.682   2.148   2.494 -0.1713 -0.4067  0.3073
  157OSM     OF17581   1.788   2.087   2.477 -0.6159  0.1775 -0.5060
  157OSM    C2F17582   1.555   2.085   2.538  0.1154 -0.3128 -0.2181
  157OSM    H2F17583   1.484   2.087   2.453 -1.4430 -1.3912  0.9950
  157OSM    H2G17584   1.505   2.143   2.619 -0.2747 -0.6736 -0.1958
  157OSM    C3F17585   1.562   1.932   2.575 -0.0332  0.9202  0.4743
  157OSM    H3F17586   1.600   1.874   2.488  1.7893  1.7657  0.6666
  157OSM    H3G17587   1.457   1.904   2.600 -0.0033  0.6991  0.3501
  157OSM    C4F17588   1.652   1.911   2.698  0.1436  0.9729  0.2131
  157OSM    H4F17589   1.608   1.957   2.790 -0.1200  1.5369 -0.1894
  157OSM    H4G17590   1.753   1.949   2.672  0.8615 -1.5810 -1.0469
  157OSM    C5F17591   1.676   1.760   2.727 -0.2435  0.0204  0.0558
  157OSM    H5F17592   1.734   1.721   2.640  0.4215  0.7453  0.1573
  157OSM    H5G17593   1.580   1.706   2.734 -2.2575  3.1953 -0.9182
  157OSM    C6F17594   1.747   1.738   2.865  0.1392 -0.1739 -0.1779
  157OSM    H6F17595   1.849   1.782   2.867  0.0979 -0.0049 -1.1557
  157OSM    H6G17596   1.774   1.631   2.877  1.5700  0.2650  0.7325
  157OSM    C7F17597   1.666   1.791   2.983  0.0355 -0.0053  0.1380
  157OSM    H7F17598   1.565   1.746   2.976  1.0604 -2.1749 -2.6148
  157OSM    H7G17599   1.661   1.902   2.983  1.0714  0.0857 -1.6573
  157OSM    C8F17600   1.734   1.750   3.119 -0.0325 -0.1723  0.2415
  157OSM    H8F17601   1.822   1.811   3.150  1.2954 -2.1651  0.5506
  157OSM    H8G17602   1.758   1.642   3.131 -3.4400 -0.8549  2.4360
  157OSM    C9F17603   1.622   1.774   3.224 -1.2173  0.1297 -0.0854
  157OSM    H9F17604   1.568   1.869   3.210  0.0413  0.7112 -1.1915
  157OSM   C10F17605   1.592   1.691   3.329  0.5245  0.4440  0.4112
  157OSM   H10F17606   1.520   1.718   3.408 -0.4942  2.1734 -1.0005
  157OSM   C11F17607   1.663   1.563   3.374 -0.0682 -0.9352  0.6486
  157OSM   H11F17608   1.765   1.563   3.331 -1.0760 -0.9565 -1.9227
  157OSM   H11G17609   1.599   1.479   3.339  0.1552 -2.3198  3.3337
  157OSM   C12F17610   1.679   1.549   3.526  0.2118 -0.0164  0.1471
  157OSM   H12F17611   1.706   1.445   3.553  0.0831  0.5261  2.5637
  157OSM   H12G17612   1.574   1.563   3.559  0.0739  1.0408 -0.6991
  157OSM   C13F17613   1.766   1.662   3.585 -0.4655 -0.1136 -0.4927
  157OSM   H13F17614   1.721   1.758   3.550 -0.3842 -0.3344 -1.2270
  157OSM   H13G17615   1.871   1.662   3.549  0.2599 -4.8071  0.9031
  157OSM   C14F17616   1.770   1.682   3.739  0.5158  0.1367  0.4337
  157OSM   H14F17617   1.827   1.773   3.766  1.2606 -0.3942  0.6664
  157OSM   H14G17618   1.812   1.589   3.784 -0.5118 -0.8393 -0.5387
  157OSM   C15F17619   1.635   1.690   3.791 -0.6110 -0.2341 -0.9562
  157OSM   H15F17620   1.580   1.594   3.783 -1.7988  0.4869 -1.9900
  157OSM   H15G17621   1.574   1.760   3.729  0.3134 -0.6031 -2.3400
  157OSM   C16F17622   1.629   1.743   3.936 -0.1008 -0.4393 -0.8080
  157OSM   H16F17623   1.524   1.759   3.967  0.4588 -0.6065  1.3124
  157OSM   H16G17624   1.681   1.841   3.941 -1.9278  0.5018  1.4689
  157OSM   C17F17625   1.684   1.645   4.041  0.2008 -0.2708  0.1944
  157OSM   H17F17626   1.787   1.607   4.022  0.1819 -1.1846  1.8091
  157OSM   H17G17627   1.618   1.557   4.048 -1.7160  1.2248  2.6384
  157OSM   C18F17628   1.675   1.693   4.189 -0.4683 -0.3059 -0.7102
  157OSM   H18F17629   1.763   1.644   4.235  0.3084 -0.3304 -2.1375
  157OSM   H18G17630   1.584   1.679   4.251 -0.6183  1.0665 -0.5700
  157OSM   H18H17631   1.706   1.800   4.196  2.4587 -1.0542 -1.1217
  158OSM      N17632   6.652   0.755   2.035  0.5479 -0.5693 -0.2224
  158OSM    C1517633   6.742   0.812   2.142 -0.0183 -0.3336  0.1915
  158OSM   H15A17634   6.684   0.876   2.206  1.9775  1.1598  0.6010
  158OSM   H15B17635   6.824   0.870   2.102  0.2357 -0.7317  0.1280
  158OSM   H15C17636   6.773   0.734   2.210 -0.3954  1.4972  2.5735
  158OSM    C1417637   6.602   0.866   1.953 -0.1629  0.6196 -0.4479
  158OSM   H14A17638   6.691   0.911   1.912 -0.9821  1.6001 -1.2017
  158OSM   H14B17639   6.563   0.941   2.019 -0.9969 -0.3930  0.2489
  158OSM   H14C17640   6.543   0.843   1.866  0.0458  0.1939 -0.4797
  158OSM    C1317641   6.736   0.663   1.955  0.1293  0.3658  0.4742
  158OSM   H13A17642   6.768   0.576   2.009  1.7116 -0.9646 -2.3654
  158OSM   H13B17643   6.821   0.713   1.910  2.1640 -3.1704  0.0216
  158OSM   H13C17644   6.672   0.613   1.883 -0.2862 -1.6394  2.1391
  158OSM    C1217645   6.543   0.683   2.090  0.0606 -0.3893 -0.2589
  158OSM   H12A17646   6.497   0.624   2.012  1.6067  0.0767 -1.5994
  158OSM   H12B17647   6.472   0.755   2.128 -1.1031 -2.0303  0.7865
  158OSM    C1117648   6.564   0.594   2.217  0.4518  0.0739  0.4345
  158OSM   H11A17649   6.465   0.553   2.247  0.7315 -0.5759  0.4766
  158OSM   H11B17650   6.588   0.662   2.302 -0.3319  2.3179 -1.0324
  158OSM      P17651   6.601   0.367   2.110 -0.1872  0.0645 -0.2369
  158OSM    O1317652   6.478   0.409   2.036  0.1911 -0.0663 -0.1674
  158OSM    O1417653   6.714   0.302   2.042 -0.8386  0.5269  0.0871
  158OSM    O1117654   6.564   0.273   2.232 -0.2628  0.1565 -0.4301
  158OSM    O1217655   6.662   0.486   2.193  0.3184 -0.5785 -0.1986
  158OSM    C1S17656   6.647   0.254   2.349  0.7147  0.1462 -0.1456
  158OSM    H1S17657   6.740   0.314   2.345  0.1633  1.0010 -0.6648
  158OSM    H1T17658   6.686   0.150   2.348  0.6753  0.1042  1.4597
  158OSM     NF17659   6.668   0.321   2.594 -0.1735 -0.2009  0.4146
  158OSM    HNF17660   6.662   0.265   2.676 -1.2326  1.1988  1.3350
  158OSM    C2S17661   6.574   0.293   2.485 -0.1574  0.4169 -0.3684
  158OSM    H2S17662   6.527   0.392   2.464 -0.5058  0.8151  2.0508
  158OSM    C3S17663   6.466   0.187   2.506  0.5044  0.1678 -0.8747
  158OSM    H3S17664   6.525   0.093   2.511  2.5502  1.4706  0.8475
  158OSM     O317665   6.372   0.159   2.394  0.3540 -0.1093 -0.2702
  158OSM    HO317666   6.413   0.199   2.317  1.1333 -2.2609 -1.0716
  158OSM    C4S17667   6.388   0.209   2.638 -0.0276 -0.8673  1.6192
  158OSM    H4S17668   6.426   0.139   2.714 -0.7452 -0.7074  2.1262
  158OSM    C5S17669   6.295   0.301   2.654 -0.3007 -0.3685 -0.9041
  158OSM    H5S17670   6.279   0.373   2.573  0.9082  0.1865 -0.6843
  158OSM    C6S17671   6.219   0.333   2.780  0.6141  0.0084  0.4230
  158OSM    H6S17672   6.112   0.325   2.750  1.2545 -1.2616 -1.7477
  158OSM    H6T17673   6.236   0.439   2.810  1.7714 -0.6981  2.4484
  158OSM    C7S17674   6.250   0.257   2.915  0.1584 -0.0227  0.4267
  158OSM    H7S17675   6.360   0.248   2.928  0.4536  1.9501 -0.3327
  158OSM    H7T17676   6.214   0.152   2.901 -0.7594  0.2233  0.8504
  158OSM    C8S17677   6.203   0.326   3.041 -0.1413 -0.1152  0.2138
  158OSM    H8S17678   6.094   0.344   3.026 -0.0624 -0.8542 -1.5414
  158OSM    H8T17679   6.245   0.428   3.040  3.0832 -1.3083  0.7935
  158OSM    C9S17680   6.241   0.256   3.170 -0.3979  0.2984 -0.2366
  158OSM    H9S17681   6.352   0.253   3.175 -0.4399 -1.2080  0.0397
  158OSM    H9T17682   6.198   0.155   3.164 -0.5658  0.4544 -2.1852
  158OSM   C10S17683   6.192   0.321   3.301  0.1075  0.0207  0.6457
  158OSM   H10S17684   6.082   0.303   3.302  0.2183 -0.8843 -0.4800
  158OSM   H10T17685   6.217   0.429   3.292  0.3642 -0.0332  0.7095
  158OSM   C11S17686   6.247   0.256   3.429  0.3556 -0.6473  0.1699
  158OSM   H11S17687   6.356   0.280   3.433  0.0138  1.5054 -1.4188
  158OSM   H11T17688   6.234   0.146   3.420 -1.8770 -0.3173 -1.5355
  158OSM   C12S17689   6.171   0.300   3.557 -0.2155  0.2694  0.2057
  158OSM   H12S17690   6.067   0.264   3.539  0.4287 -1.4507 -0.3129
  158OSM   H12T17691   6.172   0.410   3.572  2.4189  0.2392  0.7643
  158OSM   C13S17692   6.234   0.245   3.690  0.3846 -0.3757 -0.5074
  158OSM   H13S17693   6.330   0.298   3.707  1.0565 -1.9070  0.7303
  158OSM   H13T17694   6.247   0.135   3.677 -1.6786 -0.6875 -0.3280
  158OSM   C14S17695   6.154   0.279   3.818  0.0911  0.1319  0.5019
  158OSM   H14S17696   6.063   0.216   3.828 -0.4140 -0.1887 -4.1295
  158OSM   H14T17697   6.134   0.389   3.819 -0.3695  0.1596 -2.7701
  158OSM   C15S17698   6.243   0.261   3.936  0.6337 -0.0615  0.1060
  158OSM   H15S17699   6.336   0.318   3.915  1.7937 -1.4680  1.1187
  158OSM   H15T17700   6.277   0.155   3.930  2.0868  0.4645 -2.1178
  158OSM   C16S17701   6.186   0.311   4.065 -0.3710  0.1666 -0.9028
  158OSM   H16S17702   6.092   0.251   4.072 -1.2446  1.2921 -2.4225
  158OSM   H16T17703   6.163   0.418   4.084  3.5946  0.8742  0.7982
  158OSM   C17S17704   6.286   0.283   4.184  0.9716  0.2788  0.1046
  158OSM   H17S17705   6.375   0.349   4.175  0.4141  1.0339 -0.0299
  158OSM   H17T17706   6.328   0.181   4.178  0.3583  0.0979 -2.2614
  158OSM   C18S17707   6.216   0.317   4.314  0.6135 -0.0381  0.2029
  158OSM   H18S17708   6.289   0.324   4.398  2.5640 -0.0284 -1.4241
  158OSM   H18T17709   6.152   0.228   4.334 -0.3350  0.8762  1.3614
  158OSM   H18U17710   6.155   0.409   4.307  0.2021 -0.2531  0.9121
  158OSM    C1F17711   6.751   0.420   2.591 -0.0152 -1.2679 -0.6897
  158OSM     OF17712   6.726   0.519   2.520  0.1361  0.7731 -0.1898
  158OSM    C2F17713   6.878   0.416   2.666 -0.2268 -0.2864  0.1918
  158OSM    H2F17714   6.959   0.392   2.593  0.3532 -1.2926  1.1312
  158OSM    H2G17715   6.875   0.329   2.735  0.3321 -0.1771  0.3623
  158OSM    C3F17716   6.901   0.550   2.738  0.5186 -0.0779  0.3473
  158OSM    H3F17717   6.840   0.544   2.831  1.7469 -0.4382  1.1605
  158OSM    H3G17718   6.872   0.634   2.672  0.2306 -0.5549 -0.1364
  158OSM    C4F17719   7.037   0.558   2.796 -0.6185  0.5190 -0.4309
  158OSM    H4F17720   7.105   0.572   2.709  1.7274  2.2941  1.5294
  158OSM    H4G17721   7.066   0.465   2.848  2.1086 -0.5109 -3.4812
  158OSM    C5F17722   7.054   0.685   2.879  0.6545 -0.6046  0.6385
  158OSM    H5F17723   7.013   0.769   2.819 -1.8071 -2.7032 -0.8706
  158OSM    H5G17724   7.161   0.698   2.906  1.4406 -2.5717 -1.2692
  158OSM    C6F17725   6.981   0.706   3.010 -0.1916 -0.0398 -0.3145
  158OSM    H6F17726   6.870   0.711   3.010 -0.2412 -0.7527  0.7084
  158OSM    H6G17727   7.018   0.806   3.041  1.3100 -1.1652  1.7986
  158OSM    C7F17728   7.031   0.609   3.109 -0.2115 -0.2819 -0.2146
  158OSM    H7F17729   7.125   0.651   3.151  0.4429 -1.3438 -0.5696
  158OSM    H7G17730   7.054   0.511   3.061 -2.8627 -1.9409  1.6562
  158OSM    C8F17731   6.933   0.587   3.226 -0.4488 -0.4721 -1.2575
  158OSM    H8F17732   6.985   0.528   3.305  0.1518  1.3346 -0.2519
  158OSM    H8G17733   6.832   0.547   3.202 -1.3060 -0.6253  2.1109
  158OSM    C9F17734   6.910   0.714   3.296  0.4745 -0.0422 -0.1051
  158OSM    H9F17735   6.880   0.794   3.227 -0.2669 -1.2621 -1.2373
  158OSM   C10F17736   6.917   0.738   3.429  0.3740  0.2273  1.0589
  158OSM   H10F17737   6.881   0.834   3.470  0.4392  0.8538 -0.3124
  158OSM   C11F17738   6.961   0.639   3.541 -0.0836 -0.1888  0.9732
  158OSM   H11F17739   7.031   0.557   3.514  2.0086  1.7490  0.1809
  158OSM   H11G17740   6.873   0.589   3.587 -1.1247 -0.2045 -0.9257
  158OSM   C12F17741   7.036   0.715   3.654  0.0660  0.2236  0.3820
  158OSM   H12F17742   6.975   0.791   3.708  0.2279 -0.0460  0.9536
  158OSM   H12G17743   7.124   0.769   3.612 -0.3941  1.8565  1.3974
  158OSM   C13F17744   7.102   0.617   3.744  0.1299  0.1484 -0.1762
  158OSM   H13F17745   7.173   0.672   3.810  0.6734  0.8059 -1.2777
  158OSM   H13G17746   7.159   0.538   3.690  1.4753 -1.0763  2.8033
  158OSM   C14F17747   7.006   0.550   3.857 -0.0779 -0.2839  0.0936
  158OSM   H14F17748   6.926   0.495   3.803 -0.4218  1.4226 -1.1868
  158OSM   H14G17749   6.966   0.636   3.915 -1.9365 -1.4730  0.6744
  158OSM   C15F17750   7.081   0.446   3.945 -0.4262  0.2677  0.0632
  158OSM   H15F17751   7.175   0.496   3.977  0.4828 -1.1101 -0.3685
  158OSM   H15G17752   7.107   0.349   3.897  0.6810  0.4489  0.2516
  158OSM   C16F17753   6.991   0.419   4.066 -0.4735  0.6050  0.1500
  158OSM   H16F17754   6.910   0.356   4.023  0.1575  1.6009 -2.6897
  158OSM   H16G17755   6.955   0.520   4.095  0.1426  1.4339 -1.8129
  158OSM   C17F17756   7.057   0.332   4.169 -0.1566  0.0348 -0.0190
  158OSM   H17F17757   6.986   0.319   4.254  0.3382 -1.2826  0.2219
  158OSM   H17G17758   7.140   0.385   4.220 -0.3379  1.1362 -0.8517
  158OSM   C18F17759   7.101   0.197   4.123  0.2463 -0.2938  0.0122
  158OSM   H18F17760   7.020   0.147   4.065  1.3393 -2.4280  0.2519
  158OSM   H18G17761   7.137   0.132   4.204  3.2274  2.3533  1.0259
  158OSM   H18H17762   7.187   0.209   4.054  0.2562 -0.3069  0.0221
  159OSM      N17763   3.118   3.088   1.880 -0.4961 -0.0144 -0.0597
  159OSM    C1517764   2.983   3.155   1.897  0.4709  0.2502  0.2362
  159OSM   H15A17765   2.902   3.102   1.848  0.9726 -2.4137  2.0305
  159OSM   H15B17766   2.997   3.258   1.868  0.2844  0.5507  1.1867
  159OSM   H15C17767   2.966   3.159   2.004 -1.8072  1.2106 -0.1070
  159OSM    C1417768   3.110   2.952   1.955 -0.0684 -0.0271 -0.0619
  159OSM   H14A17769   3.047   2.964   2.042  0.0703  0.5100 -0.0326
  159OSM   H14B17770   3.208   2.918   1.983  0.7425  2.3800  0.2858
  159OSM   H14C17771   3.064   2.879   1.890 -1.8104 -0.4402  1.5616
  159OSM    C1317772   3.142   3.064   1.736 -0.1955 -0.0822  0.4180
  159OSM   H13A17773   3.075   2.985   1.705 -1.7561  1.8498 -1.4295
  159OSM   H13B17774   3.239   3.019   1.721  0.0914  1.0128 -1.2513
  159OSM   H13C17775   3.121   3.152   1.677 -1.5345  1.2653  2.7666
  159OSM    C1217776   3.233   3.165   1.947 -0.4705 -1.5010 -0.7866
  159OSM   H12A17777   3.221   3.263   1.903  1.3773 -1.6333 -1.6613
  159OSM   H12B17778   3.326   3.127   1.909  0.1629 -1.4591  0.6742
  159OSM    C1117779   3.241   3.187   2.103 -0.1913  0.8870 -0.2793
  159OSM   H11A17780   3.337   3.238   2.123  0.6790 -0.8877  0.2339
  159OSM   H11B17781   3.250   3.086   2.148 -1.1769  0.4202 -1.0733
  159OSM      P17782   3.126   3.406   2.141  0.3644 -0.1834 -0.1480
  159OSM    O1317783   3.240   3.450   2.058 -0.2041 -0.4597 -0.1772
  159OSM    O1417784   2.993   3.451   2.097  0.4867  0.3454  0.8236
  159OSM    O1117785   3.151   3.450   2.283 -0.0857  0.4926  1.1003
  159OSM    O1217786   3.124   3.252   2.154 -0.1758 -0.1695  0.0657
  159OSM    C1S17787   3.148   3.357   2.393  0.2368  0.5391 -0.1857
  159OSM    H1S17788   3.067   3.283   2.380 -0.0378  1.0353 -1.4228
  159OSM    H1T17789   3.121   3.412   2.486  0.5547 -0.7591  0.7029
  159OSM     NF17790   3.258   3.205   2.545 -0.1391  0.6377 -0.2872
  159OSM    HNF17791   3.294   3.230   2.635 -1.5982  0.4551  0.3838
  159OSM    C2S17792   3.281   3.284   2.430 -0.8000 -0.3165 -0.3368
  159OSM    H2S17793   3.314   3.210   2.354 -1.5259 -0.7063 -0.2849
  159OSM    C3S17794   3.394   3.392   2.443 -0.2188  0.1121 -0.2503
  159OSM    H3S17795   3.354   3.468   2.514  1.4804  0.5370  0.2955
  159OSM     O317796   3.422   3.454   2.319 -0.1940 -0.0623  0.5106
  159OSM    HO317797   3.335   3.442   2.280 -1.1008 -2.1442  2.8818
  159OSM    C4S17798   3.527   3.333   2.488 -0.4029  0.6255  0.6970
  159OSM    H4S17799   3.582   3.395   2.560 -0.9302 -0.7976  2.4072
  159OSM    C5S17800   3.592   3.237   2.412  0.5296  0.1777  0.0617
  159OSM    H5S17801   3.541   3.193   2.326  1.4486 -1.4579  0.3129
  159OSM    C6S17802   3.737   3.188   2.437  0.4312  0.6371 -0.8153
  159OSM    H6S17803   3.786   3.189   2.337  2.6747  3.8488  0.1715
  159OSM    H6T17804   3.748   3.093   2.494 -2.8606  1.7701  2.0598
  159OSM    C7S17805   3.820   3.289   2.522 -0.0532  0.7592  0.2236
  159OSM    H7S17806   3.766   3.306   2.618 -1.6731  2.9698 -0.9831
  159OSM    H7T17807   3.825   3.389   2.474 -0.7528  0.6065 -0.1753
  159OSM    C8S17808   3.961   3.235   2.570  0.2890  0.4834 -0.1088
  159OSM    H8S17809   4.017   3.325   2.605  0.0697  1.1930 -1.5038
  159OSM    H8T17810   4.009   3.195   2.478 -2.2467  2.0287 -2.2579
  159OSM    C9S17811   3.956   3.117   2.678 -0.0749 -1.0181 -0.2932
  159OSM    H9S17812   4.020   3.040   2.630  2.1429  1.0991 -0.9030
  159OSM    H9T17813   3.853   3.075   2.681 -0.5354  0.1163  0.2960
  159OSM   C10S17814   3.992   3.153   2.817 -0.8485  0.2671 -0.3029
  159OSM   H10S17815   3.918   3.226   2.857 -1.7977 -1.4969  1.3244
  159OSM   H10T17816   4.092   3.202   2.814 -1.5633  1.8461  0.2750
  159OSM   C11S17817   3.976   3.041   2.915 -0.0728  0.2801  0.6475
  159OSM   H11S17818   4.045   2.960   2.883  2.5565  2.2525  1.0522
  159OSM   H11T17819   3.876   2.995   2.900  0.8784 -1.1074 -2.1799
  159OSM   C12S17820   3.986   3.080   3.062  0.3760 -1.0853 -0.5380
  159OSM   H12S17821   3.937   3.180   3.066  2.0230 -0.2212 -0.7993
  159OSM   H12T17822   4.094   3.098   3.080 -0.1092  2.6672 -0.5472
  159OSM   C13S17823   3.932   2.988   3.173 -0.2258  0.0113  1.0977
  159OSM   H13S17824   3.977   2.888   3.154 -0.2760  0.0405  0.8201
  159OSM   H13T17825   3.823   2.966   3.172 -0.1380 -0.5475 -0.6482
  159OSM   C14S17826   3.971   3.031   3.311 -0.6536  0.3748 -0.0239
  159OSM   H14S17827   3.924   3.128   3.337  0.6508  1.1417 -0.4099
  159OSM   H14T17828   4.081   3.045   3.308 -0.7147  0.6946 -1.9369
  159OSM   C15S17829   3.918   2.936   3.419  0.2691  0.4321 -0.1314
  159OSM   H15S17830   3.897   2.835   3.378 -1.7863  1.2801 -1.3410
  159OSM   H15T17831   3.821   2.973   3.460  1.3664  1.6385  1.5167
  159OSM   C16S17832   4.011   2.918   3.542 -0.6768 -0.0236 -0.1324
  159OSM   H16S17833   4.021   3.014   3.597  0.8040  0.4589 -1.1743
  159OSM   H16T17834   4.112   2.898   3.500 -0.6221 -0.5627  0.2454
  159OSM   C17S17835   3.970   2.812   3.637  0.1402  0.4589  0.1588
  159OSM   H17S17836   4.061   2.804   3.700  1.1943 -1.4066 -1.4739
  159OSM   H17T17837   3.975   2.725   3.568 -0.1800  2.1361 -2.0765
  159OSM   C18S17838   3.842   2.821   3.724  0.5989  0.3530 -0.3545
  159OSM   H18S17839   3.749   2.819   3.663  0.1904  0.4681  0.2503
  159OSM   H18T17840   3.845   2.921   3.774  0.6751  0.2163 -0.0838
  159OSM   H18U17841   3.850   2.741   3.800  2.6785 -1.4833 -2.3407
  159OSM    C1F17842   3.181   3.096   2.528 -0.4741  0.1010 -0.8597
  159OSM     OF17843   3.169   3.040   2.421  0.4153 -0.4499  0.2426
  159OSM    C2F17844   3.119   3.047   2.662  0.5075  0.6429  0.2797
  159OSM    H2F17845   3.014   3.082   2.670 -1.0842 -3.5351  0.3400
  159OSM    H2G17846   3.178   3.091   2.745  0.7328 -1.2318  1.1478
  159OSM    C3F17847   3.105   2.891   2.672 -0.6928 -1.1766  0.6106
  159OSM    H3F17848   3.208   2.849   2.672  0.6417  1.8456  0.2791
  159OSM    H3G17849   3.051   2.865   2.578 -1.3915  1.0072  0.3703
  159OSM    C4F17850   3.032   2.849   2.804  0.6089  0.0076  1.1810
  159OSM    H4F17851   3.006   2.742   2.787 -0.9039  0.1936  2.1772
  159OSM    H4G17852   2.936   2.904   2.810 -0.2494 -1.4973  1.8870
  159OSM    C5F17853   3.128   2.875   2.925  0.0225 -0.6182 -0.0087
  159OSM    H5F17854   3.148   2.983   2.944  0.7361 -1.0987  2.1408
  159OSM    H5G17855   3.230   2.837   2.901  0.4748 -0.2718  1.3137
  159OSM    C6F17856   3.068   2.802   3.042 -0.0523 -0.3643 -0.9258
  159OSM    H6F17857   3.046   2.701   3.003 -2.2995 -0.6063  0.7237
  159OSM    H6G17858   2.965   2.836   3.069  0.3938 -1.6534  3.0202
  159OSM    C7F17859   3.147   2.817   3.169 -0.3949 -0.5109 -0.1101
  159OSM    H7F17860   3.241   2.759   3.168  0.0984  0.2731 -0.9775
  159OSM    H7G17861   3.081   2.772   3.247 -1.6247  1.7753  0.2802
  159OSM    C8F17862   3.159   2.964   3.221  0.0971 -0.3359  0.1445
  159OSM    H8F17863   3.243   3.005   3.162  0.0109 -1.1446 -0.5785
  159OSM    H8G17864   3.204   2.967   3.322 -2.2697 -0.1806  1.2654
  159OSM    C9F17865   3.032   3.049   3.213  0.1591  0.3705  0.7424
  159OSM    H9F17866   2.987   3.054   3.112  2.1093  1.5225 -0.1403
  159OSM   C10F17867   2.985   3.111   3.314 -0.0395  0.4106 -0.5593
  159OSM   H10F17868   2.893   3.168   3.294 -0.7184 -0.5418 -0.2709
  159OSM   C11F17869   3.026   3.109   3.462  0.1442  0.3044  0.6933
  159OSM   H11F17870   3.130   3.149   3.463  0.2809 -0.0411  0.4512
  159OSM   H11G17871   3.035   3.006   3.503  1.7789  0.4667  0.8384
  159OSM   C12F17872   2.937   3.196   3.549 -0.4408  0.3657 -0.2009
  159OSM   H12F17873   2.953   3.188   3.659  0.1148  3.1604 -0.0002
  159OSM   H12G17874   2.828   3.182   3.535 -0.8279  0.9265  1.8339
  159OSM   C13F17875   2.944   3.339   3.509 -0.8705 -0.1532  0.3482
  159OSM   H13F17876   2.940   3.341   3.398  2.8279 -0.8534  0.0578
  159OSM   H13G17877   3.036   3.395   3.539 -1.0836 -0.6784  2.1024
  159OSM   C14F17878   2.820   3.427   3.542 -0.4884  0.6380  0.0761
  159OSM   H14F17879   2.806   3.427   3.653 -2.3913 -0.9591 -0.1066
  159OSM   H14G17880   2.734   3.374   3.497  0.9023 -2.0371  0.3281
  159OSM   C15F17881   2.820   3.576   3.504 -0.1502 -0.0680 -0.2256
  159OSM   H15F17882   2.890   3.633   3.568 -0.4887  2.0557 -1.6594
  159OSM   H15G17883   2.720   3.620   3.523  1.2171  2.1967  2.3689
  159OSM   C16F17884   2.884   3.601   3.357 -0.5051  0.5201  0.2782
  159OSM   H16F17885   2.820   3.545   3.286 -0.0861  0.4414 -0.0458
  159OSM   H16G17886   2.990   3.568   3.351 -0.3704  0.1920  3.2627
  159OSM   C17F17887   2.878   3.746   3.304 -0.5659 -0.1561  0.7941
  159OSM   H17F17888   2.963   3.789   3.361 -0.1193 -0.4372  0.3424
  159OSM   H17G17889   2.799   3.813   3.346 -1.3143  0.0606 -0.8636
  159OSM   C18F17890   2.900   3.763   3.153  0.2995  0.1830 -0.4295
  159OSM   H18F17891   2.829   3.696   3.099 -0.1284  0.9820 -0.8800
  159OSM   H18G17892   3.006   3.746   3.126  0.5641 -0.2508  0.8200
  159OSM   H18H17893   2.881   3.867   3.121  0.5706  0.2310 -0.4286
  160OSM      N17894   0.111   1.972   2.188 -0.1983 -0.4486 -0.3186
  160OSM    C1517895   0.012   2.068   2.130 -0.1770 -0.6130 -0.1441
  160OSM   H15A17896  -0.071   2.095   2.193 -0.0900 -2.5630  0.8809
  160OSM   H15B17897  -0.023   2.058   2.028  2.3783 -0.1627 -1.1442
  160OSM   H15C17898   0.071   2.158   2.124  0.7630 -1.1765  0.3113
  160OSM    C1417899   0.140   1.999   2.329  0.3490  0.1762  0.3192
  160OSM   H14A17900   0.191   1.924   2.386  0.2570  1.3734  2.0522
  160OSM   H14B17901   0.049   2.013   2.386  1.3814  1.8124  1.6605
  160OSM   H14C17902   0.198   2.090   2.338 -1.8658  1.5697  1.4294
  160OSM    C1317903   0.046   1.841   2.201  0.6686  0.3552  0.2002
  160OSM   H13A17904   0.021   1.793   2.107 -0.7771 -0.9529  1.2067
  160OSM   H13B17905  -0.047   1.854   2.255  1.9581 -0.6131  2.8511
  160OSM   H13C17906   0.100   1.763   2.254  1.4325  0.8269  0.1273
  160OSM    C1217907   0.239   1.948   2.099 -0.3549  0.5562  0.5416
  160OSM   H12A17908   0.211   1.909   2.002 -0.5155 -0.3807  0.9576
  160OSM   H12B17909   0.305   1.882   2.153  0.6287  0.7189 -0.4293
  160OSM    C1117910   0.326   2.079   2.067  0.1452 -0.0448 -0.0518
  160OSM   H11A17911   0.274   2.136   1.987  1.1856  0.2731 -0.5179
  160OSM   H11B17912   0.424   2.043   2.029  0.0439 -0.4655  0.0737
  160OSM      P17913   0.475   2.171   2.260  0.3727 -0.4382  0.5244
  160OSM    O1317914   0.556   2.049   2.241  0.2266  0.3185  0.0232
  160OSM    O1417915   0.538   2.300   2.231  0.0082  0.0908  0.0187
  160OSM    O1117916   0.416   2.175   2.406  0.0446  0.6182 -0.2607
  160OSM    O1217917   0.341   2.154   2.185  0.3910 -0.4742 -0.6267
  160OSM    C1S17918   0.359   2.294   2.460  0.0866 -0.1561 -0.2515
  160OSM    H1S17919   0.267   2.318   2.402  1.7854  1.1523 -2.6207
  160OSM    H1T17920   0.428   2.382   2.456 -1.0845  0.8711  1.1017
  160OSM     NF17921   0.249   2.386   2.660 -0.4276  0.1310  0.1836
  160OSM    HNF17922   0.284   2.470   2.702 -0.0737  1.9512 -3.3420
  160OSM    C2S17923   0.338   2.277   2.612 -0.1875 -0.3325 -0.5667
  160OSM    H2S17924   0.280   2.183   2.621  0.9110 -1.0277 -0.6578
  160OSM    C3S17925   0.480   2.256   2.685  0.0178 -0.2691  0.0558
  160OSM    H3S17926   0.526   2.357   2.696 -0.1062 -0.1956 -0.0971
  160OSM     O317927   0.567   2.166   2.616 -0.5649  0.5659  0.6247
  160OSM    HO317928   0.530   2.158   2.527  0.1993  1.7186  0.1866
  160OSM    C4S17929   0.460   2.224   2.832 -0.0981  0.3378  0.9368
  160OSM    H4S17930   0.415   2.124   2.832 -0.9336  0.6845 -0.6866
  160OSM    C5S17931   0.498   2.293   2.931 -0.6549  0.6245 -0.4368
  160OSM    H5S17932   0.560   2.384   2.923 -2.2325  2.1573  2.6733
  160OSM    C6S17933   0.484   2.261   3.075  0.3769  0.3705 -0.1021
  160OSM    H6S17934   0.556   2.310   3.144  1.0197 -1.5745  0.6692
  160OSM    H6T17935   0.482   2.155   3.110 -0.2364  1.9460  5.6859
  160OSM    C7S17936   0.337   2.302   3.122 -0.2867 -0.4407 -0.4962
  160OSM    H7S17937   0.264   2.270   3.046 -1.1547  1.2812 -0.4492
  160OSM    H7T17938   0.352   2.412   3.131 -0.0823 -0.5432  0.5495
  160OSM    C8S17939   0.304   2.236   3.259 -0.2209  0.4567  0.3192
  160OSM    H8S17940   0.369   2.267   3.343  1.0027 -2.0773  0.3899
  160OSM    H8T17941   0.318   2.126   3.248 -2.2948  0.2750 -1.0876
  160OSM    C9S17942   0.151   2.253   3.300 -0.2749  0.3853  0.0610
  160OSM    H9S17943   0.096   2.225   3.208  1.3768  1.0574 -1.1736
  160OSM    H9T17944   0.134   2.357   3.335 -1.6803 -0.3160  1.6407
  160OSM   C10S17945   0.110   2.161   3.420  0.3595  0.9223  0.8351
  160OSM   H10S17946   0.096   2.054   3.393 -1.9401  1.6549 -1.1641
  160OSM   H10T17947   0.007   2.189   3.450 -0.2038 -1.1913  0.9995
  160OSM   C11S17948   0.197   2.154   3.546  0.5844  0.3372  0.5120
  160OSM   H11S17949   0.218   2.254   3.589  0.9676  0.3166  0.3821
  160OSM   H11T17950   0.294   2.102   3.524 -0.1673  0.6251 -5.1141
  160OSM   C12S17951   0.131   2.073   3.656  0.2141  0.7385 -0.0817
  160OSM   H12S17952   0.131   1.963   3.640  0.5009  0.6210  0.6963
  160OSM   H12T17953   0.031   2.117   3.674 -0.4989  0.4713 -2.9448
  160OSM   C13S17954   0.210   2.081   3.791 -0.3797 -0.0880  0.3734
  160OSM   H13S17955   0.213   2.180   3.840 -2.7194 -0.9482  2.5045
  160OSM   H13T17956   0.315   2.048   3.775 -0.7842 -0.0642 -3.0669
  160OSM   C14S17957   0.146   1.985   3.890 -0.3191  0.9501  0.0091
  160OSM   H14S17958   0.148   1.879   3.856  1.0250  0.5051  1.3663
  160OSM   H14T17959   0.045   2.024   3.913 -0.1261  1.0789  0.6513
  160OSM   C15S17960   0.221   2.000   4.016 -0.0842  0.2779 -0.4042
  160OSM   H15S17961   0.216   2.105   4.050  0.3505  0.8897 -2.1320
  160OSM   H15T17962   0.328   1.974   4.004  0.1007  1.4552 -1.4433
  160OSM   C16S17963   0.166   1.925   4.133 -0.6151 -0.2136 -0.5099
  160OSM   H16S17964   0.137   1.822   4.102  3.5086 -2.3016  1.7576
  160OSM   H16T17965   0.071   1.976   4.159  0.4736  0.0385  3.6252
  160OSM   C17S17966   0.252   1.920   4.255 -0.5908 -0.2421 -0.2215
  160OSM   H17S17967   0.289   2.025   4.264 -1.1057 -0.2327  2.7610
  160OSM   H17T17968   0.342   1.857   4.243 -0.4772 -0.0363 -0.4715
  160OSM   C18S17969   0.165   1.885   4.379 -0.7946 -0.7342 -0.0256
  160OSM   H18S17970   0.204   1.899   4.482 -3.0561  0.5192  0.7374
  160OSM   H18T17971   0.132   1.780   4.361  1.2926 -1.3005 -0.7827
  160OSM   H18U17972   0.073   1.948   4.376  0.5008  1.2589 -0.0660
  160OSM    C1F17973   0.119   2.376   2.636 -0.5718  0.0943  0.7733
  160OSM     OF17974   0.067   2.289   2.568  0.0961 -0.0992 -0.3397
  160OSM    C2F17975   0.025   2.475   2.693  0.7502  0.8802  0.6038
  160OSM    H2F17976  -0.029   2.523   2.609 -1.7527 -0.7165  1.2032
  160OSM    H2G17977   0.085   2.560   2.734  2.0418 -0.6166  1.9451
  160OSM    C3F17978  -0.073   2.414   2.795  0.8804  0.2703 -0.8686
  160OSM    H3F17979  -0.143   2.347   2.740  0.3218 -0.1075  0.2782
  160OSM    H3G17980  -0.149   2.485   2.836  0.4210 -1.2524  1.0953
  160OSM    C4F17981  -0.013   2.364   2.927 -0.4313 -0.1894  0.3601
  160OSM    H4F17982   0.081   2.306   2.909  1.7122  3.0226  0.4770
  160OSM    H4G17983  -0.093   2.304   2.975 -0.1740  0.1132  1.1811
  160OSM    C5F17984   0.029   2.471   3.026 -0.5524  0.3828 -0.4704
  160OSM    H5F17985   0.102   2.536   2.972  0.3318 -1.8261 -2.1194
  160OSM    H5G17986   0.088   2.425   3.108  1.0267  0.1294 -1.6851
  160OSM    C6F17987  -0.092   2.548   3.086  0.4122  0.1229 -0.3897
  160OSM    H6F17988  -0.169   2.484   3.133 -1.4377  2.9935  0.7593
  160OSM    H6G17989  -0.139   2.602   3.002  0.9689  1.6815  0.2683
  160OSM    C7F17990  -0.060   2.667   3.182  0.2492 -0.3797 -1.4757
  160OSM    H7F17991  -0.145   2.737   3.195  2.8480  2.5379  2.2072
  160OSM    H7G17992   0.015   2.737   3.138  1.3381 -0.3228  0.3728
  160OSM    C8F17993  -0.001   2.615   3.314  0.2714  0.5062 -0.1646
  160OSM    H8F17994   0.109   2.616   3.297  0.6405  1.1709  1.9373
  160OSM    H8G17995  -0.034   2.514   3.347  3.1058 -0.0685  1.2681
  160OSM    C9F17996  -0.021   2.717   3.421  2.1120 -0.6767  0.2778
  160OSM    H9F17997  -0.018   2.826   3.407 -2.6806 -0.5169 -1.2527
  160OSM   C10F17998  -0.042   2.679   3.552 -0.0601 -0.2438 -0.0690
  160OSM   H10F17999  -0.052   2.756   3.630  2.4154 -0.8623  0.9486
  160OSM   C11F18000  -0.050   2.537   3.606 -0.1987 -0.1937  0.3938
  160OSM   H11F18001  -0.003   2.456   3.546  0.9363  1.3813 -0.9427
  160OSM   H11G18002  -0.156   2.503   3.603  0.4120 -2.1269 -1.1439
  160OSM   C12F18003  -0.005   2.523   3.753  0.0549 -0.0103 -0.1793
  160OSM   H12F18004   0.103   2.549   3.748  0.0767  0.3234  1.4619
  160OSM   H12G18005  -0.018   2.414   3.770  1.3502 -0.2744 -0.7812
  160OSM   C13F18006  -0.087   2.602   3.857  0.1751  0.6024  0.1977
  160OSM   H13F18007  -0.197   2.602   3.840  0.2602  2.1028 -0.5267
  160OSM   H13G18008  -0.041   2.702   3.866  1.6711 -0.1572  1.4143
  160OSM   C14F18009  -0.054   2.551   3.995  0.2489  0.6812  0.3290
  160OSM   H14F18010   0.055   2.559   4.016  0.5425 -1.0948 -0.3568
  160OSM   H14G18011  -0.081   2.444   3.997  0.9454  0.4838 -0.3467
  160OSM   C15F18012  -0.119   2.621   4.107 -0.1466 -0.0049  0.3648
  160OSM   H15F18013  -0.079   2.725   4.109  1.2349 -0.5059 -0.1982
  160OSM   H15G18014  -0.071   2.577   4.197 -0.3350  1.2863  1.1176
  160OSM   C16F18015  -0.274   2.609   4.115 -0.2682 -0.3214 -0.4276
  160OSM   H16F18016  -0.314   2.511   4.081  0.0068 -0.5097 -0.2122
  160OSM   H16G18017  -0.327   2.682   4.051  1.5680 -0.6915 -2.4967
  160OSM   C17F18018  -0.333   2.623   4.260  0.1672  0.1751  0.2666
  160OSM   H17F18019  -0.294   2.705   4.323 -1.4959  1.3373 -0.1612
  160OSM   H17G18020  -0.306   2.526   4.308 -0.0974  0.8952  1.9428
  160OSM   C18F18021  -0.492   2.624   4.267  0.3895  0.3482  0.2709
  160OSM   H18F18022  -0.515   2.632   4.376  3.8292  1.8141  1.0331
  160OSM   H18G18023  -0.530   2.527   4.231 -0.3993 -0.0376  2.0494
  160OSM   H18H18024  -0.534   2.711   4.211  1.7332  0.2553 -0.9326
  161OSM      N18025   4.023   0.716   2.221  0.0199 -0.3264  0.0373
  161OSM    C1518026   3.964   0.769   2.351 -0.5968 -0.1338  0.0064
  161OSM   H15A18027   3.858   0.780   2.337 -0.8442 -1.5593  0.5784
  161OSM   H15B18028   4.008   0.865   2.373 -2.7953  0.9371 -0.1104
  161OSM   H15C18029   3.983   0.701   2.433 -1.9091 -0.4699  0.0442
  161OSM    C1418030   4.172   0.727   2.228 -0.0167  0.2111  0.0099
  161OSM   H14A18031   4.220   0.668   2.151 -1.8301 -0.8575 -0.3560
  161OSM   H14B18032   4.209   0.696   2.325 -1.4726 -1.4040  0.0938
  161OSM   H14C18033   4.195   0.831   2.212 -0.4746  0.6897  2.1190
  161OSM    C1318034   3.981   0.579   2.203  0.1638  0.3645 -0.1047
  161OSM   H13A18035   4.019   0.521   2.286 -0.8229 -0.8478 -0.4641
  161OSM   H13B18036   4.015   0.530   2.113 -2.8704 -2.1689 -0.0491
  161OSM   H13C18037   3.873   0.568   2.195  0.2041 -0.9590  0.8231
  161OSM    C1218038   3.972   0.808   2.109 -0.8292  0.6425  0.1789
  161OSM   H12A18039   4.032   0.795   2.020  0.8623  3.1026  0.8465
  161OSM   H12B18040   3.989   0.910   2.141  0.9655  0.5816 -0.4435
  161OSM    C1118041   3.830   0.779   2.062  0.3238  1.3680 -0.1171
  161OSM   H11A18042   3.813   0.671   2.040  2.2649  0.7984  0.9992
  161OSM   H11B18043   3.807   0.833   1.967 -0.7728  1.5280  0.2160
  161OSM      P18044   3.583   0.785   2.142  0.2935  0.1199  0.0897
  161OSM    O1318045   3.506   0.910   2.141 -0.3171  0.1103 -0.2531
  161OSM    O1418046   3.560   0.692   2.028  0.0044 -0.3314 -0.1040
  161OSM    O1118047   3.546   0.711   2.277 -0.1448 -0.3309  0.2431
  161OSM    O1218048   3.735   0.805   2.169  0.1068 -0.4907  0.1443
  161OSM    C1S18049   3.580   0.773   2.395  0.1853 -0.0893 -0.2751
  161OSM    H1S18050   3.532   0.873   2.399  1.0576  0.3068  0.6313
  161OSM    H1T18051   3.689   0.774   2.414  0.9643 -3.6385 -3.4622
  161OSM     NF18052   3.537   0.772   2.635 -0.6518 -0.0788  0.4987
  161OSM    HNF18053   3.625   0.758   2.678 -0.3237 -0.1617 -0.1824
  161OSM    C2S18054   3.495   0.705   2.514 -0.1495 -0.0917 -0.4691
  161OSM    H2S18055   3.388   0.724   2.492 -0.4141 -0.3240  0.5615
  161OSM    C3S18056   3.530   0.553   2.509 -0.2560  0.5981 -0.2210
  161OSM    H3S18057   3.641   0.541   2.505 -0.2239  0.1286  1.3605
  161OSM     O318058   3.481   0.485   2.394 -0.2554  0.3327 -0.0819
  161OSM    HO318059   3.471   0.552   2.327 -0.5283  0.1697 -0.2076
  161OSM    C4S18060   3.494   0.478   2.632  0.5479  0.0064  0.5695
  161OSM    H4S18061   3.384   0.474   2.640  0.6265 -1.0364  1.3207
  161OSM    C5S18062   3.565   0.391   2.700 -0.4466  0.1257 -0.6861
  161OSM    H5S18063   3.673   0.382   2.684 -0.1230 -1.5112  1.8828
  161OSM    C6S18064   3.510   0.302   2.810  0.6857  0.1479  0.3293
  161OSM    H6S18065   3.505   0.193   2.789 -1.9975  0.2534  0.1127
  161OSM    H6T18066   3.402   0.327   2.817  0.7631  0.3622  0.7687
  161OSM    C7S18067   3.568   0.335   2.944  0.7122  0.7213  0.0310
  161OSM    H7S18068   3.584   0.445   2.943 -0.0038  0.8356  0.4826
  161OSM    H7T18069   3.665   0.285   2.962  1.0051  0.6718 -1.5837
  161OSM    C8S18070   3.484   0.292   3.062  0.4280 -0.2351 -0.8389
  161OSM    H8S18071   3.469   0.185   3.036  2.8427 -1.3316  1.8365
  161OSM    H8T18072   3.394   0.358   3.066  0.1018 -0.7324  0.4925
  161OSM    C9S18073   3.566   0.322   3.196 -0.0713  0.5492  0.0985
  161OSM    H9S18074   3.613   0.422   3.183  0.2512  0.2931 -0.8364
  161OSM    H9T18075   3.648   0.247   3.200 -0.6108 -0.0290  0.4698
  161OSM   C10S18076   3.480   0.310   3.316  1.1514 -0.3473 -0.5738
  161OSM   H10S18077   3.430   0.211   3.308  1.1470 -0.4151  0.2374
  161OSM   H10T18078   3.401   0.389   3.315  1.5034  0.0223  0.1516
  161OSM   C11S18079   3.547   0.315   3.454  0.3633  0.1520 -0.1113
  161OSM   H11S18080   3.580   0.420   3.472  1.2954  0.1570 -1.6586
  161OSM   H11T18081   3.635   0.247   3.450 -0.2897 -0.7149 -3.7889
  161OSM   C12S18082   3.460   0.274   3.570 -0.0606 -0.0632  0.4316
  161OSM   H12S18083   3.453   0.164   3.565  1.1369 -0.1047 -1.2524
  161OSM   H12T18084   3.361   0.321   3.557  0.1666  0.0018 -1.2124
  161OSM   C13S18085   3.513   0.326   3.706  0.9968  0.2580 -0.0614
  161OSM   H13S18086   3.530   0.435   3.694  1.9633  0.0468 -0.7443
  161OSM   H13T18087   3.613   0.279   3.719  1.0857 -0.2174 -2.0814
  161OSM   C14S18088   3.425   0.278   3.823  0.0712  0.0722 -0.6300
  161OSM   H14S18089   3.427   0.167   3.827 -2.5411 -0.0934 -1.6267
  161OSM   H14T18090   3.317   0.306   3.815  0.5485  1.8336 -1.3237
  161OSM   C15S18091   3.476   0.333   3.954  0.2151 -0.4282 -0.4369
  161OSM   H15S18092   3.459   0.443   3.964 -1.8859 -0.7297 -0.1562
  161OSM   H15T18093   3.586   0.319   3.955  0.2649 -0.0687 -0.6207
  161OSM   C16S18094   3.430   0.260   4.078 -0.1449 -0.2180  0.0065
  161OSM   H16S18095   3.417   0.153   4.050 -3.1157 -0.1769  0.8345
  161OSM   H16T18096   3.328   0.296   4.104 -0.1214  0.9482 -1.3768
  161OSM   C17S18097   3.520   0.281   4.202  0.5180  0.5155 -0.1137
  161OSM   H17S18098   3.610   0.220   4.182  0.1659  0.0509 -0.2850
  161OSM   H17T18099   3.480   0.243   4.299 -1.9881 -0.7410 -1.5220
  161OSM   C18S18100   3.557   0.434   4.206 -0.4863  0.6851  0.0027
  161OSM   H18S18101   3.590   0.459   4.309  0.2369 -1.2952  0.2996
  161OSM   H18T18102   3.478   0.507   4.177 -1.6885  0.6292  2.8031
  161OSM   H18U18103   3.643   0.455   4.138  0.3912 -1.1513  0.4675
  161OSM    C1F18104   3.488   0.900   2.644  0.0742 -0.8419 -0.5278
  161OSM     OF18105   3.386   0.927   2.583 -0.4737  0.3159 -0.0290
  161OSM    C2F18106   3.572   0.994   2.724 -0.5318  0.0216 -0.7173
  161OSM    H2F18107   3.621   1.066   2.655 -0.6455  1.3593  0.5265
  161OSM    H2G18108   3.666   0.949   2.765 -0.9353 -0.5499 -0.4115
  161OSM    C3F18109   3.495   1.078   2.824  0.5812 -0.2080  0.0068
  161OSM    H3F18110   3.433   1.023   2.897  1.1335  0.9835  1.4222
  161OSM    H3G18111   3.429   1.148   2.768 -1.5073 -2.0054  0.1055
  161OSM    C4F18112   3.596   1.164   2.901 -0.5355 -0.4549  0.0042
  161OSM    H4F18113   3.647   1.240   2.838 -1.5578  1.2294  1.1256
  161OSM    H4G18114   3.675   1.100   2.945  1.9771  1.7373 -1.0463
  161OSM    C5F18115   3.541   1.255   3.015  0.1190 -0.3531  0.4841
  161OSM    H5F18116   3.451   1.312   2.985 -0.3585 -1.8502 -1.1093
  161OSM    H5G18117   3.621   1.330   3.027  2.4834 -2.3536 -1.6294
  161OSM    C6F18118   3.518   1.181   3.145  0.3264 -0.6048  0.1736
  161OSM    H6F18119   3.573   1.222   3.232 -0.9358 -0.4238  0.9222
  161OSM    H6G18120   3.566   1.081   3.140  1.6974  0.0725 -3.2771
  161OSM    C7F18121   3.368   1.167   3.181 -0.3330 -0.7177  0.1880
  161OSM    H7F18122   3.315   1.139   3.087  1.4228  0.2155 -1.1357
  161OSM    H7G18123   3.337   1.271   3.203 -0.0294  0.0127 -2.4953
  161OSM    C8F18124   3.337   1.054   3.273 -0.1618  0.0545  0.1901
  161OSM    H8F18125   3.369   0.967   3.212 -0.0235  0.3280 -0.1380
  161OSM    H8G18126   3.228   1.049   3.294 -0.3600 -0.0235 -0.7774
  161OSM    C9F18127   3.406   1.063   3.407 -0.5106 -0.3702 -0.4831
  161OSM    H9F18128   3.512   1.089   3.394 -0.3625 -1.3393 -1.3741
  161OSM   C10F18129   3.356   1.051   3.523  0.5579 -0.6753  0.3759
  161OSM   H10F18130   3.418   1.063   3.613  1.2265  1.5589 -0.3120
  161OSM   C11F18131   3.206   1.031   3.549 -0.5748  0.9911 -1.4866
  161OSM   H11F18132   3.178   0.924   3.535 -1.2131  0.3178  3.1446
  161OSM   H11G18133   3.147   1.103   3.490  0.2530  3.7520  0.8255
  161OSM   C12F18134   3.163   1.065   3.696 -0.4973 -0.0186 -0.4444
  161OSM   H12F18135   3.055   1.048   3.718  0.0780 -2.6353  0.7891
  161OSM   H12G18136   3.166   1.170   3.731 -2.4162 -0.9593  3.0335
  161OSM   C13F18137   3.234   0.986   3.802  0.2158 -0.2066 -0.5424
  161OSM   H13F18138   3.344   0.996   3.791  0.1118 -0.6767 -2.3522
  161OSM   H13G18139   3.217   0.878   3.780  2.2269 -0.5935 -0.3852
  161OSM   C14F18140   3.192   1.010   3.952  0.1055 -0.3523 -0.3444
  161OSM   H14F18141   3.237   1.108   3.977  0.2663  0.1344 -2.3774
  161OSM   H14G18142   3.238   0.937   4.022  1.1916  2.5973  2.1955
  161OSM   C15F18143   3.038   1.019   3.968 -0.6679 -0.0719  0.2940
  161OSM   H15F18144   2.976   0.941   3.919 -0.6533  0.5186 -0.6919
  161OSM   H15G18145   3.006   1.104   3.904  0.2048  0.0670  0.0246
  161OSM   C16F18146   2.990   1.049   4.114 -0.1593  0.3072  0.1601
  161OSM   H16F18147   2.890   1.097   4.111 -0.6595 -0.4587  2.2818
  161OSM   H16G18148   3.055   1.123   4.165  1.6670 -2.6013  2.3835
  161OSM   C17F18149   3.002   0.935   4.215  0.3955 -0.1088  0.3135
  161OSM   H17F18150   3.003   0.976   4.318 -0.1119  0.0651  0.2522
  161OSM   H17G18151   3.100   0.885   4.199  0.1743 -0.4666  0.0663
  161OSM   C18F18152   2.890   0.829   4.207 -0.3324 -0.6071 -0.0977
  161OSM   H18F18153   2.787   0.869   4.220 -0.5017 -1.3968  1.1292
  161OSM   H18G18154   2.910   0.751   4.284 -0.2632 -0.5690 -0.0776
  161OSM   H18H18155   2.894   0.772   4.111 -2.9335 -0.6691 -0.2356
  162OSM      N18156   5.421   2.276   1.698 -0.3171 -1.0429 -0.1417
  162OSM    C1518157   5.565   2.295   1.678  0.5069 -0.0200  0.1777
  162OSM   H15A18158   5.603   2.387   1.721  2.5097 -0.2351 -0.9991
  162OSM   H15B18159   5.588   2.314   1.574 -0.2441 -0.9362 -0.1693
  162OSM   H15C18160   5.620   2.206   1.704  0.3944 -0.4619 -1.0155
  162OSM    C1418161   5.351   2.401   1.656 -0.2736 -0.7768 -0.5629
  162OSM   H14A18162   5.361   2.428   1.552 -1.3689  0.0854 -0.4619
  162OSM   H14B18163   5.389   2.486   1.711  0.2185 -1.5547  0.3381
  162OSM   H14C18164   5.244   2.399   1.672 -0.6979  0.1101 -2.9676
  162OSM    C1318165   5.376   2.157   1.610  1.1507 -0.7551 -0.4591
  162OSM   H13A18166   5.274   2.128   1.631  0.4462  1.5678 -0.4461
  162OSM   H13B18167   5.441   2.072   1.627  1.6869  0.0763  2.1429
  162OSM   H13C18168   5.375   2.185   1.506  0.7110  1.9864  0.2116
  162OSM    C1218169   5.385   2.252   1.840 -0.0904 -0.4484 -0.2559
  162OSM   H12A18170   5.430   2.329   1.902  0.0723  0.0424 -0.9734
  162OSM   H12B18171   5.427   2.157   1.869 -1.6426 -0.9643  0.3778
  162OSM    C1118172   5.234   2.251   1.866 -0.7629 -0.1437  0.3294
  162OSM   H11A18173   5.211   2.180   1.949 -1.3899  1.0897  1.2376
  162OSM   H11B18174   5.179   2.210   1.778 -2.0805 -1.7948  1.8486
  162OSM      P18175   5.229   2.480   2.006 -0.1118  0.0206 -0.1133
  162OSM    O1318176   5.375   2.465   2.041 -0.3706  0.7038 -0.0416
  162OSM    O1418177   5.180   2.616   1.972 -0.3006  0.3835 -0.1667
  162OSM    O1118178   5.149   2.424   2.126  0.1324  0.5836 -0.5177
  162OSM    O1218179   5.183   2.382   1.892  0.4913  0.1945 -0.4950
  162OSM    C1S18180   5.151   2.284   2.170  0.3344 -0.3462  0.1463
  162OSM    H1S18181   5.258   2.255   2.179 -0.1542 -2.2005  0.3652
  162OSM    H1T18182   5.099   2.232   2.086 -0.8907  1.8980 -0.5720
  162OSM     NF18183   5.085   2.122   2.358 -0.5998 -0.4624 -0.1611
  162OSM    HNF18184   5.032   2.049   2.315 -0.8696 -0.5595  0.3316
  162OSM    C2S18185   5.075   2.258   2.311  0.4525 -0.1529 -0.0012
  162OSM    H2S18186   5.112   2.322   2.394 -0.6892 -1.8686  1.9406
  162OSM    C3S18187   4.922   2.284   2.285  0.1143 -0.2451 -0.0843
  162OSM    H3S18188   4.880   2.209   2.214 -1.3974 -1.3633  1.9150
  162OSM     O318189   4.882   2.406   2.224 -0.6016  0.1383  0.7658
  162OSM    HO318190   4.969   2.440   2.201  0.5852 -2.6762  0.7389
  162OSM    C4S18191   4.842   2.263   2.413 -0.4504 -0.6803  0.4043
  162OSM    H4S18192   4.785   2.170   2.406  0.5122 -1.2266 -0.4597
  162OSM    C5S18193   4.825   2.346   2.515  0.6070 -0.0230 -0.4000
  162OSM    H5S18194   4.873   2.444   2.499 -0.9993  0.9559  0.5171
  162OSM    C6S18195   4.760   2.318   2.644  0.2890  0.0438  0.6535
  162OSM    H6S18196   4.687   2.235   2.632  1.1634 -0.5210 -1.1028
  162OSM    H6T18197   4.708   2.400   2.698 -1.5030 -0.7087  0.1280
  162OSM    C7S18198   4.877   2.287   2.731  0.0736  0.8652 -0.1543
  162OSM    H7S18199   4.932   2.381   2.751 -0.2334  1.4075 -1.7324
  162OSM    H7T18200   4.950   2.220   2.682  0.9197  0.1828  1.9179
  162OSM    C8S18201   4.838   2.229   2.872  0.8544  0.1071  0.3217
  162OSM    H8S18202   4.802   2.125   2.859  0.6543  0.2542 -0.3084
  162OSM    H8T18203   4.754   2.278   2.924 -1.2194 -2.9748  0.1329
  162OSM    C9S18204   4.956   2.217   2.966 -0.2261  0.5414 -0.1919
  162OSM    H9S18205   5.002   2.318   2.961 -0.5843  0.6693 -0.9545
  162OSM    H9T18206   5.016   2.137   2.917 -0.4662  0.3032 -0.0994
  162OSM   C10S18207   4.920   2.182   3.115 -0.5148 -0.3616  0.0269
  162OSM   H10S18208   4.863   2.087   3.106  0.3776 -0.7497 -2.4554
  162OSM   H10T18209   4.848   2.262   3.141 -2.1410 -2.0439  0.9315
  162OSM   C11S18210   5.040   2.152   3.205 -0.6478 -0.2076  0.3190
  162OSM   H11S18211   5.115   2.234   3.194 -2.3688  1.1508 -2.4950
  162OSM   H11T18212   5.090   2.069   3.151 -0.4986  0.3478 -0.4124
  162OSM   C12S18213   4.996   2.105   3.346 -0.9317  0.0672  0.0103
  162OSM   H12S18214   4.926   2.020   3.332  2.5132 -2.6705 -2.6650
  162OSM   H12T18215   4.935   2.189   3.386  1.0895  2.2628 -1.2412
  162OSM   C13S18216   5.116   2.073   3.425  0.3392 -0.4250  0.2725
  162OSM   H13S18217   5.189   2.157   3.418 -0.5669  0.2561 -2.1832
  162OSM   H13T18218   5.167   1.983   3.385  1.9950  0.2535  0.7500
  162OSM   C14S18219   5.076   2.052   3.569  0.9455 -0.2782  0.3442
  162OSM   H14S18220   4.989   1.982   3.566 -0.8394  1.5495  3.6029
  162OSM   H14T18221   5.030   2.141   3.618  0.8118 -1.2714  2.1201
  162OSM   C15S18222   5.198   2.009   3.646  0.7372  0.3366 -0.0077
  162OSM   H15S18223   5.260   2.102   3.657  0.7625  0.4283 -0.8815
  162OSM   H15T18224   5.255   1.941   3.580  1.9017 -0.1332  1.4389
  162OSM   C16S18225   5.165   1.950   3.781  0.9378  0.2407 -0.0004
  162OSM   H16S18226   5.083   1.875   3.769  0.7910  0.3219  0.4593
  162OSM   H16T18227   5.126   2.022   3.856  1.3180  1.1491 -0.6577
  162OSM   C17S18228   5.290   1.885   3.850  0.3559 -0.5033 -0.5699
  162OSM   H17S18229   5.377   1.954   3.842  0.0305  0.5044  2.7694
  162OSM   H17T18230   5.313   1.795   3.790 -1.0396 -0.2495 -1.5279
  162OSM   C18S18231   5.281   1.833   4.001 -0.2884 -0.1907  0.1134
  162OSM   H18S18232   5.177   1.802   4.025  0.2208 -1.5041  0.7180
  162OSM   H18T18233   5.314   1.916   4.066 -1.3292  0.3085  0.0329
  162OSM   H18U18234   5.329   1.734   4.018  2.0237  0.8910  0.2039
  162OSM    C1F18235   5.197   2.092   2.421 -0.0980 -0.1384 -0.1915
  162OSM     OF18236   5.277   2.177   2.452 -0.3963  0.0972 -0.3255
  162OSM    C2F18237   5.217   1.946   2.450 -0.1625  0.0784 -0.3439
  162OSM    H2F18238   5.245   1.906   2.350 -2.3582  0.6692 -1.2630
  162OSM    H2G18239   5.121   1.894   2.473  0.2591 -1.2957 -1.5005
  162OSM    C3F18240   5.321   1.928   2.559 -0.0675 -0.0953  0.8236
  162OSM    H3F18241   5.300   1.987   2.650 -0.7505  0.2635  0.4398
  162OSM    H3G18242   5.416   1.964   2.515 -0.8372  2.1224  0.8761
  162OSM    C4F18243   5.331   1.779   2.601 -0.1380 -0.3686 -0.4780
  162OSM    H4F18244   5.354   1.722   2.508  0.2751  1.3065 -1.4557
  162OSM    H4G18245   5.235   1.745   2.647  0.5845 -0.2226  1.2015
  162OSM    C5F18246   5.444   1.755   2.702 -0.4123 -0.1033 -0.2737
  162OSM    H5F18247   5.541   1.779   2.654 -0.7451 -0.0332 -0.9077
  162OSM    H5G18248   5.447   1.647   2.726  0.2950 -0.0653 -0.1657
  162OSM    C6F18249   5.434   1.827   2.833 -0.2353  0.1617  0.0762
  162OSM    H6F18250   5.443   1.935   2.812 -0.3833  0.3781  1.0953
  162OSM    H6G18251   5.509   1.796   2.909 -0.3400  2.8116  1.3762
  162OSM    C7F18252   5.305   1.795   2.905  0.1917 -0.2136 -0.1815
  162OSM    H7F18253   5.285   1.687   2.916 -0.3523 -0.0672  0.3038
  162OSM    H7G18254   5.213   1.835   2.858  0.5623 -0.9365 -1.5548
  162OSM    C8F18255   5.303   1.861   3.047  0.2690 -0.4668  0.6363
  162OSM    H8F18256   5.197   1.877   3.077 -0.0944 -0.0541 -0.7835
  162OSM    H8G18257   5.356   1.958   3.057 -0.5588 -0.2124  3.5761
  162OSM    C9F18258   5.374   1.769   3.145  0.1589  0.0209  0.1533
  162OSM    H9F18259   5.481   1.758   3.122  0.1522  0.4922 -0.1210
  162OSM   C10F18260   5.328   1.705   3.250 -0.4754 -0.0252  0.5005
  162OSM   H10F18261   5.395   1.635   3.303 -0.1347  0.8615  1.2689
  162OSM   C11F18262   5.184   1.688   3.302 -0.2929  0.3792  1.0023
  162OSM   H11F18263   5.133   1.598   3.262 -0.3845  0.3316  1.2271
  162OSM   H11G18264   5.124   1.778   3.278  0.9239  0.7035 -1.0474
  162OSM   C12F18265   5.186   1.661   3.452 -0.1156 -0.5251 -0.1688
  162OSM   H12F18266   5.100   1.718   3.492  0.0939 -0.9246  0.8868
  162OSM   H12G18267   5.277   1.710   3.491  0.0602  1.0494 -2.4190
  162OSM   C13F18268   5.196   1.519   3.494  0.1640  0.5763 -0.2658
  162OSM   H13F18269   5.267   1.462   3.430 -1.0539  0.3502 -1.4608
  162OSM   H13G18270   5.096   1.473   3.483 -0.1810  1.0543  0.6919
  162OSM   C14F18271   5.243   1.508   3.639  0.2028 -1.2320  0.4001
  162OSM   H14F18272   5.202   1.598   3.691  2.6791  0.9105 -1.1085
  162OSM   H14G18273   5.352   1.529   3.641 -0.1265  0.9313 -0.8597
  162OSM   C15F18274   5.202   1.385   3.713  0.3207 -0.5641  0.3527
  162OSM   H15F18275   5.226   1.306   3.639  0.6326 -0.6235  0.5165
  162OSM   H15G18276   5.091   1.379   3.714  0.1146  2.0505 -0.1212
  162OSM   C16F18277   5.271   1.361   3.842 -0.0005  0.6511 -0.4201
  162OSM   H16F18278   5.254   1.431   3.927 -1.5233 -1.2676  0.9554
  162OSM   H16G18279   5.378   1.364   3.814  0.6392 -0.2387  1.7378
  162OSM   C17F18280   5.240   1.221   3.899  0.3365  0.3926 -0.2424
  162OSM   H17F18281   5.132   1.197   3.886  1.2257 -3.3881 -1.7005
  162OSM   H17G18282   5.270   1.218   4.006  0.3091 -1.4982 -0.2613
  162OSM   C18F18283   5.310   1.107   3.827 -0.0559  1.1315  0.2871
  162OSM   H18F18284   5.271   1.098   3.724 -0.8153  0.4306  0.6271
  162OSM   H18G18285   5.288   1.012   3.881  0.3559  1.1411  0.4781
  162OSM   H18H18286   5.420   1.124   3.823  0.0843  0.7952  1.9146
  163OSM      N18287   3.278   0.810   1.776  0.0811 -0.0880 -0.3743
  163OSM    C1518288   3.357   0.935   1.781 -0.9275  0.8781 -0.0326
  163OSM   H15A18289   3.341   0.992   1.691  0.0733 -0.4967 -1.1328
  163OSM   H15B18290   3.463   0.917   1.794 -0.8340  0.4917 -1.2602
  163OSM   H15C18291   3.333   0.992   1.870 -1.9113 -1.0580  1.0072
  163OSM    C1418292   3.132   0.840   1.731 -0.3218 -0.6681 -0.1155
  163OSM   H14A18293   3.132   0.895   1.637  0.2411  1.5715  1.1215
  163OSM   H14B18294   3.085   0.898   1.809 -1.0778 -1.7674  0.2765
  163OSM   H14C18295   3.090   0.742   1.715  0.4375 -0.9393 -0.5134
  163OSM    C1318296   3.338   0.723   1.667 -0.1373 -0.4515  0.2708
  163OSM   H13A18297   3.285   0.629   1.674  0.5294 -0.7770  1.1077
  163OSM   H13B18298   3.442   0.700   1.686 -0.3107 -3.4474 -1.7648
  163OSM   H13C18299   3.337   0.768   1.569 -1.7266 -1.3103 -0.1381
  163OSM    C1218300   3.277   0.743   1.912 -0.3513 -0.5200 -0.6188
  163OSM   H12A18301   3.380   0.719   1.935  0.1936  2.4027  0.5000
  163OSM   H12B18302   3.220   0.652   1.911 -0.0635 -0.7313  0.4436
  163OSM    C1118303   3.207   0.823   2.026 -0.8006  0.2864 -0.1610
  163OSM   H11A18304   3.251   0.926   2.024 -1.2481  0.4768 -0.1820
  163OSM   H11B18305   3.240   0.777   2.122  3.0912 -0.5306 -1.6886
  163OSM      P18306   2.970   0.701   2.028  0.4182 -0.0720 -0.3777
  163OSM    O1318307   2.838   0.747   1.986  0.5044 -0.3737 -0.3567
  163OSM    O1418308   3.020   0.581   1.964 -0.0166  0.1671 -0.1029
  163OSM    O1118309   2.966   0.686   2.184  0.4405  0.0609  0.2657
  163OSM    O1218310   3.066   0.819   2.003  0.0705 -0.2078 -0.9728
  163OSM    C1S18311   2.954   0.810   2.262  0.2876 -0.4251 -0.1631
  163OSM    H1S18312   2.860   0.866   2.241  1.1548  1.6500  1.1468
  163OSM    H1T18313   3.036   0.883   2.245 -0.4295  0.2330 -0.8465
  163OSM     NF18314   2.922   0.928   2.471 -0.2715  0.3905 -0.3657
  163OSM    HNF18315   2.991   0.962   2.534  0.9612  0.3819 -1.6741
  163OSM    C2S18316   2.956   0.797   2.414  0.7756  0.4613  0.8408
  163OSM    H2S18317   2.876   0.729   2.450 -0.3195  0.9247 -0.6168
  163OSM    C3S18318   3.092   0.738   2.456 -0.4078 -0.3679  0.1687
  163OSM    H3S18319   3.158   0.828   2.460 -3.4138  2.0769 -0.8970
  163OSM     O318320   3.147   0.637   2.365 -0.2389 -0.0702  0.0554
  163OSM    HO318321   3.099   0.637   2.282  2.2482  1.8354 -1.5100
  163OSM    C4S18322   3.093   0.702   2.607 -0.1033  0.0947 -0.0763
  163OSM    H4S18323   3.134   0.785   2.666 -1.1420  0.7824 -0.2984
  163OSM    C5S18324   3.050   0.592   2.663  0.6509 -0.1872  0.1027
  163OSM    H5S18325   2.999   0.523   2.594  1.9236  0.0729 -1.1468
  163OSM    C6S18326   3.064   0.564   2.808 -0.2147  0.5785 -0.5635
  163OSM    H6S18327   3.112   0.464   2.818  0.2979  0.7656 -1.1092
  163OSM    H6T18328   2.968   0.568   2.863 -0.0742 -0.6319 -0.1772
  163OSM    C7S18329   3.152   0.657   2.891  0.0527 -0.4405  0.4839
  163OSM    H7S18330   3.108   0.759   2.883 -0.4965 -0.6958  0.2318
  163OSM    H7T18331   3.252   0.662   2.842 -0.9179 -0.1906 -1.5435
  163OSM    C8S18332   3.188   0.620   3.032 -0.3367 -0.0882  0.0607
  163OSM    H8S18333   3.206   0.510   3.035 -1.7110 -0.3103  0.8344
  163OSM    H8T18334   3.102   0.633   3.101  0.3299 -0.2134  0.9263
  163OSM    C9S18335   3.301   0.695   3.090  0.3341  0.1409  0.7126
  163OSM    H9S18336   3.280   0.804   3.084 -0.9262 -0.1594 -1.6715
  163OSM    H9T18337   3.393   0.669   3.034  0.2848 -0.7056  0.9986
  163OSM   C10S18338   3.342   0.654   3.229  0.4776 -0.2100 -0.4833
  163OSM   H10S18339   3.424   0.715   3.273 -1.6480  2.1598  0.4436
  163OSM   H10T18340   3.379   0.549   3.220  1.3089 -0.4529  3.7551
  163OSM   C11S18341   3.216   0.656   3.328 -0.3653  0.5439  0.2841
  163OSM   H11S18342   3.133   0.590   3.293 -0.6316  0.2967  1.3595
  163OSM   H11T18343   3.165   0.754   3.333 -0.4541  0.4478  1.6549
  163OSM   C12S18344   3.260   0.622   3.472  0.5653 -0.2528  0.1734
  163OSM   H12S18345   3.336   0.695   3.508 -0.6372  0.4816  1.2908
  163OSM   H12T18346   3.302   0.519   3.474 -0.7288 -0.7967  0.0063
  163OSM   C13S18347   3.134   0.605   3.562  0.2034  0.1042  0.6286
  163OSM   H13S18348   3.071   0.535   3.503  1.3311  0.4512 -1.0569
  163OSM   H13T18349   3.079   0.701   3.555 -0.1004 -0.0595  0.7598
  163OSM   C14S18350   3.172   0.570   3.701 -0.3474  0.3587 -0.0159
  163OSM   H14S18351   3.250   0.636   3.745  0.4374  0.1519 -1.0536
  163OSM   H14T18352   3.229   0.475   3.712 -0.9047 -0.0199 -0.3921
  163OSM   C15S18353   3.058   0.565   3.804  0.5494  0.4594  0.0597
  163OSM   H15S18354   2.980   0.498   3.765  1.2712 -1.0676  1.1052
  163OSM   H15T18355   3.017   0.668   3.816 -0.5863  0.1218 -0.8171
  163OSM   C16S18356   3.101   0.522   3.948 -0.3390  0.7707  0.2098
  163OSM   H16S18357   3.148   0.421   3.949  1.7258  1.6609 -0.8477
  163OSM   H16T18358   3.009   0.523   4.010 -0.8225  1.4724 -0.4891
  163OSM   C17S18359   3.211   0.608   4.013  0.1294  0.6031  0.0605
  163OSM   H17S18360   3.190   0.717   4.012 -1.0524  0.5028  2.8246
  163OSM   H17T18361   3.300   0.594   3.949 -1.6520 -1.9883 -2.0669
  163OSM   C18S18362   3.235   0.585   4.162 -0.6089 -0.3648  0.3181
  163OSM   H18S18363   3.135   0.585   4.211 -1.7926 -0.7994 -1.9556
  163OSM   H18T18364   3.305   0.658   4.208  0.2021  0.1098 -1.5721
  163OSM   H18U18365   3.272   0.488   4.201 -2.2072 -1.1810 -0.1237
  163OSM    C1F18366   2.807   0.992   2.470  0.3011  0.1338 -0.0308
  163OSM     OF18367   2.705   0.959   2.408  0.3234  0.6577 -0.1291
  163OSM    C2F18368   2.792   1.113   2.560  0.4681  0.9994  0.5046
  163OSM    H2F18369   2.713   1.171   2.507 -1.1657 -0.3779  1.3356
  163OSM    H2G18370   2.883   1.176   2.569  1.6219 -0.5149 -0.0959
  163OSM    C3F18371   2.741   1.066   2.698  0.4514 -0.1673 -0.3451
  163OSM    H3F18372   2.810   1.015   2.768  0.0802  0.8692  0.8118
  163OSM    H3G18373   2.654   0.997   2.692  0.2905 -0.0411  0.3820
  163OSM    C4F18374   2.712   1.205   2.778  0.1639 -0.2358  0.0345
  163OSM    H4F18375   2.656   1.175   2.869 -1.0410 -1.6605 -1.1307
  163OSM    H4G18376   2.652   1.280   2.723  1.4873 -0.0748 -1.2374
  163OSM    C5F18377   2.838   1.278   2.827  0.1087  0.2018  0.2685
  163OSM    H5F18378   2.839   1.378   2.779  0.0777  0.6694  1.2244
  163OSM    H5G18379   2.928   1.224   2.790  0.1520 -0.0685  0.7683
  163OSM    C6F18380   2.846   1.296   2.972  0.2544 -0.4062 -0.2805
  163OSM    H6F18381   2.745   1.329   3.005  0.3578  0.9230 -1.2297
  163OSM    H6G18382   2.923   1.372   2.999 -0.1571 -0.0121 -0.2040
  163OSM    C7F18383   2.887   1.174   3.046 -0.4714  0.9776  0.0057
  163OSM    H7F18384   2.996   1.172   3.025 -0.3428 -2.2822  0.4171
  163OSM    H7G18385   2.846   1.083   2.996  0.4078  1.2062 -1.1833
  163OSM    C8F18386   2.858   1.194   3.188  0.0417 -0.3429 -0.3105
  163OSM    H8F18387   2.749   1.214   3.203 -0.1479 -1.4442 -0.1049
  163OSM    H8G18388   2.912   1.283   3.226  0.7292 -0.7371 -0.3606
  163OSM    C9F18389   2.913   1.073   3.259  0.2473 -0.3154 -0.4384
  163OSM    H9F18390   3.005   1.025   3.222 -0.0672 -1.1973 -0.1218
  163OSM   C10F18391   2.863   1.012   3.371  0.5183 -0.6791  0.0760
  163OSM   H10F18392   2.899   0.916   3.410 -0.2461 -0.8110  0.4709
  163OSM   C11F18393   2.748   1.067   3.453 -0.0403  0.2729  0.1877
  163OSM   H11F18394   2.662   0.999   3.437  0.0783  0.6934 -2.8369
  163OSM   H11G18395   2.710   1.160   3.406  2.3944  0.7500 -1.0435
  163OSM   C12F18396   2.781   1.078   3.602  0.3211 -0.0495  0.2521
  163OSM   H12F18397   2.869   1.146   3.600  0.1932  0.1205  0.4262
  163OSM   H12G18398   2.820   0.981   3.642 -1.6339 -1.3398 -0.8065
  163OSM   C13F18399   2.674   1.132   3.688 -0.0393  0.4099  0.8108
  163OSM   H13F18400   2.585   1.066   3.684 -0.5339  1.1169 -2.7793
  163OSM   H13G18401   2.632   1.227   3.648 -0.4110  0.6210  1.6846
  163OSM   C14F18402   2.714   1.152   3.835 -0.3066  0.1210 -0.2877
  163OSM   H14F18403   2.805   1.214   3.843 -1.4784  1.7455  1.3791
  163OSM   H14G18404   2.746   1.051   3.870 -1.2872  0.4452  1.6989
  163OSM   C15F18405   2.594   1.206   3.925  0.3752 -0.4845  0.3013
  163OSM   H15F18406   2.569   1.305   3.883  0.1959 -0.3726  0.6715
  163OSM   H15G18407   2.631   1.224   4.029  5.1314  3.3255 -1.6598
  163OSM   C16F18408   2.468   1.110   3.938  0.0168 -0.5608 -0.3091
  163OSM   H16F18409   2.429   1.084   3.838 -0.9900  0.4185 -0.1886
  163OSM   H16G18410   2.376   1.149   3.987 -0.3326 -1.3372 -0.3275
  163OSM   C17F18411   2.507   0.983   4.011 -0.2776 -0.1321 -0.2794
  163OSM   H17F18412   2.554   1.008   4.108 -0.5681  1.0821 -0.4410
  163OSM   H17G18413   2.587   0.925   3.959 -0.2796 -1.3093  0.9717
  163OSM   C18F18414   2.389   0.890   4.046  0.2408 -1.1911 -0.0725
  163OSM   H18F18415   2.336   0.942   4.129  1.7755  1.3439 -0.5730
  163OSM   H18G18416   2.430   0.793   4.081  0.7570 -1.8062 -2.2343
  163OSM   H18H18417   2.318   0.881   3.960 -1.6283 -1.8410  1.4689
  164OSM      N18418   1.119   1.820   2.073 -0.2033  0.0345 -0.4889
  164OSM    C1518419   1.217   1.714   2.042 -0.1279 -0.1619 -0.3430
  164OSM   H15A18420   1.177   1.615   2.056 -0.1829 -0.2588 -1.1694
  164OSM   H15B18421   1.309   1.716   2.099 -0.1483 -0.0620 -0.3137
  164OSM   H15C18422   1.254   1.726   1.941 -1.0042  2.5253 -0.4184
  164OSM    C1418423   1.162   1.954   2.018 -0.4930  0.2780  0.2331
  164OSM   H14A18424   1.169   1.940   1.911 -1.3155  0.0350  0.2044
  164OSM   H14B18425   1.254   2.000   2.050 -0.0408  1.5495 -2.6235
  164OSM   H14C18426   1.089   2.034   2.031 -1.0250  0.6702 -3.9169
  164OSM    C1318427   0.992   1.779   2.009  0.3388  0.4285  0.7826
  164OSM   H13A18428   0.991   1.775   1.901 -0.0905 -0.9205  0.8128
  164OSM   H13B18429   0.913   1.846   2.039  0.0259  1.4278 -1.9704
  164OSM   H13C18430   0.959   1.681   2.039  2.0198  0.3681  2.6353
  164OSM    C1218431   1.092   1.829   2.226  0.5729  0.2724  0.3679
  164OSM   H12A18432   1.039   1.740   2.258 -1.1538  1.1685  0.1301
  164OSM   H12B18433   1.024   1.912   2.233 -0.7882 -0.7561 -0.0559
  164OSM    C1118434   1.210   1.869   2.323  0.0461  0.0708  0.0456
  164OSM   H11A18435   1.303   1.837   2.272 -0.3118 -0.3783 -0.3345
  164OSM   H11B18436   1.221   1.830   2.426  3.5653  0.6112 -0.0022
  164OSM      P18437   1.111   2.108   2.378  0.2433 -0.3976  0.4091
  164OSM    O1318438   1.177   2.226   2.430  0.0064  0.2551 -0.3944
  164OSM    O1418439   1.007   2.127   2.272 -0.2391  0.4097  0.0457
  164OSM    O1118440   1.048   2.036   2.507 -0.3250  0.1601 -0.0250
  164OSM    O1218441   1.219   2.005   2.325 -0.0051 -0.4525  0.5838
  164OSM    C1S18442   0.909   2.013   2.521 -0.6881 -0.6639  0.4956
  164OSM    H1S18443   0.891   1.914   2.475 -0.9669 -0.6022  0.4738
  164OSM    H1T18444   0.839   2.077   2.464  0.8904 -0.2458 -1.0613
  164OSM     NF18445   0.756   1.949   2.697  0.2115  0.6484  0.2183
  164OSM    HNF18446   0.680   2.014   2.695  0.1168  0.5192 -0.4520
  164OSM    C2S18447   0.877   2.013   2.678 -0.0598 -0.0162 -0.2834
  164OSM    H2S18448   0.959   1.949   2.717 -1.3706 -2.4999 -1.4038
  164OSM    C3S18449   0.889   2.155   2.743  0.2362  0.3577  0.8155
  164OSM    H3S18450   0.799   2.211   2.711 -0.5278 -0.5090  1.4020
  164OSM     O318451   0.996   2.240   2.699 -0.1484 -0.2417 -0.0077
  164OSM    HO318452   1.028   2.205   2.616 -1.2303 -0.6611 -0.2697
  164OSM    C4S18453   0.883   2.144   2.891 -0.6889  0.2356  1.1053
  164OSM    H4S18454   0.782   2.122   2.930 -0.3000 -2.3812  0.7689
  164OSM    C5S18455   0.978   2.150   2.979  0.2653 -1.0173  0.0738
  164OSM    H5S18456   1.082   2.170   2.948  0.0736  1.7699  0.9708
  164OSM    C6S18457   0.955   2.145   3.131  0.9174  0.3854  0.4658
  164OSM    H6S18458   1.023   2.218   3.180 -0.8288  0.8428  2.3794
  164OSM    H6T18459   0.990   2.047   3.168 -0.2873 -0.8383 -1.4278
  164OSM    C7S18460   0.813   2.184   3.179 -0.3314  0.8862  0.8570
  164OSM    H7S18461   0.736   2.105   3.163  0.0470  0.6208  0.2977
  164OSM    H7T18462   0.765   2.276   3.140 -1.9152 -0.2777 -0.1028
  164OSM    C8S18463   0.822   2.203   3.332 -0.3066 -1.1002  0.1973
  164OSM    H8S18464   0.877   2.296   3.358 -2.1785  0.1148 -0.0245
  164OSM    H8T18465   0.876   2.123   3.386 -0.8160  0.6111  3.4921
  164OSM    C9S18466   0.687   2.202   3.401  0.2953 -0.3096  0.1963
  164OSM    H9S18467   0.650   2.104   3.365  0.4235 -1.1316  2.1770
  164OSM    H9T18468   0.620   2.285   3.370  1.1051 -0.1635 -1.2533
  164OSM   C10S18469   0.699   2.171   3.552  0.5959 -0.1284 -0.2613
  164OSM   H10S18470   0.769   2.089   3.577 -0.6047 -0.3962  2.5109
  164OSM   H10T18471   0.602   2.127   3.579 -0.3560  0.8820 -1.8446
  164OSM   C11S18472   0.742   2.290   3.634  0.4331  0.0489  0.4834
  164OSM   H11S18473   0.670   2.370   3.611  0.1302 -0.1056  0.8857
  164OSM   H11T18474   0.843   2.321   3.601 -0.2024  0.9247 -0.6840
  164OSM   C12S18475   0.749   2.257   3.785  0.7176 -0.1639 -0.1466
  164OSM   H12S18476   0.795   2.156   3.794 -1.1531 -0.8575  3.2060
  164OSM   H12T18477   0.648   2.242   3.829  0.3421 -0.9017 -1.2062
  164OSM   C13S18478   0.839   2.357   3.857  0.3689 -0.3837 -0.0094
  164OSM   H13S18479   0.780   2.451   3.855  0.1438 -0.4867  1.0844
  164OSM   H13T18480   0.934   2.383   3.804  2.7414 -1.8886  3.2053
  164OSM   C14S18481   0.882   2.324   4.002 -0.0381 -0.4402  0.3691
  164OSM   H14S18482   0.938   2.228   3.995 -1.0582 -0.9745 -0.9313
  164OSM   H14T18483   0.806   2.290   4.076  0.9461  0.6673  1.9508
  164OSM   C15S18484   0.970   2.432   4.069 -0.5103 -0.2099  0.3291
  164OSM   H15S18485   0.926   2.528   4.035  1.1420 -0.4176 -2.7567
  164OSM   H15T18486   1.068   2.425   4.017 -0.7190 -1.2579  0.0628
  164OSM   C16S18487   0.976   2.431   4.220 -0.1380 -0.0290  0.3156
  164OSM   H16S18488   0.875   2.453   4.260 -1.1302 -0.6392 -1.6990
  164OSM   H16T18489   1.052   2.503   4.257  0.8073 -0.5126 -0.6189
  164OSM   C17S18490   1.029   2.301   4.284  0.0762 -0.0083  0.0762
  164OSM   H17S18491   1.129   2.279   4.239  1.0747  0.1900  2.0676
  164OSM   H17T18492   0.971   2.209   4.262 -0.8114  1.0337 -2.0875
  164OSM   C18S18493   1.037   2.308   4.433 -0.6757  0.1964  0.2603
  164OSM   H18S18494   1.044   2.212   4.489 -0.3382 -0.1616 -0.3862
  164OSM   H18T18495   0.966   2.377   4.485 -1.1111  0.6865 -0.9595
  164OSM   H18U18496   1.128   2.365   4.461  0.4323 -2.0595  1.4887
  164OSM    C1F18497   0.727   1.817   2.685  0.1780  0.1786  0.0451
  164OSM     OF18498   0.810   1.737   2.640  0.4560  0.7703 -0.0750
  164OSM    C2F18499   0.584   1.787   2.709  0.0934 -0.2946 -0.4248
  164OSM    H2F18500   0.545   1.729   2.622  0.5822 -1.2110 -0.0452
  164OSM    H2G18501   0.528   1.883   2.699  1.3133  0.4398 -0.3082
  164OSM    C3F18502   0.560   1.713   2.844 -0.7465  0.0455  0.3111
  164OSM    H3F18503   0.600   1.610   2.843  0.1364  0.3765  0.6800
  164OSM    H3G18504   0.452   1.685   2.847 -1.0387  1.0887 -0.0375
  164OSM    C4F18505   0.599   1.794   2.968 -0.9772 -0.4442  0.2061
  164OSM    H4F18506   0.542   1.889   2.976 -1.7449 -1.0027  1.6620
  164OSM    H4G18507   0.710   1.800   2.977 -1.1118  0.0300  2.0535
  164OSM    C5F18508   0.556   1.722   3.097 -0.0196  0.4743  0.0524
  164OSM    H5F18509   0.619   1.632   3.115 -0.7850  0.0580  0.7302
  164OSM    H5G18510   0.457   1.676   3.072 -0.1499  0.7552  0.0523
  164OSM    C6F18511   0.543   1.812   3.227 -0.5937  0.2010  0.2663
  164OSM    H6F18512   0.472   1.893   3.201 -1.4784 -1.0334 -1.3577
  164OSM    H6G18513   0.643   1.853   3.252  0.2857 -2.6928  2.0401
  164OSM    C7F18514   0.470   1.739   3.337  0.2118 -0.6515 -0.2477
  164OSM    H7F18515   0.527   1.647   3.360  0.6008 -0.0433  1.3683
  164OSM    H7G18516   0.363   1.718   3.314 -0.4833  2.5772 -0.4158
  164OSM    C8F18517   0.479   1.818   3.466  0.7520 -0.1692 -0.0639
  164OSM    H8F18518   0.433   1.919   3.459  0.6611 -0.2563 -0.7500
  164OSM    H8G18519   0.585   1.846   3.487  0.5105  1.9307 -1.4632
  164OSM    C9F18520   0.412   1.743   3.574 -0.0863 -0.1752 -0.4055
  164OSM    H9F18521   0.304   1.728   3.557 -0.1977  1.1334 -0.9403
  164OSM   C10F18522   0.478   1.675   3.671  0.7320 -0.1730  0.6420
  164OSM   H10F18523   0.425   1.627   3.754 -0.1825 -1.0112 -0.4035
  164OSM   C11F18524   0.623   1.699   3.698  0.3010  0.0331 -0.0761
  164OSM   H11F18525   0.685   1.709   3.606  0.3988  1.1854  0.0971
  164OSM   H11G18526   0.662   1.619   3.763 -3.8003  0.1463  2.9465
  164OSM   C12F18527   0.653   1.827   3.782  0.4814  0.3307 -0.2300
  164OSM   H12F18528   0.607   1.923   3.748  1.6236  1.8425  2.1952
  164OSM   H12G18529   0.762   1.845   3.769  0.2831  1.2212 -0.7957
  164OSM   C13F18530   0.639   1.812   3.933 -0.3784 -0.2610 -0.0603
  164OSM   H13F18531   0.710   1.734   3.968  0.2353  0.7927  1.1035
  164OSM   H13G18532   0.534   1.783   3.953 -0.9335  2.5130  1.5131
  164OSM   C14F18533   0.677   1.934   4.014 -0.5864 -0.0566  0.4815
  164OSM   H14F18534   0.612   2.018   3.981  1.1991  1.2800  0.2000
  164OSM   H14G18535   0.783   1.959   3.991 -0.5871 -1.4086 -1.1854
  164OSM   C15F18536   0.651   1.921   4.166  0.4957 -0.2862  0.8855
  164OSM   H15F18537   0.687   1.821   4.199  1.6921 -0.1592  0.0171
  164OSM   H15G18538   0.540   1.912   4.167  0.6528 -4.2284  0.1428
  164OSM   C16F18539   0.696   2.032   4.259 -0.2892  0.4116  0.1865
  164OSM   H16F18540   0.694   2.130   4.208  0.4552  0.4020  0.1396
  164OSM   H16G18541   0.804   2.019   4.282 -0.9957 -0.3485  3.6248
  164OSM   C17F18542   0.629   2.036   4.390  0.0669  0.2887 -0.1347
  164OSM   H17F18543   0.660   1.952   4.455  0.1729  0.5103  0.1060
  164OSM   H17G18544   0.519   2.030   4.387  0.0797 -3.8418  1.6900
  164OSM   C18F18545   0.663   2.174   4.462 -0.7742  0.2307 -0.5666
  164OSM   H18F18546   0.614   2.188   4.561  0.3053 -0.7656  0.1492
  164OSM   H18G18547   0.634   2.254   4.392  0.9779  0.6445 -0.8544
  164OSM   H18H18548   0.772   2.194   4.463 -0.7672  0.2462 -1.2720
  165SAPS     N18549   3.585   4.869   6.624  0.8420  0.0491 -1.1292
  165SAPS   HN118550   3.522   4.787   6.638  2.1502 -0.5766  1.6390
  165SAPS   HN218551   3.578   4.922   6.713 -0.0482 -2.7431  0.6234
  165SAPS   HN318552   3.568   4.921   6.536  1.0629  0.0574 -1.1648
  165SAPS   C1218553   3.728   4.829   6.621  0.2126  0.0483 -0.0490
  165SAPS  H12A18554   3.781   4.919   6.593  1.4428 -0.6089  0.1252
  165SAPS   C1318555   3.783   4.784   6.758 -0.5872  0.6555 -0.2702
  165SAPS  O13A18556   3.720   4.792   6.865 -0.4522  0.3582 -0.0719
  165SAPS  O13B18557   3.908   4.758   6.765 -0.3283 -0.3810  0.2037
  165SAPS   C1118558   3.743   4.715   6.525  0.2345 -0.0308 -0.1543
  165SAPS  H11A18559   3.693   4.620   6.555  1.5647 -0.3086  1.3271
  165SAPS  H11B18560   3.849   4.683   6.518 -0.6215 -3.0100 -0.5779
  165SAPS     P18561   3.767   4.822   6.288  0.1568  0.2072  0.0902
  165SAPS   O1318562   3.669   4.886   6.198  0.2165  0.8101 -0.1781
  165SAPS   O1418563   3.865   4.913   6.360 -0.2175  0.0034 -0.0861
  165SAPS   O1218564   3.680   4.742   6.399  0.5435 -0.6614 -0.3005
  165SAPS   O1118565   3.837   4.705   6.213 -0.4228  0.3607  0.3791
  165SAPS    C118566   3.775   4.636   6.100  0.0281 -0.2056  0.4766
  165SAPS    HA18567   3.665   4.645   6.114  0.3314  0.2986  3.1162
  165SAPS    HB18568   3.797   4.685   6.003 -0.5238 -3.3566 -1.3980
  165SAPS    C218569   3.795   4.488   6.105  0.0039 -0.8681  0.3647
  165SAPS    HS18570   3.776   4.455   6.210  1.4358 -2.0581  0.2702
  165SAPS   O2118571   3.928   4.461   6.063 -0.1825 -0.8427 -0.3038
  165SAPS   C2118572   3.980   4.339   6.079 -0.3036 -0.9230 -0.4221
  165SAPS   O2218573   3.923   4.247   6.138 -0.8577 -0.0371  0.1498
  165SAPS   C2218574   4.118   4.339   6.017  0.0826  0.7114 -0.5644
  165SAPS   H2R18575   4.120   4.289   5.918 -0.6375 -0.3791 -0.0411
  165SAPS   H2S18576   4.139   4.448   6.004  0.1801  0.9991  1.6761
  165SAPS    C318577   3.696   4.418   6.005  0.2290 -0.1186  0.5056
  165SAPS    HX18578   3.598   4.426   6.056 -0.9425  0.5963 -1.7070
  165SAPS    HY18579   3.716   4.309   6.002 -3.4048 -0.9279  1.1167
  165SAPS   O3118580   3.676   4.486   5.877 -0.1530 -0.7890  0.8251
  165SAPS   C3118581   3.754   4.437   5.780 -0.0389 -0.2007 -0.3087
  165SAPS   O3218582   3.833   4.344   5.786 -0.0004 -0.3941 -0.6473
  165SAPS   C3218583   3.725   4.516   5.657 -0.1094  0.2133  0.0836
  165SAPS   H2X18584   3.776   4.613   5.678  1.2909 -0.5481  0.2894
  165SAPS   H2Y18585   3.617   4.522   5.633 -0.0248  1.5436 -0.0630
  165SAPS   C2318586   4.212   4.258   6.107  0.3643 -0.2134 -0.5798
  165SAPS   H3R18587   4.189   4.150   6.104 -0.2055 -0.2300  2.0760
  165SAPS   H3S18588   4.199   4.295   6.212 -0.2421  2.4089 -1.4929
  165SAPS   C2418589   4.361   4.264   6.076  0.0184 -0.4576 -0.1201
  165SAPS   H4R18590   4.375   4.248   5.967 -2.1344  3.4847 -1.1817
  165SAPS   H4S18591   4.410   4.173   6.117  0.0608 -1.0061 -1.3531
  165SAPS   C2518592   4.426   4.387   6.130 -0.0868 -0.2084 -0.1849
  165SAPS   H5R18593   4.385   4.424   6.224  0.6675  1.9007 -0.6246
  165SAPS   C2618594   4.518   4.466   6.066 -0.4183  0.3073  0.1731
  165SAPS   H6R18595   4.564   4.541   6.133  1.2208 -0.4373 -0.0753
  165SAPS   C2718596   4.593   4.444   5.940 -0.1348  0.0777 -0.8705
  165SAPS   H7R18597   4.558   4.347   5.899 -2.4713 -0.1050  1.3089
  165SAPS   H7S18598   4.698   4.433   5.973  0.2370  3.0202 -0.8087
  165SAPS   C2818599   4.580   4.550   5.833  0.3899  0.0690  0.1286
  165SAPS   H8R18600   4.670   4.613   5.825 -0.9085  1.7380 -2.7422
  165SAPS   C2918601   4.493   4.532   5.728  0.1214  0.1207 -0.1074
  165SAPS   H9R18602   4.505   4.608   5.649  1.8769 -0.0316 -0.0293
  165SAPS  C21018603   4.370   4.439   5.718  0.2144 -0.0223 -0.3249
  165SAPS  H10R18604   4.349   4.393   5.817 -2.8304 -2.4392 -1.9171
  165SAPS  H10S18605   4.411   4.354   5.658  1.4384  0.4305 -0.1552
  165SAPS  C21118606   4.248   4.514   5.665  0.0908  0.9310  0.1886
  165SAPS  H11R18607   4.214   4.595   5.731  1.8846  0.7333  1.4370
  165SAPS  C21218608   4.193   4.500   5.549  0.9183 -0.0627  0.4281
  165SAPS  H12R18609   4.111   4.566   5.518  1.2514 -0.5141 -1.5148
  165SAPS  C21318610   4.219   4.397   5.445 -0.8126 -0.1661  0.7877
  165SAPS  H13R18611   4.124   4.377   5.391  0.4452 -2.3489 -0.7421
  165SAPS  H13S18612   4.241   4.298   5.491 -1.7118 -0.7864 -0.0840
  165SAPS  C21418613   4.326   4.442   5.344  0.7937 -0.5031 -0.9217
  165SAPS  H14R18614   4.429   4.412   5.367  1.0990  0.7014 -0.6631
  165SAPS  C21518615   4.298   4.480   5.218  0.4880  0.2929 -0.4327
  165SAPS  H15R18616   4.383   4.513   5.156  1.6981  1.2075  1.6013
  165SAPS  C21618617   4.160   4.503   5.166  0.2782  0.1871 -0.6373
  165SAPS  H16R18618   4.095   4.556   5.238  0.3255  1.7838 -1.7195
  165SAPS  H16S18619   4.107   4.405   5.162  1.1568 -0.3098 -0.4297
  165SAPS  C21718620   4.145   4.576   5.028 -0.3105 -0.4272 -0.0177
  165SAPS  H17R18621   4.241   4.575   4.973  1.2698  0.5346  2.5125
  165SAPS  H17S18622   4.127   4.684   5.047  0.6184 -0.0167 -1.3474
  165SAPS  C21818623   4.011   4.540   4.961 -0.1794  0.2189 -0.3818
  165SAPS  H18R18624   3.988   4.620   4.887 -1.3621  1.0984  0.8845
  165SAPS  H18S18625   3.937   4.523   5.042  0.3814  0.6928  0.2500
  165SAPS  C21918626   4.015   4.409   4.887 -0.3265  0.3992  0.1353
  165SAPS  H19R18627   4.015   4.323   4.957  1.0962 -1.0831 -1.5986
  165SAPS  H19S18628   4.112   4.394   4.835  1.1954 -0.9872  3.1297
  165SAPS  C22018629   3.912   4.408   4.771  0.4868  0.8112 -0.2620
  165SAPS  H20R18630   3.924   4.486   4.693 -1.8642  1.1739 -0.3282
  165SAPS  H20S18631   3.807   4.413   4.807  0.3059  1.6186 -0.8773
  165SAPS  H20T18632   3.932   4.309   4.724  0.5148  0.8081 -0.2439
  165SAPS   C3318633   3.810   4.457   5.533 -0.0227  0.6843 -0.9687
  165SAPS   H3X18634   3.767   4.356   5.518 -0.8338  0.1668  3.3218
  165SAPS   H3Y18635   3.918   4.457   5.557  0.3181  0.0314 -2.4026
  165SAPS   C3418636   3.795   4.538   5.403  0.0434  0.3513  0.7146
  165SAPS   H4X18637   3.887   4.517   5.344 -0.6362 -0.6454 -0.0405
  165SAPS   H4Y18638   3.809   4.646   5.424 -1.3072  0.6713  0.0742
  165SAPS   C3518639   3.659   4.512   5.334 -0.4089  0.4197 -0.1072
  165SAPS   H5X18640   3.573   4.550   5.393 -1.4085  0.8105 -1.7393
  165SAPS   H5Y18641   3.643   4.403   5.318  1.1328  0.4075 -1.8956
  165SAPS   C3618642   3.658   4.588   5.200  0.3246  0.4791 -0.3132
  165SAPS   H6X18643   3.760   4.606   5.159  0.9276  0.1056  0.9583
  165SAPS   H6Y18644   3.613   4.687   5.219 -2.5872 -1.4143  4.2118
  165SAPS   C3718645   3.585   4.517   5.085  0.6304  0.4802 -0.4727
  165SAPS   H7X18646   3.482   4.490   5.117  0.0540  2.4615 -0.5364
  165SAPS   H7Y18647   3.640   4.425   5.053 -0.4474  0.5187 -2.6136
  165SAPS   C3818648   3.578   4.603   4.960  0.2352  0.6199  0.7707
  165SAPS   H8X18649   3.682   4.636   4.943  0.3194  0.2589  0.5660
  165SAPS   H8Y18650   3.510   4.685   4.991  1.9299  1.5409  2.2005
  165SAPS   C3918651   3.533   4.518   4.845 -0.5626  0.0408 -0.1194
  165SAPS   H9X18652   3.425   4.491   4.855 -0.4872  0.1919  1.3238
  165SAPS   H9Y18653   3.591   4.424   4.835 -0.2432  0.2414 -0.1705
  165SAPS  C31018654   3.539   4.602   4.709 -0.0842 -0.2060  0.0448
  165SAPS  H10X18655   3.647   4.619   4.692  0.0981 -2.2743 -1.2378
  165SAPS  H10Y18656   3.490   4.699   4.732 -1.2121 -1.1948  2.1702
  165SAPS  C31118657   3.481   4.515   4.598 -0.6656 -0.3586 -0.3734
  165SAPS  H11X18658   3.373   4.530   4.614 -0.8458  0.0505 -1.7884
  165SAPS  H11Y18659   3.506   4.407   4.607 -0.8341 -0.6784 -2.9347
  165SAPS  C31218660   3.497   4.557   4.453  0.1046 -0.0595  0.1318
  165SAPS  H12X18661   3.592   4.515   4.414 -1.0767 -0.0152 -3.0256
  165SAPS  H12Y18662   3.515   4.666   4.441  1.9152 -0.2564  0.8013
  165SAPS  C31318663   3.372   4.515   4.370 -1.0595  0.5357 -0.2216
  165SAPS  H13X18664   3.384   4.567   4.272  0.7614 -0.6562 -0.6752
  165SAPS  H13Y18665   3.277   4.540   4.422 -2.3322 -1.9037 -1.1773
  165SAPS  C31418666   3.364   4.366   4.340  1.1415 -0.0025  0.4593
  165SAPS  H14X18667   3.364   4.304   4.432  2.2654  0.9218  1.1158
  165SAPS  H14Y18668   3.444   4.323   4.276 -0.2023 -1.8538 -0.0410
  165SAPS  C31518669   3.241   4.328   4.263  0.4593  0.0359  0.6215
  165SAPS  H15X18670   3.150   4.342   4.325 -0.4044  0.1655 -0.6151
  165SAPS  H15Y18671   3.245   4.222   4.231  0.8531 -0.8658  3.4339
  165SAPS  C31618672   3.225   4.403   4.129  0.7030  0.6202  0.0333
  165SAPS  H16X18673   3.323   4.396   4.078  0.6282 -0.4309  0.0145
  165SAPS  H16Y18674   3.201   4.511   4.145  1.3071  0.7674 -0.0316
  165SAPS  C31718675   3.121   4.349   4.021  0.1072  0.5467 -0.3181
  165SAPS  H17X18676   3.021   4.382   4.055 -1.0696 -1.7743 -1.2548
  165SAPS  H17Y18677   3.116   4.238   4.024  1.8491  0.4563  2.0496
  165SAPS  C31818678   3.147   4.388   3.876 -0.1911  0.4122 -0.2034
  165SAPS  H18X18679   3.144   4.499   3.863 -2.0098  0.8043  2.6869
  165SAPS  H18Y18680   3.075   4.349   3.802 -1.2607  2.6357 -0.4224
  165SAPS  H18Z18681   3.247   4.352   3.842 -0.6049  1.0809 -2.2703
  166SAPS     N18682   2.914   4.555   6.652  0.2018 -0.1868 -0.3595
  166SAPS   HN118683   2.896   4.461   6.611 -0.8560  1.2084 -3.3312
  166SAPS   HN218684   2.827   4.611   6.636 -0.3348 -1.4131 -2.0477
  166SAPS   HN318685   3.000   4.599   6.613 -0.1402  1.3397  0.5108
  166SAPS   C1218686   2.958   4.556   6.796 -0.7002 -0.0541 -0.1968
  166SAPS  H12A18687   2.960   4.659   6.828 -1.5462  0.6939 -2.3936
  166SAPS   C1318688   2.858   4.489   6.889  0.2935  0.2449  0.3804
  166SAPS  O13A18689   2.771   4.413   6.837  0.0194  0.3066  0.2245
  166SAPS  O13B18690   2.887   4.494   7.010 -0.1217  0.1631  0.3477
  166SAPS   C1118691   3.101   4.513   6.795 -0.0744  0.7415 -0.5630
  166SAPS  H11A18692   3.119   4.409   6.761  0.8875  1.1840 -1.4857
  166SAPS  H11B18693   3.137   4.514   6.900  0.8846 -0.7714 -0.8440
  166SAPS     P18694   3.342   4.556   6.702  0.0352 -0.2524  0.0179
  166SAPS   O1318695   3.416   4.674   6.655 -0.4592 -0.6338  1.2914
  166SAPS   O1418696   3.384   4.501   6.836  0.2343 -1.0891 -0.1791
  166SAPS   O1218697   3.185   4.596   6.713 -0.7024 -0.1594 -0.0891
  166SAPS   O1118698   3.349   4.441   6.591  0.0237  0.1192 -0.2810
  166SAPS    C118699   3.253   4.429   6.487 -0.0975  0.1583 -0.2425
  166SAPS    HA18700   3.255   4.323   6.453 -1.5627 -0.3793  1.2493
  166SAPS    HB18701   3.151   4.435   6.529  0.1102 -0.5583  0.3773
  166SAPS    C218702   3.278   4.534   6.367  0.3125  0.1420 -0.2373
  166SAPS    HS18703   3.302   4.633   6.410  0.8260  0.7201 -1.7891
  166SAPS   O2118704   3.167   4.547   6.275  0.3141  0.1870  0.0765
  166SAPS   C2118705   3.062   4.607   6.335 -0.2216 -0.0329  0.6305
  166SAPS   O2218706   3.064   4.657   6.444  0.1538 -0.5735 -0.3188
  166SAPS   C2218707   2.952   4.626   6.224 -0.3860 -0.5971 -0.6539
  166SAPS   H2R18708   2.956   4.531   6.166 -0.9306 -1.4608  0.6857
  166SAPS   H2S18709   2.856   4.603   6.274  0.1861 -1.8901 -0.0956
  166SAPS    C318710   3.409   4.505   6.289  0.0527 -0.0969 -0.2048
  166SAPS    HX18711   3.391   4.402   6.251  0.1219 -1.0366  2.1167
  166SAPS    HY18712   3.486   4.504   6.369 -0.6089  1.4327  0.4835
  166SAPS   O3118713   3.439   4.599   6.190 -0.5241 -0.4865  0.0622
  166SAPS   C3118714   3.380   4.581   6.075  0.3242 -0.0114  0.3286
  166SAPS   O3218715   3.339   4.473   6.033 -0.3120  0.3027  0.3817
  166SAPS   C3218716   3.378   4.711   5.993  0.1721 -0.3370 -0.7378
  166SAPS   H2X18717   3.472   4.769   6.002 -0.0352 -0.1451  0.1967
  166SAPS   H2Y18718   3.291   4.773   6.022  1.0457  2.5161 -3.6005
  166SAPS   C2318719   2.947   4.768   6.158  0.2018  0.4731  0.2859
  166SAPS   H3R18720   3.020   4.773   6.074  0.1263  0.2747  0.2088
  166SAPS   H3S18721   2.980   4.849   6.227  2.4606 -1.3665  1.4893
  166SAPS   C2418722   2.800   4.795   6.125 -0.1787 -0.0636  0.2764
  166SAPS   H4R18723   2.790   4.887   6.064  1.0371 -0.1321 -0.0610
  166SAPS   H4S18724   2.741   4.823   6.215  0.4620 -0.2322  0.7617
  166SAPS   C2518725   2.731   4.686   6.046 -0.4158  0.3806 -0.1664
  166SAPS   H5R18726   2.763   4.582   6.063 -0.1542  0.4272 -0.3824
  166SAPS   C2618727   2.622   4.705   5.964  0.7360  0.1815 -0.9835
  166SAPS   H6R18728   2.562   4.623   5.921 -0.4723  0.1047  0.7056
  166SAPS   C2718729   2.555   4.837   5.961 -0.1410  0.0836  0.3741
  166SAPS   H7R18730   2.622   4.896   5.895  0.2756  0.0024  0.7210
  166SAPS   H7S18731   2.559   4.897   6.054  2.0093  0.1606  0.2819
  166SAPS   C2818732   2.417   4.850   5.905  0.3686  0.6801 -0.3500
  166SAPS   H8R18733   2.334   4.852   5.978  0.8568  2.0164  0.2074
  166SAPS   C2918734   2.371   4.846   5.776 -0.6539 -0.2251 -0.5453
  166SAPS   H9R18735   2.261   4.845   5.768 -0.5661 -0.4550 -1.9566
  166SAPS  C21018736   2.452   4.832   5.649  0.4051 -0.1059 -0.1132
  166SAPS  H10R18737   2.531   4.758   5.672 -0.5677 -0.9772  0.4951
  166SAPS  H10S18738   2.504   4.930   5.641 -2.0359  1.2536 -0.2398
  166SAPS  C21118739   2.362   4.800   5.532 -0.3779  0.5013 -0.4323
  166SAPS  H11R18740   2.302   4.711   5.554 -0.9653  1.2976  1.3991
  166SAPS  C21218741   2.342   4.872   5.424 -0.2803  0.3791  0.5499
  166SAPS  H12R18742   2.285   4.822   5.344  1.4931 -0.0958 -0.4679
  166SAPS  C21318743   2.399   5.004   5.384 -0.3105  0.4315 -0.3899
  166SAPS  H13R18744   2.444   4.988   5.283  0.4293  1.5009 -0.2434
  166SAPS  H13S18745   2.479   5.045   5.448 -0.5569 -0.4385  0.4956
  166SAPS  C21418746   2.286   5.105   5.368 -0.1249 -1.0976 -0.6777
  166SAPS  H14R18747   2.249   5.152   5.460  1.3614 -1.6902  0.2436
  166SAPS  C21518748   2.225   5.139   5.251 -0.0249 -0.0659  0.2535
  166SAPS  H15R18749   2.143   5.212   5.243 -0.8886 -0.9363  0.8019
  166SAPS  C21618750   2.268   5.089   5.109 -0.5190 -0.2103 -0.3735
  166SAPS  H16R18751   2.357   5.023   5.118  0.0757  0.7388  0.9439
  166SAPS  H16S18752   2.316   5.174   5.057  0.7407 -0.4874  0.2902
  166SAPS  C21718753   2.162   5.026   5.017 -1.0293 -0.2209 -0.1918
  166SAPS  H17R18754   2.074   5.094   5.015  1.1489  3.0014  2.4672
  166SAPS  H17S18755   2.118   4.933   5.058 -1.1097  0.5045  1.4759
  166SAPS  C21818756   2.200   5.011   4.870 -0.0424  0.1809  0.0197
  166SAPS  H18R18757   2.305   4.974   4.866 -0.6118 -1.6422  0.7855
  166SAPS  H18S18758   2.209   5.112   4.824  1.3950 -0.7954 -1.9564
  166SAPS  C21918759   2.095   4.927   4.789  0.1996  0.7328  0.3863
  166SAPS  H19R18760   2.100   4.823   4.828  2.5830  0.3186 -0.8164
  166SAPS  H19S18761   2.123   4.919   4.682  1.6190 -1.6039  0.8736
  166SAPS  C22018762   1.949   4.985   4.803 -0.5729 -0.6170  0.2407
  166SAPS  H20R18763   1.882   4.920   4.742  0.7253 -1.5495 -0.2406
  166SAPS  H20S18764   1.954   5.088   4.761  0.4668 -2.1037 -3.7791
  166SAPS  H20T18765   1.901   4.983   4.903 -0.1546  2.4810  0.6222
  166SAPS   C3318766   3.370   4.682   5.844  0.1160 -0.0595  0.5117
  166SAPS   H3X18767   3.273   4.631   5.828  0.6431 -1.5572  1.8509
  166SAPS   H3Y18768   3.456   4.616   5.822  0.4131  0.2954  0.5908
  166SAPS   C3418769   3.386   4.794   5.743  0.4261  0.6785  0.6851
  166SAPS   H4X18770   3.494   4.810   5.723  0.1138  3.0934  0.6409
  166SAPS   H4Y18771   3.333   4.884   5.779 -0.6281 -0.0518  1.0223
  166SAPS   C3518772   3.337   4.756   5.604  0.6759  0.3572 -0.5034
  166SAPS   H5X18773   3.233   4.717   5.613  1.1170 -0.8848 -0.4979
  166SAPS   H5Y18774   3.388   4.669   5.557  0.0894 -0.3915  0.2204
  166SAPS   C3618775   3.337   4.877   5.506  0.2693  0.3926 -0.1338
  166SAPS   H6X18776   3.434   4.932   5.506  0.2499  0.4277 -0.4528
  166SAPS   H6Y18777   3.261   4.949   5.544 -2.6402 -0.3402 -3.9944
  166SAPS   C3718778   3.303   4.833   5.360  0.3444 -0.0780 -0.6486
  166SAPS   H7X18779   3.198   4.798   5.363 -0.0827  1.1652 -0.1523
  166SAPS   H7Y18780   3.359   4.741   5.338 -1.9597 -1.5571 -0.6737
  166SAPS   C3818781   3.308   4.944   5.248 -0.3946  0.7821 -0.7398
  166SAPS   H8X18782   3.415   4.974   5.238 -0.6578  3.0690  2.0102
  166SAPS   H8Y18783   3.262   5.035   5.292  1.1930  1.2424  0.0649
  166SAPS   C3918784   3.239   4.896   5.120 -0.2639  0.1573 -0.1663
  166SAPS   H9X18785   3.129   4.897   5.136 -0.3365  1.7798 -0.5769
  166SAPS   H9Y18786   3.275   4.794   5.097 -1.0877 -0.2672  0.3702
  166SAPS  C31018787   3.266   4.993   5.000  0.2132  0.0214 -0.2284
  166SAPS  H10X18788   3.375   5.011   4.997  0.0990  0.6210 -1.3629
  166SAPS  H10Y18789   3.223   5.094   5.021 -2.2508 -1.3563  1.9480
  166SAPS  C31118790   3.234   4.941   4.860 -0.1566  0.6775  0.1653
  166SAPS  H11X18791   3.123   4.934   4.854 -0.0535 -1.0377 -0.5260
  166SAPS  H11Y18792   3.267   4.836   4.844 -0.6082  0.1787  2.1673
  166SAPS  C31218793   3.273   5.024   4.739 -0.3188 -0.6862  0.2966
  166SAPS  H12X18794   3.364   5.087   4.755 -1.7644  1.2566  1.2496
  166SAPS  H12Y18795   3.192   5.100   4.733  0.7021  0.3624 -0.9947
  166SAPS  C31318796   3.284   4.946   4.606 -0.0391  0.0892  0.1410
  166SAPS  H13X18797   3.202   4.872   4.596  0.6637 -0.6012 -0.6690
  166SAPS  H13Y18798   3.380   4.890   4.606  1.0976  1.9383  1.0723
  166SAPS  C31418799   3.276   5.041   4.488 -0.7505  0.7755  0.3297
  166SAPS  H14X18800   3.372   5.096   4.501  0.5480 -0.8725 -1.6978
  166SAPS  H14Y18801   3.182   5.100   4.478 -2.5287 -1.6936  1.4339
  166SAPS  C31518802   3.288   4.945   4.366 -0.0864 -0.1476 -0.7905
  166SAPS  H15X18803   3.215   4.863   4.382  1.8896 -2.0560 -1.1629
  166SAPS  H15Y18804   3.387   4.895   4.375  1.1288  2.1780 -0.3133
  166SAPS  C31618805   3.248   5.021   4.237 -0.8036  0.0104  0.3395
  166SAPS  H16X18806   3.286   5.125   4.242 -2.3610  0.6504 -0.3807
  166SAPS  H16Y18807   3.138   5.034   4.226 -1.2309 -2.3909  1.2296
  166SAPS  C31718808   3.315   4.972   4.104 -0.4872  0.1412  0.4581
  166SAPS  H17X18809   3.424   4.959   4.121 -0.5560 -0.2206  0.6277
  166SAPS  H17Y18810   3.307   5.035   4.013 -0.5025  0.8020  0.9118
  166SAPS  C31818811   3.258   4.832   4.068  0.2257 -0.7183  0.7251
  166SAPS  H18X18812   3.261   4.774   4.163 -0.4690 -1.1475  0.4952
  166SAPS  H18Y18813   3.319   4.775   3.995 -1.6808 -2.1848  0.1737
  166SAPS  H18Z18814   3.154   4.837   4.030  0.6264 -0.1515 -0.3308
  167SAPS     N18815   3.779   5.595   6.627 -0.1014  0.4949  0.5110
  167SAPS   HN118816   3.788   5.676   6.691 -0.0723  1.2360 -0.4064
  167SAPS   HN218817   3.789   5.622   6.526 -1.3315 -3.0243 -0.6957
  167SAPS   HN318818   3.685   5.551   6.633  0.3811 -0.6790 -0.2058
  167SAPS   C1218819   3.874   5.490   6.653  0.7869  0.0978 -0.4824
  167SAPS  H12A18820   3.867   5.471   6.759 -2.4629 -2.9013 -1.0615
  167SAPS   C1318821   3.851   5.350   6.587 -0.6908  0.6861 -0.6992
  167SAPS  O13A18822   3.750   5.343   6.508 -0.8155  0.0985  0.7608
  167SAPS  O13B18823   3.898   5.243   6.640 -0.4484 -0.2535 -0.1193
  167SAPS   C1118824   4.014   5.533   6.616  0.1344  0.2718 -0.1221
  167SAPS  H11A18825   4.040   5.536   6.508  2.2183  1.6143  0.3516
  167SAPS  H11B18826   4.074   5.447   6.653 -0.1125  0.5462  0.9434
  167SAPS     P18827   4.096   5.780   6.613  0.3715  0.1412 -0.0457
  167SAPS   O1318828   4.066   5.889   6.701 -0.3690  0.4619 -0.0872
  167SAPS   O1418829   4.241   5.763   6.577  0.5192  0.1281 -0.0559
  167SAPS   O1218830   4.054   5.652   6.681  0.4089  0.0620  0.1857
  167SAPS   O1118831   4.009   5.782   6.479 -0.1386  0.2536 -0.2277
  167SAPS    C118832   3.929   5.888   6.424 -0.3065 -0.2434 -0.2406
  167SAPS    HA18833   3.821   5.861   6.423 -0.7491  0.8759  3.3505
  167SAPS    HB18834   3.948   5.972   6.494  0.8654 -2.9880  2.9762
  167SAPS    C218835   3.973   5.928   6.275  0.3079  0.1803  0.8245
  167SAPS    HS18836   3.918   6.022   6.249 -0.5677 -0.0735  1.6952
  167SAPS   O2118837   3.922   5.824   6.194  0.0120  0.0928  0.7572
  167SAPS   C2118838   3.843   5.852   6.092  0.3062 -0.5752  0.1490
  167SAPS   O2218839   3.814   5.967   6.055 -0.6007 -0.6217 -0.0465
  167SAPS   C2218840   3.783   5.731   6.027  0.3882 -0.3495  0.7189
  167SAPS   H2R18841   3.862   5.653   6.023  1.1884  0.4581  0.2575
  167SAPS   H2S18842   3.699   5.695   6.089  0.4258 -1.8927 -0.0914
  167SAPS    C318843   4.123   5.939   6.252  0.4959  0.5122  0.5978
  167SAPS    HX18844   4.145   5.839   6.295  0.2241  0.4972  0.7007
  167SAPS    HY18845   4.160   6.021   6.317 -1.8392  1.7604  0.4667
  167SAPS   O3118846   4.158   5.945   6.115 -0.0137 -0.4707 -0.5416
  167SAPS   C3118847   4.169   6.073   6.067  1.2777  0.0436  0.3266
  167SAPS   O3218848   4.147   6.179   6.128 -0.1819 -0.0143  0.0231
  167SAPS   C3218849   4.217   6.060   5.913 -0.1575  0.1468  0.1368
  167SAPS   H2X18850   4.326   6.085   5.912 -0.5175  1.7995  0.3992
  167SAPS   H2Y18851   4.166   6.142   5.859  0.7452 -0.0702 -1.1138
  167SAPS   C2318852   3.731   5.786   5.886  0.4328 -0.3159  0.1241
  167SAPS   H3R18853   3.820   5.835   5.843 -0.5213 -0.9014 -2.7035
  167SAPS   H3S18854   3.653   5.865   5.898 -0.4425 -1.2872  1.0078
  167SAPS   C2418855   3.674   5.676   5.795 -0.2427 -0.2926 -0.3491
  167SAPS   H4R18856   3.759   5.610   5.769  0.4625  0.9211 -1.2237
  167SAPS   H4S18857   3.667   5.723   5.695 -1.7778 -2.3353 -1.2742
  167SAPS   C2518858   3.542   5.617   5.847 -0.9445 -0.3968  0.0001
  167SAPS   H5R18859   3.522   5.630   5.954  1.6496 -0.9218  0.6278
  167SAPS   C2618860   3.454   5.550   5.779 -0.5001 -0.0769  0.7124
  167SAPS   H6R18861   3.365   5.513   5.831 -2.1942 -0.7415 -2.3781
  167SAPS   C2718862   3.463   5.523   5.629  0.0786 -0.0648  0.7444
  167SAPS   H7R18863   3.447   5.615   5.570  2.0514 -0.9373 -1.2758
  167SAPS   H7S18864   3.368   5.469   5.608  0.2805  0.1211 -0.6910
  167SAPS   C2818865   3.587   5.447   5.587  0.1417 -0.2233  0.3860
  167SAPS   H8R18866   3.670   5.437   5.658 -2.3199 -0.5135  3.4301
  167SAPS   C2918867   3.600   5.390   5.465  0.0309 -0.3123  0.7055
  167SAPS   H9R18868   3.702   5.359   5.438  0.4267  1.6267 -0.1708
  167SAPS  C21018869   3.500   5.369   5.353  0.1802  0.2786  0.5766
  167SAPS  H10R18870   3.413   5.331   5.410 -0.3189  0.0244 -0.3283
  167SAPS  H10S18871   3.529   5.292   5.278 -1.3764 -0.3341  0.5740
  167SAPS  C21118872   3.478   5.498   5.285 -0.0039 -0.4202 -0.0173
  167SAPS  H11R18873   3.453   5.581   5.352  2.6261  0.7225 -0.3640
  167SAPS  C21218874   3.486   5.523   5.155  0.2712  0.4404  0.6037
  167SAPS  H12R18875   3.465   5.624   5.118 -2.9513  0.2166  1.4428
  167SAPS  C21318876   3.517   5.425   5.048  0.0556 -0.2231 -0.3842
  167SAPS  H13R18877   3.440   5.422   4.968  1.7013 -2.4642 -1.9845
  167SAPS  H13S18878   3.508   5.320   5.085  0.0738 -0.9360 -2.3116
  167SAPS  C21418879   3.657   5.460   4.990  0.2016  0.2242 -0.5591
  167SAPS  H14R18880   3.743   5.402   5.027 -1.0149 -1.5533 -0.3981
  167SAPS  C21518881   3.685   5.545   4.899 -0.3383 -0.2345  0.2150
  167SAPS  H15R18882   3.783   5.575   4.858  0.2137  0.0026  1.6569
  167SAPS  C21618883   3.578   5.623   4.824 -0.2849 -0.3385 -0.1613
  167SAPS  H16R18884   3.604   5.723   4.782 -4.2670  0.9374 -0.0220
  167SAPS  H16S18885   3.480   5.633   4.874 -0.3190  2.0681 -0.5812
  167SAPS  C21718886   3.536   5.540   4.703  0.3009 -0.3052 -0.3970
  167SAPS  H17R18887   3.457   5.597   4.649  0.4444  1.0766  0.8039
  167SAPS  H17S18888   3.483   5.446   4.732  0.4685  0.2159  1.7565
  167SAPS  C21818889   3.654   5.518   4.604 -0.2361 -0.0235 -0.1941
  167SAPS  H18R18890   3.724   5.450   4.657  0.0350 -0.6427 -1.3027
  167SAPS  H18S18891   3.713   5.607   4.574  1.0392 -1.0224 -0.7483
  167SAPS  C21918892   3.607   5.444   4.483  0.0928  0.5985  0.2947
  167SAPS  H19R18893   3.497   5.432   4.490 -0.1363  2.7768  1.1235
  167SAPS  H19S18894   3.661   5.347   4.479  1.1147  1.0622  1.9548
  167SAPS  C22018895   3.614   5.516   4.349 -0.4128  0.5862  0.2559
  167SAPS  H20R18896   3.597   5.624   4.363  2.0692  0.7372  3.0428
  167SAPS  H20S18897   3.542   5.487   4.270  0.7347 -0.8729 -0.3149
  167SAPS  H20T18898   3.721   5.513   4.318 -0.1103  1.2901  1.1910
  167SAPS   C3318899   4.180   5.924   5.847 -0.1251 -0.4558 -0.5223
  167SAPS   H3X18900   4.070   5.916   5.851 -0.0821 -0.6208  1.7677
  167SAPS   H3Y18901   4.217   5.835   5.903 -1.1237  0.6515  2.0691
  167SAPS   C3418902   4.224   5.920   5.703  0.4612  0.4202  0.6013
  167SAPS   H4X18903   4.177   5.829   5.659  0.9104  0.7787 -0.6895
  167SAPS   H4Y18904   4.331   5.894   5.695  0.6046  1.4808 -1.7688
  167SAPS   C3518905   4.186   6.045   5.622  0.1056 -0.7380  0.3882
  167SAPS   H5X18906   4.246   6.130   5.662 -0.5048 -1.7401  3.7818
  167SAPS   H5Y18907   4.080   6.077   5.623  0.2874 -0.0497 -0.5437
  167SAPS   C3618908   4.217   6.022   5.477 -0.4790  0.5287 -0.2205
  167SAPS   H6X18909   4.162   5.932   5.442  0.2209 -0.2266  0.5369
  167SAPS   H6Y18910   4.322   5.984   5.470 -0.5947  0.2342 -0.3917
  167SAPS   C3718911   4.192   6.140   5.388 -0.0003  0.2189 -0.0217
  167SAPS   H7X18912   4.268   6.216   5.418  1.3667 -2.1916  3.2478
  167SAPS   H7Y18913   4.094   6.191   5.395 -0.9610 -0.6544 -4.3564
  167SAPS   C3818914   4.213   6.105   5.241 -0.5075  0.5651  0.0379
  167SAPS   H8X18915   4.162   6.006   5.235 -0.7182  0.7324 -1.6166
  167SAPS   H8Y18916   4.323   6.095   5.228 -0.0575  2.5362  1.8746
  167SAPS   C3918917   4.158   6.213   5.138  0.3534  0.2739  0.7127
  167SAPS   H9X18918   4.207   6.311   5.153  1.4063 -0.1498  0.1026
  167SAPS   H9Y18919   4.051   6.228   5.166 -0.4308  0.9578 -2.3109
  167SAPS  C31018920   4.164   6.165   4.993  0.1027 -0.6110 -0.4921
  167SAPS  H10X18921   4.094   6.079   4.995 -1.2789  0.4585  2.1384
  167SAPS  H10Y18922   4.267   6.130   4.971  0.4297 -1.2740  1.8286
  167SAPS  C31118923   4.106   6.266   4.896 -0.3127 -0.1352  0.5364
  167SAPS  H11X18924   4.180   6.348   4.893  1.1672 -1.4332  0.5533
  167SAPS  H11Y18925   4.015   6.303   4.948  1.3503  1.7306  2.2556
  167SAPS  C31218926   4.068   6.212   4.758 -0.3996  0.2100 -0.6756
  167SAPS  H12X18927   4.052   6.292   4.683  0.4023  1.1954  0.1728
  167SAPS  H12Y18928   3.979   6.147   4.773  0.7227 -1.3076 -0.3687
  167SAPS  C31318929   4.177   6.117   4.705 -0.3937  0.4587  0.9264
  167SAPS  H13X18930   4.156   6.072   4.605  1.3674 -0.5277  0.9599
  167SAPS  H13Y18931   4.193   6.036   4.779  1.0392  0.2120  0.3781
  167SAPS  C31418932   4.316   6.179   4.689 -0.0756  0.0075 -0.9662
  167SAPS  H14X18933   4.352   6.206   4.791  1.0793  0.3536 -1.4507
  167SAPS  H14Y18934   4.309   6.268   4.623 -1.3116 -1.4743 -2.9502
  167SAPS  C31518935   4.423   6.079   4.636 -0.1189  0.5117  0.4381
  167SAPS  H15X18936   4.517   6.138   4.628  0.2475 -0.1802 -0.5477
  167SAPS  H15Y18937   4.398   6.038   4.536 -0.2444 -0.0664  0.7009
  167SAPS  C31618938   4.465   5.964   4.735 -0.3074  0.5015  0.5078
  167SAPS  H16X18939   4.524   5.899   4.667 -0.5565  0.7277  0.0701
  167SAPS  H16Y18940   4.377   5.904   4.767 -0.7995  1.1271  0.3449
  167SAPS  C31718941   4.565   6.008   4.839 -0.0785  0.5760  0.5407
  167SAPS  H17X18942   4.507   6.068   4.912  0.6776  0.0439  1.5998
  167SAPS  H17Y18943   4.640   6.079   4.798  0.4102 -1.1397 -1.7951
  167SAPS  C31818944   4.642   5.901   4.907  0.0992  0.4450 -0.4749
  167SAPS  H18X18945   4.690   5.958   4.989 -1.5213  0.4558  0.5126
  167SAPS  H18Y18946   4.724   5.859   4.845 -0.0867 -1.0013  0.2200
  167SAPS  H18Z18947   4.575   5.818   4.941  1.9361 -0.4795  1.1093
  168SAPS     N18948   1.123   6.418   7.194 -0.2293  0.1779  0.1761
  168SAPS   HN118949   1.137   6.495   7.263 -2.4490  2.1463 -1.3997
  168SAPS   HN218950   1.171   6.446   7.106 -0.2031  1.2279  0.5015
  168SAPS   HN318951   1.022   6.423   7.170 -0.2885  1.6257  0.5847
  168SAPS   C1218952   1.171   6.287   7.226  0.5364 -0.3412 -0.3562
  168SAPS  H12A18953   1.271   6.307   7.262  0.0598  0.2304  0.7027
  168SAPS   C1318954   1.096   6.209   7.339 -0.2291  0.5022 -1.0105
  168SAPS  O13A18955   1.020   6.282   7.408  0.3751  0.3933 -0.5782
  168SAPS  O13B18956   1.125   6.096   7.373 -0.3923  0.2031  0.2813
  168SAPS   C1118957   1.182   6.195   7.095  0.4072  0.6609  0.1191
  168SAPS  H11A18958   1.075   6.188   7.065 -0.2798 -0.3953  2.5781
  168SAPS  H11B18959   1.205   6.092   7.129  0.1956  0.7788  0.6258
  168SAPS     P18960   1.405   6.151   6.954  0.0905  0.1056  0.0817
  168SAPS   O1318961   1.489   6.250   6.890 -0.5032 -0.0427 -0.2179
  168SAPS   O1418962   1.461   6.090   7.077 -0.3665  0.1577 -0.0489
  168SAPS   O1218963   1.267   6.234   6.985 -0.4525 -0.6200 -0.6502
  168SAPS   O1118964   1.366   6.041   6.847 -0.1971  0.4555 -0.5472
  168SAPS    C118965   1.261   6.069   6.752  0.4116 -0.0862  0.1893
  168SAPS    HA18966   1.163   6.082   6.802  1.0833  2.4783  1.0417
  168SAPS    HB18967   1.278   6.168   6.704  2.2289  0.3626  1.6413
  168SAPS    C218968   1.264   5.979   6.631 -0.1267 -0.4063  0.2033
  168SAPS    HS18969   1.234   5.876   6.659  0.3328 -0.7308 -0.4616
  168SAPS   O2118970   1.398   5.983   6.588 -0.0208 -0.3454 -0.3998
  168SAPS   C2118971   1.445   5.880   6.522 -0.7935 -0.3510 -0.4210
  168SAPS   O2218972   1.382   5.785   6.480 -0.1148  0.6331 -0.3314
  168SAPS   C2218973   1.595   5.911   6.482  0.0119  0.2708 -0.2100
  168SAPS   H2R18974   1.603   6.018   6.455  0.5251  0.9009  2.1594
  168SAPS   H2S18975   1.656   5.895   6.574  0.2748 -2.0467 -0.7248
  168SAPS    C318976   1.159   6.024   6.520  0.4022 -0.0350 -0.4250
  168SAPS    HX18977   1.176   6.132   6.504  0.4642  0.3141  1.7177
  168SAPS    HY18978   1.060   6.019   6.570  0.4782  0.2766 -0.2412
  168SAPS   O3118979   1.156   5.948   6.396  0.3064  0.3448 -0.1313
  168SAPS   C3118980   1.087   5.845   6.392  0.2913  0.1077 -0.1239
  168SAPS   O3218981   1.022   5.792   6.479  0.2752 -0.2542  0.2850
  168SAPS   C3218982   1.112   5.781   6.249 -0.0138  0.4842 -0.3503
  168SAPS   H2X18983   1.081   5.674   6.253  3.6992 -0.8042 -1.5972
  168SAPS   H2Y18984   1.222   5.791   6.236  0.3643 -0.9023  1.4312
  168SAPS   C2318985   1.638   5.825   6.363  0.6909  0.0156  0.7436
  168SAPS   H3R18986   1.575   5.851   6.275  0.1042  0.9166  1.4087
  168SAPS   H3S18987   1.626   5.716   6.377 -0.8663 -0.0575 -0.8394
  168SAPS   C2418988   1.791   5.850   6.324 -0.4359  0.5282 -0.2663
  168SAPS   H4R18989   1.824   5.773   6.251 -1.4973 -1.4041  1.1836
  168SAPS   H4S18990   1.837   5.830   6.423 -3.0706  0.7241  1.0948
  168SAPS   C2518991   1.820   5.991   6.274  0.3719  0.0345  0.5992
  168SAPS   H5R18992   1.852   6.066   6.349  0.1277  1.5689 -0.7772
  168SAPS   C2618993   1.832   6.029   6.146  0.1585  0.0374  0.2076
  168SAPS   H6R18994   1.839   6.137   6.127  0.2814  0.2386  1.3256
  168SAPS   C2718995   1.809   5.943   6.030 -0.3053  0.1848  0.7461
  168SAPS   H7R18996   1.716   5.973   5.978 -1.9562 -0.5498  3.0776
  168SAPS   H7S18997   1.791   5.839   6.066  2.0888 -0.1490  1.1075
  168SAPS   C2818998   1.925   5.930   5.934 -0.5270  0.2323 -0.0071
  168SAPS   H8R18999   2.017   5.905   5.991 -1.1280  0.9829  1.3441
  168SAPS   C2919000   1.919   5.934   5.798  0.6343 -0.1402 -0.7005
  168SAPS   H9R19001   2.015   5.929   5.744  2.8730  0.0583  2.9377
  168SAPS  C21019002   1.791   5.949   5.721 -0.1592  0.2063  0.4399
  168SAPS  H10R19003   1.699   5.950   5.784 -1.3382  0.6802 -1.2366
  168SAPS  H10S19004   1.787   5.860   5.655 -0.2247  0.5303  0.0063
  168SAPS  C21119005   1.800   6.072   5.643  0.3157 -0.4614  0.3528
  168SAPS  H11R19006   1.795   6.165   5.702  0.6726 -0.2778  0.0989
  168SAPS  C21219007   1.809   6.081   5.508  0.0019 -0.4827  0.0051
  168SAPS  H12R19008   1.803   6.179   5.459  1.6048  0.1345  0.9644
  168SAPS  C21319009   1.823   5.975   5.402 -0.0978 -1.0549  0.4916
  168SAPS  H13R19010   1.734   5.966   5.337 -0.0934 -1.1183  0.4945
  168SAPS  H13S19011   1.843   5.879   5.455  2.1280 -0.2411  1.2743
  168SAPS  C21419012   1.942   6.000   5.309  0.1855  0.4549  0.7015
  168SAPS  H14R19013   2.031   6.035   5.363  0.7546  2.9579 -1.7074
  168SAPS  C21519014   1.950   5.988   5.171 -0.4244 -0.7656  0.2720
  168SAPS  H15R19015   2.049   6.013   5.129 -0.0109 -0.3117  1.4632
  168SAPS  C21619016   1.835   5.934   5.094 -0.4458 -0.1832  0.2707
  168SAPS  H16R19017   1.742   5.995   5.104  0.3251  1.2474 -0.8965
  168SAPS  H16S19018   1.808   5.830   5.122  2.0134 -0.7122  0.9229
  168SAPS  C21719019   1.880   5.946   4.943 -0.6641  0.5356 -0.4262
  168SAPS  H17R19020   1.805   5.906   4.871 -1.2779  1.0001 -0.0632
  168SAPS  H17S19021   1.973   5.886   4.943 -0.5836  0.6083  1.2266
  168SAPS  C21819022   1.914   6.091   4.897  0.1261 -0.1554  0.8136
  168SAPS  H18R19023   2.013   6.122   4.936  0.1972  1.3482 -0.4452
  168SAPS  H18S19024   1.835   6.157   4.939 -2.1638 -1.9051 -0.5050
  168SAPS  C21919025   1.926   6.110   4.746  0.2475 -0.5959  0.0993
  168SAPS  H19R19026   1.960   6.216   4.740 -0.0187 -0.5581 -0.8447
  168SAPS  H19S19027   1.825   6.090   4.704 -0.4561  0.8778  0.9859
  168SAPS  C22019028   2.036   6.014   4.694 -0.2379 -0.6130 -0.0140
  168SAPS  H20R19029   2.008   5.910   4.717 -0.1820 -0.3094  1.5804
  168SAPS  H20S19030   2.132   6.047   4.739  0.2609  0.2701 -1.6409
  168SAPS  H20T19031   2.039   6.030   4.584 -0.9660  0.8423  0.1542
  168SAPS   C3319032   1.029   5.853   6.141 -0.1379  0.0424 -0.3766
  168SAPS   H3X19033   1.056   5.960   6.152 -0.1448 -0.0470  0.5570
  168SAPS   H3Y19034   0.923   5.851   6.174  0.1155  0.8819  0.5520
  168SAPS   C3419035   1.038   5.821   5.992 -0.2905  0.7371 -0.2747
  168SAPS   H4X19036   0.955   5.880   5.947 -0.6094 -1.0410 -2.1939
  168SAPS   H4Y19037   1.015   5.713   5.979 -0.6771  0.9291 -1.2369
  168SAPS   C3519038   1.178   5.862   5.926  0.5983  0.4106 -0.2688
  168SAPS   H5X19039   1.258   5.795   5.965  2.2595  3.3805  1.8499
  168SAPS   H5Y19040   1.214   5.966   5.942  0.4502  0.4676 -0.3120
  168SAPS   C3619041   1.158   5.853   5.773 -0.6197  0.3472 -0.4918
  168SAPS   H6X19042   1.104   5.942   5.734  0.7327  0.5293 -2.0603
  168SAPS   H6Y19043   1.109   5.759   5.741 -1.1863  0.5978 -0.3702
  168SAPS   C3719044   1.295   5.843   5.707 -0.4698  0.1667 -0.1894
  168SAPS   H7X19045   1.333   5.741   5.726 -0.9232 -0.2196 -1.3304
  168SAPS   H7Y19046   1.369   5.918   5.745  0.1431  0.2720 -1.5324
  168SAPS   C3819047   1.290   5.866   5.557 -0.6258  0.3120 -0.4609
  168SAPS   H8X19048   1.213   5.944   5.534 -0.1073  0.7778 -0.6461
  168SAPS   H8Y19049   1.257   5.770   5.512  0.6568 -0.6824  0.6338
  168SAPS   C3919050   1.417   5.927   5.493 -0.2261  0.0896  0.1909
  168SAPS   H9X19051   1.507   5.868   5.523  0.4363 -0.3764 -2.5038
  168SAPS   H9Y19052   1.437   6.022   5.548  1.8482  0.2934 -0.8096
  168SAPS  C31019053   1.413   5.944   5.338  0.2720  0.2251 -0.2969
  168SAPS  H10X19054   1.500   6.011   5.321  1.0770 -0.5612  0.6099
  168SAPS  H10Y19055   1.322   5.994   5.299  0.2996 -0.2824 -1.0256
  168SAPS  C31119056   1.443   5.816   5.254  0.3980  0.1281  0.7225
  168SAPS  H11X19057   1.373   5.737   5.288 -2.3713  0.7881 -2.9060
  168SAPS  H11Y19058   1.549   5.784   5.267  0.6794 -1.4328 -3.7709
  168SAPS  C31219059   1.408   5.838   5.109  0.7777  0.2871 -0.1870
  168SAPS  H12X19060   1.479   5.910   5.063  1.3082 -0.8702 -1.2498
  168SAPS  H12Y19061   1.302   5.869   5.100  0.7355  0.3785  0.5414
  168SAPS  C31319062   1.401   5.704   5.040  0.1789  0.2421  0.0147
  168SAPS  H13X19063   1.339   5.717   4.948  0.9822 -1.6649 -0.8452
  168SAPS  H13Y19064   1.337   5.638   5.102 -0.3989  1.1568  0.4207
  168SAPS  C31419065   1.542   5.657   4.999 -0.3376  0.5450  0.7378
  168SAPS  H14X19066   1.604   5.613   5.080  1.0316 -2.3987 -1.7327
  168SAPS  H14Y19067   1.600   5.735   4.945  0.1070  0.0852  0.5450
  168SAPS  C31519068   1.534   5.532   4.907 -0.7008 -0.3324  0.1349
  168SAPS  H15X19069   1.453   5.463   4.938  0.0594 -0.0156  3.1182
  168SAPS  H15Y19070   1.627   5.473   4.917  0.7978  1.7324 -0.8931
  168SAPS  C31619071   1.514   5.556   4.756 -0.0421 -0.0822  0.5084
  168SAPS  H16X19072   1.420   5.616   4.751 -1.3760 -2.0081  1.3160
  168SAPS  H16Y19073   1.497   5.458   4.707  0.1326 -0.5229  1.3159
  168SAPS  C31719074   1.636   5.614   4.680 -0.2040  0.0668  0.2410
  168SAPS  H17X19075   1.710   5.533   4.700  0.0311  0.5084  1.1991
  168SAPS  H17Y19076   1.671   5.701   4.738 -1.2972  1.0109 -0.4856
  168SAPS  C31819077   1.611   5.635   4.537  0.2182  0.3653  0.2968
  168SAPS  H18X19078   1.559   5.731   4.516  1.7726  1.1536 -0.1362
  168SAPS  H18Y19079   1.562   5.553   4.481  0.2842  0.5984 -0.1093
  168SAPS  H18Z19080   1.707   5.645   4.482 -1.4130  0.2209 -2.8195
  169SAPS     N19081   3.068   1.516   7.262  0.1725  0.2183  0.1535
  169SAPS   HN119082   3.056   1.434   7.198  1.8315 -0.7802  1.0505
  169SAPS   HN219083   2.983   1.530   7.321 -1.4349 -0.2275 -1.9022
  169SAPS   HN319084   3.083   1.601   7.205  1.0515 -0.6843 -1.0232
  169SAPS   C1219085   3.187   1.483   7.351  0.3650 -0.0463 -0.2553
  169SAPS  H12A19086   3.169   1.561   7.424 -0.1694  0.1059 -0.5396
  169SAPS   C1319087   3.165   1.350   7.424 -0.0771 -0.0319  0.3248
  169SAPS  O13A19088   3.061   1.276   7.411  0.3883  0.7043  0.0879
  169SAPS  O13B19089   3.234   1.341   7.525 -0.1495 -0.7593 -0.5398
  169SAPS   C1119090   3.320   1.474   7.276  0.2643  0.5665 -0.0695
  169SAPS  H11A19091   3.313   1.394   7.199 -2.9498 -0.5679  1.2219
  169SAPS  H11B19092   3.401   1.436   7.342  0.1935  0.4551 -0.0463
  169SAPS     P19093   3.487   1.616   7.143  0.1397  0.0110 -0.1021
  169SAPS   O1319094   3.501   1.759   7.102  0.0364 -1.0019 -0.1994
  169SAPS   O1419095   3.596   1.538   7.207  0.1736 -0.2404  0.0833
  169SAPS   O1219096   3.349   1.597   7.220  0.1330  0.5395 -0.3230
  169SAPS   O1119097   3.434   1.534   7.013 -0.3837 -0.1065  0.2010
  169SAPS    C119098   3.338   1.601   6.930 -0.3096  0.4059 -0.2510
  169SAPS    HA19099   3.243   1.626   6.983 -0.5399  0.3082 -0.6172
  169SAPS    HB19100   3.380   1.689   6.876 -0.3437  0.7007  0.1975
  169SAPS    C219101   3.293   1.498   6.822  0.5124  0.2137 -0.1902
  169SAPS    HS19102   3.278   1.407   6.885 -1.0198  2.1281  2.4245
  169SAPS   O2119103   3.402   1.494   6.732  0.0641 -0.5997  0.3809
  169SAPS   C2119104   3.427   1.376   6.671  0.7048 -0.2182  0.0111
  169SAPS   O2219105   3.360   1.273   6.695  0.2214 -0.5957  0.7079
  169SAPS   C2219106   3.544   1.393   6.576 -0.4540  0.5892  0.2552
  169SAPS   H2R19107   3.516   1.488   6.525 -1.2935 -0.3321 -1.0780
  169SAPS   H2S19108   3.637   1.421   6.630 -0.3146 -1.3859  1.1461
  169SAPS    C319109   3.164   1.535   6.740 -0.9281  0.4910  0.3931
  169SAPS    HX19110   3.199   1.632   6.698 -1.8111  1.0610  0.9186
  169SAPS    HY19111   3.079   1.559   6.808  1.5599  1.8798  3.2556
  169SAPS   O3119112   3.136   1.452   6.629 -0.1229 -0.1684  0.1405
  169SAPS   C3119113   3.072   1.339   6.665 -0.0228  0.6817 -0.5298
  169SAPS   O3219114   3.047   1.309   6.777  0.0561  0.0228 -0.4977
  169SAPS   C3219115   3.013   1.276   6.534 -0.0173  0.0534  0.4536
  169SAPS   H2X19116   2.957   1.359   6.485  1.3973  0.4814 -0.4962
  169SAPS   H2Y19117   2.953   1.192   6.574 -0.7892 -0.3141 -1.3503
  169SAPS   C2319118   3.573   1.275   6.477  0.1339 -0.4183 -0.2463
  169SAPS   H3R19119   3.476   1.257   6.425  0.8136  0.3004 -1.8028
  169SAPS   H3S19120   3.599   1.190   6.544  0.5259  0.9293  1.3694
  169SAPS   C2419121   3.691   1.303   6.384  1.1197  0.7508 -0.3538
  169SAPS   H4R19122   3.785   1.310   6.442  2.0998 -1.3191 -1.5933
  169SAPS   H4S19123   3.667   1.405   6.346  1.1796  0.2283 -1.8563
  169SAPS   C2519124   3.709   1.204   6.272 -0.3765  0.5784  0.0555
  169SAPS   H5R19125   3.746   1.105   6.302 -0.9875 -1.2366 -4.4610
  169SAPS   C2619126   3.693   1.220   6.138  0.3031  0.0355  0.2645
  169SAPS   H6R19127   3.698   1.129   6.076 -2.2627 -1.5574  2.1487
  169SAPS   C2719128   3.644   1.346   6.067 -0.5226 -0.1396  0.4753
  169SAPS   H7R19129   3.597   1.415   6.141 -0.2652 -0.4841  0.9683
  169SAPS   H7S19130   3.566   1.322   5.992 -0.8337 -0.0907  0.7827
  169SAPS   C2819131   3.762   1.419   6.007  0.4009  0.0262 -0.2622
  169SAPS   H8R19132   3.860   1.370   6.020 -0.6572 -2.3095 -0.5996
  169SAPS   C2919133   3.761   1.543   5.940  0.3544  0.9367  0.3332
  169SAPS   H9R19134   3.853   1.586   5.898 -1.0328  4.5606  0.6707
  169SAPS  C21019135   3.643   1.622   5.906  0.0740 -0.4883  0.3904
  169SAPS  H10R19136   3.686   1.698   5.836  2.2767 -2.0641 -0.0756
  169SAPS  H10S19137   3.605   1.675   5.996  1.5423  1.1986  0.0899
  169SAPS  C21119138   3.530   1.540   5.837  0.1986  0.1542 -0.3009
  169SAPS  H11R19139   3.461   1.516   5.919  2.6425  0.7196  2.0657
  169SAPS  C21219140   3.508   1.514   5.710 -0.4946 -0.0118  0.2435
  169SAPS  H12R19141   3.434   1.437   5.683 -2.2763  0.9033  2.2265
  169SAPS  C21319142   3.596   1.544   5.588 -0.3667  0.1694 -0.2377
  169SAPS  H13R19143   3.678   1.615   5.611 -0.3594  0.4550 -1.0954
  169SAPS  H13S19144   3.543   1.609   5.514  0.3681  0.3652 -0.6067
  169SAPS  C21419145   3.636   1.425   5.507 -0.2926  0.4837 -0.2660
  169SAPS  H14R19146   3.638   1.326   5.555  1.3082  0.4363 -0.3705
  169SAPS  C21519147   3.672   1.427   5.379 -0.1049 -0.3739 -0.5416
  169SAPS  H15R19148   3.687   1.331   5.329 -1.9178 -0.8033 -0.3253
  169SAPS  C21619149   3.693   1.545   5.286  0.3635  0.0586  0.8776
  169SAPS  H16R19150   3.691   1.649   5.327  0.0948 -0.5523  2.4916
  169SAPS  H16S19151   3.609   1.548   5.213 -0.2010 -2.7246  1.3135
  169SAPS  C21719152   3.821   1.522   5.210  0.2790  0.3322  0.1039
  169SAPS  H17R19153   3.823   1.420   5.166  0.8999  0.7602 -0.9172
  169SAPS  H17S19154   3.910   1.524   5.277  0.1436  1.8158  0.2704
  169SAPS  C21819155   3.834   1.628   5.099  0.4404 -0.0520 -0.1496
  169SAPS  H18R19156   3.937   1.649   5.065 -0.6285  2.9232 -1.9571
  169SAPS  H18S19157   3.792   1.726   5.130 -0.4247 -0.1482 -0.9622
  169SAPS  C21919158   3.772   1.575   4.971 -0.3962  0.7769  0.3108
  169SAPS  H19R19159   3.788   1.659   4.901 -1.5631 -0.4609 -1.5428
  169SAPS  H19S19160   3.662   1.557   4.964 -0.3924  0.8391  0.0962
  169SAPS  C22019161   3.851   1.460   4.907 -0.3823  0.3617 -0.3525
  169SAPS  H20R19162   3.829   1.360   4.950  1.1888 -0.7655 -1.9876
  169SAPS  H20S19163   3.960   1.470   4.928 -0.8642  1.5065  1.8613
  169SAPS  H20T19164   3.844   1.449   4.796 -0.1975  1.2582 -0.4574
  169SAPS   C3319165   3.105   1.210   6.425  0.2060 -0.2729  0.7567
  169SAPS   H3X19166   3.144   1.113   6.462 -0.7431 -1.0146 -0.0878
  169SAPS   H3Y19167   3.190   1.279   6.411  1.9494 -2.4475  0.0614
  169SAPS   C3419168   3.037   1.187   6.286 -0.1788 -0.4077  0.4358
  169SAPS   H4X19169   3.119   1.181   6.211  1.6312  0.9300  2.1935
  169SAPS   H4Y19170   2.980   1.273   6.246  1.2543 -0.0705 -0.9714
  169SAPS   C3519171   2.948   1.062   6.285  0.0031 -0.2137 -0.2728
  169SAPS   H5X19172   2.878   1.058   6.371 -1.1400 -0.0560 -1.1855
  169SAPS   H5Y19173   3.015   0.973   6.279 -0.6934 -1.0605  2.6439
  169SAPS   C3619174   2.850   1.059   6.165 -0.6195 -0.1625  0.2785
  169SAPS   H6X19175   2.757   1.112   6.192 -1.4651 -0.7054 -1.4238
  169SAPS   H6Y19176   2.814   0.955   6.145  0.0765  0.0501 -2.5890
  169SAPS   C3719177   2.906   1.102   6.021  0.5178  0.3268 -0.5909
  169SAPS   H7X19178   3.004   1.052   6.000  1.9484  2.5910  0.3322
  169SAPS   H7Y19179   2.918   1.212   6.021  0.6163  0.3574 -2.4934
  169SAPS   C3819180   2.816   1.059   5.901  0.0408 -0.3935  0.8008
  169SAPS   H8X19181   2.717   1.110   5.905 -0.1214 -0.7433  1.3372
  169SAPS   H8Y19182   2.808   0.950   5.923  0.4732 -0.8233 -1.0508
  169SAPS   C3919183   2.897   1.082   5.776 -0.5040  0.0316  0.4758
  169SAPS   H9X19184   3.004   1.053   5.775  0.1024  2.1100 -0.0286
  169SAPS   H9Y19185   2.902   1.189   5.748 -1.2021  0.2106  1.0245
  169SAPS  C31019186   2.832   1.032   5.646 -0.3210 -0.1047  0.9756
  169SAPS  H10X19187   2.728   1.068   5.655 -1.6583 -3.7718  2.0988
  169SAPS  H10Y19188   2.820   0.922   5.645 -2.9290  0.1285  1.1115
  169SAPS  C31119189   2.906   1.078   5.519 -0.2506  0.1500  0.2011
  169SAPS  H11X19190   3.004   1.030   5.497 -0.8522 -1.1404  0.2388
  169SAPS  H11Y19191   2.919   1.187   5.538 -2.4172  0.6730 -1.0040
  169SAPS  C31219192   2.821   1.041   5.397  0.6317  0.0798  1.1504
  169SAPS  H12X19193   2.720   1.087   5.393 -0.3229 -1.9703  0.3828
  169SAPS  H12Y19194   2.809   0.931   5.388 -0.7835  0.2305  0.8919
  169SAPS  C31319195   2.915   1.069   5.279 -0.0123 -0.3037  0.0057
  169SAPS  H13X19196   3.007   1.013   5.306 -0.0442 -0.9395 -1.1347
  169SAPS  H13Y19197   2.947   1.174   5.263 -0.1202 -0.2657  0.0424
  169SAPS  C31419198   2.873   1.007   5.144 -0.0458 -0.7520 -0.0619
  169SAPS  H14X19199   2.785   1.055   5.096  0.3729  0.8409  0.6717
  169SAPS  H14Y19200   2.849   0.900   5.160 -0.6994 -0.7583 -1.0429
  169SAPS  C31519201   2.979   1.032   5.035  0.3831  0.0724  0.3536
  169SAPS  H15X19202   3.075   0.993   5.076  0.4833  2.2264  2.4085
  169SAPS  H15Y19203   3.002   1.138   5.013  2.2780 -0.5911 -1.2011
  169SAPS  C31619204   2.927   0.970   4.904 -0.0129  0.1667 -0.3231
  169SAPS  H16X19205   2.818   0.986   4.885  0.0711 -0.0742 -1.0106
  169SAPS  H16Y19206   2.942   0.861   4.918  0.5025  0.2856  0.0506
  169SAPS  C31719207   3.010   1.004   4.786  0.1331 -0.5373  0.0531
  169SAPS  H17X19208   3.110   0.977   4.825 -0.1689 -0.4664  0.9036
  169SAPS  H17Y19209   3.021   1.111   4.756  0.1620 -0.2681  0.9876
  169SAPS  C31819210   2.959   0.929   4.661 -0.3804 -0.2813  0.1283
  169SAPS  H18X19211   2.877   0.989   4.616  1.0140  1.2199 -0.4938
  169SAPS  H18Y19212   2.927   0.824   4.675 -0.4512 -0.5315 -1.6089
  169SAPS  H18Z19213   3.042   0.924   4.586 -0.3620  1.7983 -0.0360
  170SAPS     N19214   5.119   0.751   6.744  0.2076 -0.0854 -0.1098
  170SAPS   HN119215   5.161   0.795   6.660 -0.1418 -2.3366 -1.5423
  170SAPS   HN219216   5.053   0.674   6.720  0.6467 -0.8269  0.9507
  170SAPS   HN319217   5.063   0.828   6.787  2.4878  0.8960  1.2896
  170SAPS   C1219218   5.215   0.696   6.842 -0.4569 -0.0037  0.1139
  170SAPS  H12A19219   5.165   0.628   6.909  1.5529 -3.1184 -1.2979
  170SAPS   C1319220   5.333   0.616   6.768 -0.1319  0.2567  0.5575
  170SAPS  O13A19221   5.318   0.587   6.646 -0.5822  0.2295 -0.1535
  170SAPS  O13B19222   5.415   0.541   6.829  0.2709 -1.0131 -0.1730
  170SAPS   C1119223   5.274   0.822   6.922  0.4748  0.0006  0.4062
  170SAPS  H11A19224   5.353   0.777   6.986 -0.8413  1.6861  3.4139
  170SAPS  H11B19225   5.189   0.861   6.982 -1.0474 -2.1621 -0.2417
  170SAPS     P19226   5.405   1.033   6.893 -0.2517  0.0424  0.4942
  170SAPS   O1319227   5.335   1.081   7.014 -0.3875  0.0214  0.2009
  170SAPS   O1419228   5.552   1.006   6.905  0.6406 -0.1674 -0.0086
  170SAPS   O1219229   5.333   0.915   6.829 -0.2004  0.0468  0.0049
  170SAPS   O1119230   5.399   1.139   6.782 -0.3584 -0.6358  0.1515
  170SAPS    C119231   5.276   1.161   6.711  0.2562 -0.6269 -0.3896
  170SAPS    HA19232   5.193   1.093   6.740 -0.2248 -0.8640 -2.1995
  170SAPS    HB19233   5.239   1.265   6.719 -2.2629 -1.2969 -2.0181
  170SAPS    C219234   5.293   1.123   6.559  0.5753 -0.0255  0.3270
  170SAPS    HS19235   5.336   1.021   6.555  0.1215 -0.2538  1.0186
  170SAPS   O2119236   5.368   1.215   6.483  0.3131 -0.5351 -0.1539
  170SAPS   C2119237   5.456   1.157   6.395 -0.4579 -0.1295 -0.2221
  170SAPS   O2219238   5.487   1.038   6.388  0.2046  0.3264 -0.5437
  170SAPS   C2219239   5.531   1.263   6.312 -0.1583 -0.2178 -0.3671
  170SAPS   H2R19240   5.549   1.358   6.368 -0.5977 -0.3116 -0.0654
  170SAPS   H2S19241   5.629   1.216   6.290  0.8788  1.5900  0.2013
  170SAPS    C319242   5.154   1.122   6.496  0.1841 -0.1078 -0.6166
  170SAPS    HX19243   5.105   1.221   6.483  0.0241 -0.1828 -0.5961
  170SAPS    HY19244   5.086   1.082   6.574  1.9571 -0.3006  0.8989
  170SAPS   O3119245   5.147   1.047   6.378  0.6159 -0.0792  0.4410
  170SAPS   C3119246   5.117   0.916   6.392 -0.1529 -0.1381 -0.1773
  170SAPS   O3219247   5.118   0.853   6.493  0.3071 -0.3502 -0.0711
  170SAPS   C3219248   5.102   0.854   6.255  0.0854  0.3153  0.5357
  170SAPS   H2X19249   5.002   0.875   6.212  0.9120 -0.1973 -1.7532
  170SAPS   H2Y19250   5.101   0.744   6.269  0.7348  0.2818  0.3155
  170SAPS   C2319251   5.458   1.304   6.189  0.0587  0.2722  1.2817
  170SAPS   H3R19252   5.497   1.405   6.164  0.4560 -0.1761  0.0494
  170SAPS   H3S19253   5.351   1.321   6.214 -0.3162  1.6093 -0.9356
  170SAPS   C2419254   5.468   1.204   6.070 -0.6508  0.3755 -0.1281
  170SAPS   H4R19255   5.379   1.214   6.004 -1.1080  1.2272  0.5837
  170SAPS   H4S19256   5.478   1.106   6.120  0.8354  0.4122 -0.3137
  170SAPS   C2519257   5.587   1.217   5.982 -0.0353 -0.4763 -0.5365
  170SAPS   H5R19258   5.652   1.300   6.012  0.1353 -1.5661  2.4632
  170SAPS   C2619259   5.605   1.143   5.873 -0.3659  0.3028  0.2526
  170SAPS   H6R19260   5.695   1.171   5.815 -0.6907 -1.1334 -0.9901
  170SAPS   C2719261   5.507   1.041   5.819 -0.0473  0.2658 -0.2774
  170SAPS   H7R19262   5.420   1.031   5.888  0.9474  1.4548  1.2074
  170SAPS   H7S19263   5.571   0.951   5.821 -0.0668  0.2619  0.4426
  170SAPS   C2819264   5.449   1.076   5.692  0.2567 -0.3331 -0.0373
  170SAPS   H8R19265   5.393   1.171   5.688 -3.2532 -2.2203  0.1557
  170SAPS   C2919266   5.431   0.990   5.583  0.4002 -0.6614  0.5575
  170SAPS   H9R19267   5.388   1.038   5.494 -1.7206  0.2333  1.9923
  170SAPS  C21019268   5.493   0.856   5.554  0.5519 -0.1174  0.6132
  170SAPS  H10R19269   5.538   0.803   5.640 -0.8687  1.4814  2.4096
  170SAPS  H10S19270   5.577   0.871   5.482 -0.5667 -1.5259 -1.0739
  170SAPS  C21119271   5.384   0.766   5.494  0.4834  0.2483 -0.6641
  170SAPS  H11R19272   5.328   0.698   5.559  2.1028 -0.1890  0.3520
  170SAPS  C21219273   5.348   0.744   5.360  0.5752 -0.6030 -0.6060
  170SAPS  H12R19274   5.266   0.672   5.345  0.1509 -0.0675 -0.8952
  170SAPS  C21319275   5.410   0.810   5.240 -0.6113  0.3246  0.0987
  170SAPS  H13R19276   5.494   0.749   5.199 -0.7510 -1.0994  1.7904
  170SAPS  H13S19277   5.465   0.902   5.268 -1.7586  1.3453 -0.9410
  170SAPS  C21419278   5.313   0.835   5.127 -0.0571  0.1403 -0.4933
  170SAPS  H14R19279   5.208   0.817   5.152 -1.1264  2.8293 -2.5436
  170SAPS  C21519280   5.341   0.881   5.002 -0.2488 -0.1447  0.6374
  170SAPS  H15R19281   5.260   0.873   4.927 -0.4253 -2.6667  1.0367
  170SAPS  C21619282   5.484   0.918   4.950 -0.2230 -0.7024  0.4409
  170SAPS  H16R19283   5.552   0.898   5.035 -1.6368  2.5092  2.5126
  170SAPS  H16S19284   5.487   1.028   4.936  0.3148 -1.0113 -2.6674
  170SAPS  C21719285   5.528   0.851   4.824 -0.3694  0.0016  0.5248
  170SAPS  H17R19286   5.535   0.741   4.839  0.5652  0.0787  0.7393
  170SAPS  H17S19287   5.634   0.878   4.804  0.0864 -0.9084  1.5807
  170SAPS  C21819288   5.443   0.873   4.696 -0.6951 -0.7969 -0.8980
  170SAPS  H18R19289   5.458   0.980   4.668  0.9140 -0.9586 -0.7512
  170SAPS  H18S19290   5.336   0.858   4.723  0.4422 -3.7993  2.7898
  170SAPS  C21919291   5.494   0.794   4.571  0.4060 -0.1411  0.2569
  170SAPS  H19R19292   5.601   0.818   4.554 -0.0023 -0.2874 -3.1237
  170SAPS  H19S19293   5.431   0.835   4.489  0.4606  0.4485  0.5055
  170SAPS  C22019294   5.481   0.640   4.574  0.0812 -0.4169 -0.4542
  170SAPS  H20R19295   5.556   0.590   4.640 -1.5256 -1.1780  0.8595
  170SAPS  H20S19296   5.502   0.602   4.472  0.0285 -1.6641 -0.0191
  170SAPS  H20T19297   5.383   0.601   4.609  0.5468 -1.8354 -0.6804
  170SAPS   C3319298   5.216   0.888   6.152 -0.0837  0.0379 -0.3182
  170SAPS   H3X19299   5.315   0.884   6.202  0.4410 -0.1338 -1.3464
  170SAPS   H3Y19300   5.200   0.994   6.124 -0.0005 -0.4677 -2.4033
  170SAPS   C3419301   5.222   0.791   6.033  0.2507  0.4693  0.0831
  170SAPS   H4X19302   5.226   0.689   6.079  0.3799  0.5371  0.2242
  170SAPS   H4Y19303   5.317   0.797   5.976 -0.2706  0.5047 -0.7970
  170SAPS   C3519304   5.098   0.800   5.949 -0.1758 -0.5748 -0.2753
  170SAPS   H5X19305   5.017   0.842   6.012 -0.2804  1.1541 -1.5082
  170SAPS   H5Y19306   5.059   0.707   5.902  0.3403 -0.5641 -0.7364
  170SAPS   C3619307   5.099   0.906   5.839  0.8568 -0.3903 -0.0046
  170SAPS   H6X19308   5.171   0.888   5.757 -0.5301  1.2168 -1.6401
  170SAPS   H6Y19309   5.133   1.001   5.884  0.7701  0.1000 -0.9491
  170SAPS   C3719310   4.968   0.938   5.772  0.0815 -0.0138  0.1143
  170SAPS   H7X19311   4.975   1.044   5.739 -1.2918 -0.3760 -1.4346
  170SAPS   H7Y19312   4.890   0.934   5.851  1.0582  0.3877  1.1356
  170SAPS   C3819313   4.942   0.843   5.657  0.2602  0.7894  0.1664
  170SAPS   H8X19314   4.833   0.819   5.654  0.6717 -1.0892 -1.0736
  170SAPS   H8Y19315   5.004   0.753   5.677  1.1184  1.6933  1.7854
  170SAPS   C3919316   4.973   0.892   5.512 -0.1621  0.2975 -0.1851
  170SAPS   H9X19317   5.084   0.900   5.510 -0.0656 -0.7094  0.2359
  170SAPS   H9Y19318   4.938   0.997   5.503  3.4860  2.0755  3.0807
  170SAPS  C31019319   4.931   0.798   5.405  0.9276 -0.6858  0.0954
  170SAPS  H10X19320   4.825   0.763   5.410  0.5756  0.5181  1.7450
  170SAPS  H10Y19321   4.993   0.707   5.413  2.9607  0.6153 -0.1727
  170SAPS  C31119322   4.950   0.869   5.269 -0.0302  0.1025  1.4491
  170SAPS  H11X19323   5.057   0.890   5.250  0.4008 -3.7859 -1.9656
  170SAPS  H11Y19324   4.892   0.963   5.261  1.6496  1.0596 -0.1230
  170SAPS  C31219325   4.909   0.770   5.153 -0.2422  0.1935  0.3005
  170SAPS  H12X19326   4.805   0.731   5.158  0.1058 -0.6221  1.7602
  170SAPS  H12Y19327   4.956   0.672   5.174 -1.0983  0.0063  1.3838
  170SAPS  C31319328   4.946   0.828   5.014 -0.2407  0.6417 -0.1077
  170SAPS  H13X19329   5.047   0.873   5.003  0.5092 -0.7003  0.9809
  170SAPS  H13Y19330   4.872   0.910   5.001 -1.0861 -0.0684  0.1664
  170SAPS  C31419331   4.923   0.726   4.906 -0.2878 -0.3452 -0.0286
  170SAPS  H14X19332   4.830   0.671   4.934  0.3379 -2.2875 -1.5710
  170SAPS  H14Y19333   4.999   0.646   4.908  0.0845  0.0110  0.5693
  170SAPS  C31519334   4.891   0.800   4.774 -0.6305  0.1770  0.0535
  170SAPS  H15X19335   4.877   0.909   4.794  0.1205  0.5807 -1.3981
  170SAPS  H15Y19336   4.802   0.755   4.726 -0.2749  0.3212 -0.7655
  170SAPS  C31619337   5.014   0.788   4.677  0.3192  0.1844  0.5164
  170SAPS  H16X19338   5.028   0.683   4.645 -2.8603  0.4060 -2.0898
  170SAPS  H16Y19339   5.106   0.826   4.727  0.8447 -0.6166  0.1811
  170SAPS  C31719340   5.002   0.878   4.552  0.0980 -0.5058  0.6017
  170SAPS  H17X19341   5.012   0.985   4.578  1.3474  0.0072 -1.6723
  170SAPS  H17Y19342   4.903   0.877   4.502  1.2404  1.8920 -1.9932
  170SAPS  C31819343   5.111   0.857   4.439  0.2219 -0.1564 -0.5860
  170SAPS  H18X19344   5.203   0.816   4.487 -0.1249 -2.4276 -1.7481
  170SAPS  H18Y19345   5.130   0.952   4.384  1.2182  0.3012  0.5081
  170SAPS  H18Z19346   5.073   0.778   4.371 -0.2932 -2.4286  2.1512
  171SAPS     N19347   5.336   0.156   7.052  0.2364 -0.8622  0.2826
  171SAPS   HN119348   5.305   0.192   7.144 -1.3784  0.1098 -0.5863
  171SAPS   HN219349   5.374   0.243   7.010 -0.7948 -0.8956 -0.7816
  171SAPS   HN319350   5.252   0.130   6.996  1.4741 -1.1084 -1.5481
  171SAPS   C1219351   5.430   0.050   7.071  0.4909  0.4840  0.0046
  171SAPS  H12A19352   5.515   0.103   7.113  0.9067 -0.6336  0.6024
  171SAPS   C1319353   5.388  -0.069   7.165 -0.0803  0.3095 -0.5773
  171SAPS  O13A19354   5.270  -0.092   7.194  0.7432 -0.4319  0.2232
  171SAPS  O13B19355   5.484  -0.141   7.199 -0.2390 -0.1203  0.3001
  171SAPS   C1119356   5.458  -0.008   6.924  0.4095  0.5528 -0.3852
  171SAPS  H11A19357   5.379  -0.075   6.884  1.9701 -1.7537  0.1486
  171SAPS  H11B19358   5.539  -0.082   6.941 -2.8066 -3.0127  1.0609
  171SAPS     P19359   5.633   0.124   6.794 -0.0617 -0.0800  0.3921
  171SAPS   O1319360   5.629   0.249   6.719 -0.4961 -0.3096 -0.1573
  171SAPS   O1419361   5.723   0.116   6.914  0.1781  0.3656  0.0779
  171SAPS   O1219362   5.485   0.098   6.830  0.3051 -0.5285  0.1990
  171SAPS   O1119363   5.656   0.008   6.694 -0.2061  0.4433 -0.2944
  171SAPS    C119364   5.566  -0.018   6.586  0.1252 -0.3539 -0.7623
  171SAPS    HA19365   5.551  -0.127   6.597  0.3050 -0.6364 -2.9311
  171SAPS    HB19366   5.470   0.037   6.594  1.1486  1.3806  0.3918
  171SAPS    C219367   5.655   0.016   6.460  0.0094 -0.4954  0.1865
  171SAPS    HS19368   5.705   0.112   6.486 -0.1503 -0.1396 -0.8078
  171SAPS   O2119369   5.576   0.012   6.336  0.1869 -0.3373  0.3022
  171SAPS   C2119370   5.487   0.109   6.332 -0.2246 -0.6120  0.3742
  171SAPS   O2219371   5.460   0.196   6.411  0.2172  0.7494  0.2875
  171SAPS   C2219372   5.408   0.082   6.198 -0.6012 -0.8204 -0.4658
  171SAPS   H2R19373   5.485   0.056   6.122 -0.7611 -0.4861 -0.7452
  171SAPS   H2S19374   5.344  -0.001   6.234 -1.8044  0.7816  1.2606
  171SAPS    C319375   5.771  -0.084   6.443  0.3067 -0.6167  0.3954
  171SAPS    HX19376   5.722  -0.181   6.417 -1.3791 -0.1739  1.7493
  171SAPS    HY19377   5.832  -0.091   6.535  0.1638 -0.8670  0.4746
  171SAPS   O3119378   5.847  -0.046   6.331 -0.0557 -0.3650 -0.2812
  171SAPS   C3119379   5.940   0.048   6.348 -0.1823  0.3744  0.0659
  171SAPS   O3219380   5.946   0.127   6.445 -0.0156  0.0416 -0.5152
  171SAPS   C3219381   6.023   0.046   6.222  0.2231  0.3232 -0.3739
  171SAPS   H2X19382   5.959   0.056   6.132  1.8164 -0.8861 -1.7026
  171SAPS   H2Y19383   6.068  -0.055   6.220 -0.9743 -0.2432  0.3018
  171SAPS   C2319384   5.327   0.197   6.157  0.1854 -0.2812  0.7903
  171SAPS   H3R19385   5.386   0.291   6.144  1.0698 -0.9427 -0.2070
  171SAPS   H3S19386   5.254   0.219   6.237  1.6739  1.1608  1.8342
  171SAPS   C2419387   5.249   0.165   6.024 -0.5731  0.1518  0.4538
  171SAPS   H4R19388   5.185   0.076   6.041 -0.9324  0.2011 -0.5368
  171SAPS   H4S19389   5.313   0.125   5.943 -0.1670  1.5338  0.0615
  171SAPS   C2519390   5.171   0.288   5.973  0.2359  0.2453  0.1783
  171SAPS   H5R19391   5.113   0.335   6.053  1.6656 -1.4054  2.3132
  171SAPS   C2619392   5.162   0.331   5.844 -0.5964 -0.0447 -0.1374
  171SAPS   H6R19393   5.103   0.420   5.817  0.0612  1.1268  1.9826
  171SAPS   C2719394   5.221   0.265   5.724  0.3162 -0.8755  0.4122
  171SAPS   H7R19395   5.143   0.248   5.647  1.0917  2.2372 -1.2637
  171SAPS   H7S19396   5.252   0.164   5.758 -0.0271 -0.1618  3.0546
  171SAPS   C2819397   5.328   0.343   5.652 -0.6215  0.2106  0.0701
  171SAPS   H8R19398   5.388   0.414   5.711  2.9104 -0.1992 -2.6854
  171SAPS   C2919399   5.328   0.363   5.517 -0.5043  0.6534 -0.3500
  171SAPS   H9R19400   5.404   0.431   5.474  1.5515 -1.6297 -0.5123
  171SAPS  C21019401   5.243   0.289   5.411  0.4389 -0.3454 -0.6552
  171SAPS  H10R19402   5.223   0.184   5.440 -2.4334 -0.2858 -2.0815
  171SAPS  H10S19403   5.301   0.288   5.316  2.4197  2.0329  0.4119
  171SAPS  C21119404   5.106   0.356   5.405 -0.5710  1.0222 -0.1211
  171SAPS  H11R19405   5.054   0.372   5.501  2.0311 -0.9069  1.7695
  171SAPS  C21219406   5.041   0.398   5.294  0.1096  0.0866  0.1313
  171SAPS  H12R19407   4.935   0.430   5.297 -0.5965 -2.1366  0.6535
  171SAPS  C21319408   5.085   0.381   5.149 -0.3338 -0.0035  0.0400
  171SAPS  H13R19409   5.000   0.399   5.080 -1.0467 -0.0310  0.9003
  171SAPS  H13S19410   5.125   0.280   5.123 -0.2811  0.1164 -0.3466
  171SAPS  C21419411   5.197   0.479   5.115  0.5288  0.7060 -0.3533
  171SAPS  H14R19412   5.242   0.536   5.198  1.8037  1.2511 -1.3766
  171SAPS  C21519413   5.258   0.492   4.994  0.1165  0.0652 -0.8042
  171SAPS  H15R19414   5.341   0.564   4.990 -0.3390  0.5385 -2.0019
  171SAPS  C21619415   5.215   0.418   4.870  0.1808 -0.2205 -0.5566
  171SAPS  H16R19416   5.171   0.494   4.803 -0.6349 -1.2833 -1.2662
  171SAPS  H16S19417   5.133   0.344   4.878 -1.2393  1.4205  0.8120
  171SAPS  C21719418   5.330   0.369   4.788 -0.1548 -0.7646  0.0341
  171SAPS  H17R19419   5.404   0.447   4.761 -0.4569 -0.2971  0.5444
  171SAPS  H17S19420   5.295   0.336   4.688  0.9682  2.4258 -1.5336
  171SAPS  C21819421   5.415   0.257   4.855  0.7728 -0.5280  0.3974
  171SAPS  H18R19422   5.352   0.165   4.855 -0.2854  0.1593 -1.3921
  171SAPS  H18S19423   5.425   0.278   4.964  1.3943 -1.2564  0.4919
  171SAPS  C21919424   5.554   0.224   4.798 -0.2071 -0.6125  0.4826
  171SAPS  H19R19425   5.587   0.124   4.835  1.5249 -0.0429  0.5992
  171SAPS  H19S19426   5.632   0.299   4.826  0.7893 -0.3993 -2.5062
  171SAPS  C22019427   5.548   0.226   4.642 -0.3192 -0.0993 -0.4642
  171SAPS  H20R19428   5.457   0.168   4.614 -0.6939 -0.7122  1.8573
  171SAPS  H20S19429   5.641   0.181   4.601  0.5791  1.7307 -0.5016
  171SAPS  H20T19430   5.543   0.331   4.606 -1.7785  1.3691  3.4621
  171SAPS   C3319431   6.139   0.153   6.240  0.1218  0.1085  0.5637
  171SAPS   H3X19432   6.206   0.126   6.325  0.6939  0.4952  0.2373
  171SAPS   H3Y19433   6.090   0.252   6.248 -2.3649 -0.5140 -3.6275
  171SAPS   C3419434   6.228   0.149   6.115  0.4127 -0.6559  0.5071
  171SAPS   H4X19435   6.220   0.046   6.074 -1.0026 -0.6240  0.6519
  171SAPS   H4Y19436   6.327   0.175   6.157  0.1547  0.4524  0.4633
  171SAPS   C3519437   6.182   0.256   6.021 -0.3164  0.1241  0.2803
  171SAPS   H5X19438   6.199   0.354   6.070  0.1579 -0.2888  0.9465
  171SAPS   H5Y19439   6.073   0.240   6.007 -0.2903  0.4876 -0.3889
  171SAPS   C3619440   6.240   0.250   5.880 -0.5350  0.3073 -0.6368
  171SAPS   H6X19441   6.233   0.143   5.850 -1.2843 -0.2877  1.4655
  171SAPS   H6Y19442   6.348   0.275   5.885 -0.7080  0.8578  1.2964
  171SAPS   C3719443   6.163   0.318   5.776  0.2602 -1.0888  0.0933
  171SAPS   H7X19444   6.150   0.424   5.807  0.1994 -1.5279  1.6221
  171SAPS   H7Y19445   6.062   0.271   5.779  0.2443 -1.0131  1.1095
  171SAPS   C3819446   6.232   0.318   5.639 -0.6236  0.4783 -0.1663
  171SAPS   H8X19447   6.238   0.212   5.605  0.9253 -0.8063  3.5686
  171SAPS   H8Y19448   6.334   0.361   5.654 -0.5439 -0.4456  2.5284
  171SAPS   C3919449   6.153   0.394   5.533 -0.3091 -0.0539 -0.2183
  171SAPS   H9X19450   6.162   0.504   5.546 -2.5838  0.2371 -0.5701
  171SAPS   H9Y19451   6.045   0.375   5.551 -0.5218  0.7545 -0.6137
  171SAPS  C31019452   6.179   0.355   5.396  0.5052 -0.2877  0.4589
  171SAPS  H10X19453   6.144   0.250   5.387 -2.0864  0.6103 -0.9363
  171SAPS  H10Y19454   6.287   0.361   5.368  0.4729  1.6899  0.6529
  171SAPS  C31119455   6.109   0.445   5.293  0.2480 -0.2301  0.6430
  171SAPS  H11X19456   6.175   0.534   5.284  1.2840 -1.2052 -4.7168
  171SAPS  H11Y19457   6.008   0.489   5.308  0.8888  0.7189  2.4448
  171SAPS  C31219458   6.096   0.369   5.159 -0.8924 -0.1906 -0.1661
  171SAPS  H12X19459   6.191   0.314   5.139 -0.2657 -0.0636  2.2006
  171SAPS  H12Y19460   6.103   0.437   5.071  2.5800 -1.1062 -0.7487
  171SAPS  C31319461   5.973   0.275   5.147 -0.3140  0.3523 -0.0734
  171SAPS  H13X19462   5.881   0.336   5.164 -0.2198  0.2252  0.9285
  171SAPS  H13Y19463   5.989   0.205   5.232  0.7153  1.7372  0.9144
  171SAPS  C31419464   5.971   0.216   5.000 -0.2466  0.0865 -0.0275
  171SAPS  H14X19465   6.073   0.173   4.992 -1.4053 -3.0721  0.7833
  171SAPS  H14Y19466   5.943   0.303   4.936 -2.3846 -0.3255  0.2685
  171SAPS  C31519467   5.870   0.106   4.977 -0.2779  0.0425 -0.6154
  171SAPS  H15X19468   5.766   0.142   4.985 -0.9764 -2.2329  2.2569
  171SAPS  H15Y19469   5.886   0.034   5.060  1.3856 -0.7761 -1.5860
  171SAPS  C31619470   5.867   0.031   4.845 -0.4358 -0.1479  0.0072
  171SAPS  H16X19471   5.870   0.097   4.756 -0.1134 -0.5814 -0.3038
  171SAPS  H16Y19472   5.767  -0.017   4.836  0.0605 -0.9773 -1.4500
  171SAPS  C31719473   5.985  -0.071   4.827  0.5510  0.1664 -0.7176
  171SAPS  H17X19474   6.015  -0.109   4.927 -0.9403  0.5519 -0.1006
  171SAPS  H17Y19475   6.066   0.003   4.808 -1.2356  1.6990 -2.8605
  171SAPS  C31819476   5.961  -0.176   4.721 -0.7430 -0.0020 -0.3037
  171SAPS  H18X19477   6.026  -0.265   4.737 -0.1056  0.9219  2.9182
  171SAPS  H18Y19478   5.971  -0.125   4.623 -2.6964 -0.2732 -0.6899
  171SAPS  H18Z19479   5.859  -0.220   4.718  0.0908 -2.4483  2.2744
  172SAPS     N19480   0.091   0.469   6.611 -0.3498 -0.1371  0.2313
  172SAPS   HN119481   0.044   0.484   6.519 -1.1447 -1.5251  0.3890
  172SAPS   HN219482   0.191   0.500   6.607 -0.8163  1.4662  0.3623
  172SAPS   HN319483   0.099   0.366   6.618 -0.9639 -0.2728 -0.8074
  172SAPS   C1219484   0.038   0.544   6.718  1.1358  0.2625  0.5389
  172SAPS  H12A19485  -0.070   0.539   6.708  1.2276 -0.2136 -0.2665
  172SAPS   C1319486   0.067   0.483   6.855  0.3481  0.4400 -0.0964
  172SAPS  O13A19487   0.117   0.368   6.874  0.1791  0.4658 -0.2762
  172SAPS  O13B19488   0.021   0.549   6.955 -0.4788  0.3728  0.3315
  172SAPS   C1119489   0.080   0.692   6.698  0.1953  0.2645 -0.1619
  172SAPS  H11A19490   0.189   0.711   6.698  0.5414 -0.8333  3.8764
  172SAPS  H11B19491   0.039   0.740   6.790 -2.4813  0.6061 -1.4199
  172SAPS     P19492   0.023   0.896   6.580 -0.0268  0.3743 -0.0970
  172SAPS   O1319493  -0.038   0.954   6.703 -0.4565 -0.0922 -0.2010
  172SAPS   O1419494   0.167   0.926   6.557  0.0321 -0.4758  0.3185
  172SAPS   O1219495   0.016   0.744   6.587 -0.3055  0.3099  0.3362
  172SAPS   O1119496  -0.067   0.924   6.452  0.0614 -0.0092  0.2761
  172SAPS    C119497  -0.014   0.909   6.318  0.0234 -0.2030  0.1403
  172SAPS    HA19498  -0.070   0.970   6.245 -0.9895 -1.3184 -0.0334
  172SAPS    HB19499   0.094   0.937   6.312  0.5082 -2.2009 -1.6601
  172SAPS    C219500  -0.017   0.762   6.268  1.6551 -0.4042 -0.6258
  172SAPS    HS19501   0.053   0.706   6.334 -1.5081 -1.7183  1.9481
  172SAPS   O2119502   0.027   0.763   6.131 -0.3276 -0.5543 -0.4616
  172SAPS   C2119503   0.096   0.657   6.090 -0.0631  0.1100  0.9119
  172SAPS   O2219504   0.116   0.556   6.155 -1.2726 -0.0484 -0.6351
  172SAPS   C2219505   0.151   0.696   5.947  0.8866 -0.1505 -0.0958
  172SAPS   H2R19506   0.073   0.671   5.872  0.8955 -3.1310  0.7648
  172SAPS   H2S19507   0.173   0.804   5.940 -1.1250  0.3184  0.0578
  172SAPS    C319508  -0.161   0.691   6.295 -0.7469 -0.5489 -0.1245
  172SAPS    HX19509  -0.227   0.760   6.239  0.3215 -0.0501 -0.8116
  172SAPS    HY19510  -0.187   0.689   6.403 -0.4392 -0.7040 -0.0518
  172SAPS   O3119511  -0.171   0.569   6.224 -0.4390 -0.2308  0.0387
  172SAPS   C3119512  -0.120   0.464   6.284 -0.3819  0.4163 -0.0439
  172SAPS   O3219513  -0.073   0.461   6.396  0.2684 -0.8192 -0.1612
  172SAPS   C3219514  -0.124   0.342   6.193  0.3479  0.8967  0.4729
  172SAPS   H2X19515  -0.204   0.272   6.223  0.0220  0.4043 -1.4489
  172SAPS   H2Y19516  -0.026   0.289   6.200 -2.1477 -4.5340 -0.4684
  172SAPS   C2319517   0.279   0.627   5.902  0.6003 -0.7681 -0.2211
  172SAPS   H3R19518   0.255   0.518   5.898 -0.1597 -0.6433  0.5318
  172SAPS   H3S19519   0.356   0.646   5.979  1.2164  0.4567 -1.1141
  172SAPS   C2419520   0.328   0.657   5.761 -0.2009 -0.2580  0.2494
  172SAPS   H4R19521   0.234   0.667   5.703 -0.2266  0.6178  0.4269
  172SAPS   H4S19522   0.387   0.576   5.713 -1.1170 -1.3251  0.9100
  172SAPS   C2519523   0.406   0.788   5.761  0.3514 -0.1445  0.3150
  172SAPS   H5R19524   0.505   0.781   5.809  0.3798 -1.0109  0.1393
  172SAPS   C2619525   0.369   0.907   5.715 -0.0458 -0.3499  0.3336
  172SAPS   H6R19526   0.431   0.993   5.744  0.6142 -1.2432  1.6468
  172SAPS   C2719527   0.239   0.945   5.648  0.2205  0.2061  0.1661
  172SAPS   H7R19528   0.153   0.915   5.711  0.9324 -2.0229  0.1414
  172SAPS   H7S19529   0.239   0.885   5.554  1.6906  0.1886  0.1569
  172SAPS   C2819530   0.219   1.089   5.614  0.4054  0.1509  0.3334
  172SAPS   H8R19531   0.237   1.163   5.694 -0.4162  1.3494 -0.5496
  172SAPS   C2919532   0.188   1.136   5.486 -0.5027 -0.3364  0.1361
  172SAPS   H9R19533   0.160   1.242   5.483 -3.2256 -0.9848 -3.2855
  172SAPS  C21019534   0.158   1.058   5.357  0.3219  0.4412  0.0754
  172SAPS  H10R19535   0.165   0.949   5.374  0.0444  0.4928  0.5347
  172SAPS  H10S19536   0.237   1.086   5.284 -0.7991  0.9279 -0.9948
  172SAPS  C21119537   0.018   1.089   5.302 -0.2067 -0.1682 -0.4237
  172SAPS  H11R19538  -0.065   1.039   5.354  0.0013  0.1475  0.2216
  172SAPS  C21219539  -0.007   1.172   5.207 -0.5537 -0.1242  0.5243
  172SAPS  H12R19540  -0.109   1.179   5.166 -0.2182 -0.1626 -0.3494
  172SAPS  C21319541   0.099   1.249   5.125 -0.4365  0.3959 -0.4933
  172SAPS  H13R19542   0.177   1.284   5.196 -0.7492  2.1677 -0.9825
  172SAPS  H13S19543   0.054   1.342   5.084 -1.4432 -0.4681 -1.4324
  172SAPS  C21419544   0.156   1.166   5.008  0.2538 -0.2185  0.8020
  172SAPS  H14R19545   0.253   1.122   5.033  1.4460  0.8371 -1.6196
  172SAPS  C21519546   0.119   1.175   4.872  0.1068 -0.4530 -0.6373
  172SAPS  H15R19547   0.177   1.117   4.799  3.4374 -0.4983  1.8006
  172SAPS  C21619548   0.002   1.254   4.811 -0.4598 -0.3108 -0.1055
  172SAPS  H16R19549  -0.018   1.354   4.854 -2.4264  0.8381 -3.3235
  172SAPS  H16S19550  -0.098   1.208   4.831  0.0541 -1.5959 -0.3474
  172SAPS  C21719551   0.019   1.275   4.659  0.4405 -0.0995 -0.1710
  172SAPS  H17R19552  -0.080   1.278   4.609  0.7065 -2.6367 -0.9497
  172SAPS  H17S19553   0.082   1.193   4.618  0.7985  1.7263 -3.6191
  172SAPS  C21819554   0.090   1.406   4.629 -0.2616  0.3447  0.1755
  172SAPS  H18R19555   0.011   1.481   4.648 -1.6359 -1.8234  3.9480
  172SAPS  H18S19556   0.112   1.415   4.520  1.1942  1.3375  0.5271
  172SAPS  C21919557   0.216   1.432   4.709  0.5302  0.3479 -0.1092
  172SAPS  H19R19558   0.290   1.351   4.692 -1.1772 -0.9552 -1.8830
  172SAPS  H19S19559   0.191   1.446   4.816  0.5593 -0.9887  0.0873
  172SAPS  C22019560   0.289   1.561   4.676  0.2015 -0.4235 -0.3689
  172SAPS  H20R19561   0.375   1.576   4.743 -1.2341  0.6300  1.3297
  172SAPS  H20S19562   0.230   1.655   4.682 -0.6794 -0.9585 -0.3871
  172SAPS  H20T19563   0.319   1.558   4.569  0.2056 -2.4771 -0.3640
  172SAPS   C3319564  -0.142   0.367   6.040  0.1688 -0.0504  0.0806
  172SAPS   H3X19565  -0.062   0.436   6.006 -2.2915  2.9934 -0.0180
  172SAPS   H3Y19566  -0.235   0.424   6.017 -0.2311 -0.0189  1.6591
  172SAPS   C3419567  -0.152   0.245   5.962  0.2860 -0.0654  0.1030
  172SAPS   H4X19568  -0.249   0.195   5.982  0.3907  0.7004  2.9584
  172SAPS   H4Y19569  -0.072   0.172   5.986  0.1123 -0.1083  0.5560
  172SAPS   C3519570  -0.151   0.274   5.810 -0.9814 -0.3167  0.3226
  172SAPS   H5X19571  -0.235   0.343   5.787  0.9382  2.2709  0.5624
  172SAPS   H5Y19572  -0.181   0.176   5.767 -0.7601 -0.0635 -0.4333
  172SAPS   C3619573  -0.023   0.324   5.744  0.2454 -0.0161 -0.4107
  172SAPS   H6X19574   0.055   0.247   5.764  0.2809 -0.6001 -2.4842
  172SAPS   H6Y19575   0.007   0.425   5.778  0.9294 -0.2974 -0.1621
  172SAPS   C3719576  -0.039   0.348   5.592 -0.4254  0.5738  0.1848
  172SAPS   H7X19577   0.061   0.373   5.550  0.5218 -1.3354  1.1586
  172SAPS   H7Y19578  -0.098   0.440   5.575 -0.5741  0.2821 -0.9489
  172SAPS   C3819579  -0.112   0.242   5.517 -0.5684  0.2239 -0.4498
  172SAPS   H8X19580  -0.213   0.228   5.559  0.1600  0.9117  1.6105
  172SAPS   H8Y19581  -0.068   0.141   5.536 -0.9696  0.1367  0.0155
  172SAPS   C3919582  -0.114   0.257   5.362 -0.1294 -0.0297  0.5182
  172SAPS   H9X19583  -0.168   0.351   5.338 -1.1800 -0.3718  1.4325
  172SAPS   H9Y19584  -0.182   0.176   5.329  0.7428 -0.8413  0.6931
  172SAPS  C31019585   0.024   0.237   5.296 -0.0707 -0.0297 -0.1969
  172SAPS  H10X19586   0.075   0.139   5.312 -0.6601 -1.1760 -4.2938
  172SAPS  H10Y19587   0.099   0.306   5.340  0.5201 -1.3834  1.0287
  172SAPS  C31119588   0.024   0.261   5.141  0.1722  0.3892  0.4736
  172SAPS  H11X19589  -0.031   0.354   5.115 -1.0735  0.1845  2.2214
  172SAPS  H11Y19590  -0.048   0.186   5.103  2.2486 -0.6025 -1.8105
  172SAPS  C31219591   0.168   0.252   5.087  0.4795  0.1345  0.0005
  172SAPS  H12X19592   0.207   0.150   5.102 -0.9616 -0.5183 -0.5309
  172SAPS  H12Y19593   0.233   0.329   5.135 -1.6245  0.4822  2.5457
  172SAPS  C31319594   0.176   0.280   4.937  0.7353 -0.2862  0.2238
  172SAPS  H13X19595   0.154   0.386   4.913  4.6457  0.4320 -0.9326
  172SAPS  H13Y19596   0.099   0.216   4.889  0.4753 -1.4742  2.1083
  172SAPS  C31419597   0.318   0.242   4.881  0.7069  0.2762 -0.0873
  172SAPS  H14X19598   0.324   0.131   4.887 -0.6545  0.0690 -1.9362
  172SAPS  H14Y19599   0.396   0.284   4.948 -0.0213  1.0739  0.2752
  172SAPS  C31519600   0.325   0.273   4.735 -0.3512  1.2011  0.1130
  172SAPS  H15X19601   0.291   0.369   4.691  0.6119  0.7208 -1.8230
  172SAPS  H15Y19602   0.257   0.198   4.690 -0.3761  0.2655  1.6298
  172SAPS  C31619603   0.464   0.233   4.681 -0.3055 -0.0446  0.6437
  172SAPS  H16X19604   0.526   0.322   4.705 -0.6187 -0.2164  2.1440
  172SAPS  H16Y19605   0.505   0.141   4.727 -0.6300 -0.2042  0.6179
  172SAPS  C31719606   0.468   0.215   4.526  0.3725 -0.6641 -0.8905
  172SAPS  H17X19607   0.410   0.302   4.489 -1.5753 -0.8068  1.5744
  172SAPS  H17Y19608   0.404   0.131   4.492 -0.9658  0.1841 -0.5147
  172SAPS  C31819609   0.608   0.210   4.470 -0.0062 -0.6942  0.2642
  172SAPS  H18X19610   0.606   0.220   4.360  0.7887 -1.6397  0.1564
  172SAPS  H18Y19611   0.652   0.112   4.498 -0.5344 -0.6895  1.1647
  172SAPS  H18Z19612   0.668   0.288   4.522 -3.1082  0.1596  2.8722
  173SAPS     N19613   2.067   5.704   1.901  0.0739 -0.1647  0.1294
  173SAPS   HN119614   2.036   5.744   1.811  1.7677  0.8219 -0.0519
  173SAPS   HN219615   2.063   5.601   1.910  2.3568 -0.2404  0.9378
  173SAPS   HN319616   2.005   5.733   1.980  1.5989 -1.5117  1.9323
  173SAPS   C1219617   2.210   5.757   1.936 -0.2569  0.1971 -0.2026
  173SAPS  H12A19618   2.271   5.758   1.846  0.0309 -4.1175 -0.2611
  173SAPS   C1319619   2.212   5.908   1.987  0.1534  0.9056  0.2388
  173SAPS  O13A19620   2.105   5.979   1.975  0.1235 -0.3385 -0.2522
  173SAPS  O13B19621   2.320   5.956   2.026  0.7221 -0.0245  0.0022
  173SAPS   C1119622   2.291   5.674   2.038  0.6526 -0.0277 -0.2694
  173SAPS  H11A19623   2.238   5.679   2.135  0.6438  0.6382 -0.3024
  173SAPS  H11B19624   2.393   5.716   2.051  0.5067 -0.1117  1.3240
  173SAPS     P19625   2.222   5.414   2.017  0.4547  0.0360 -0.1885
  173SAPS   O1319626   2.102   5.452   1.935 -0.1690 -0.2399  0.0629
  173SAPS   O1419627   2.297   5.297   1.968  0.2195  0.1169  0.1687
  173SAPS   O1219628   2.320   5.539   2.004 -0.3911  0.2842 -0.6605
  173SAPS   O1119629   2.184   5.407   2.171  0.1539  0.0798 -0.5684
  173SAPS    C119630   2.287   5.408   2.270  0.1809 -0.3341  0.3301
  173SAPS    HA19631   2.368   5.478   2.241  2.4423 -2.2847  1.5889
  173SAPS    HB19632   2.245   5.449   2.365  0.8418 -0.5642  0.7299
  173SAPS    C219633   2.350   5.274   2.316 -0.0005  0.3891  0.3412
  173SAPS    HS19634   2.365   5.210   2.226  0.3995  1.7992 -0.6322
  173SAPS   O2119635   2.258   5.205   2.399  0.3023 -0.1902  0.0672
  173SAPS   C2119636   2.286   5.079   2.434  0.5496  0.7011  0.5802
  173SAPS   O2219637   2.377   5.012   2.387 -0.3780 -0.1988 -0.0135
  173SAPS   C2219638   2.190   5.048   2.541  0.2405 -0.3364 -0.2192
  173SAPS   H2R19639   2.157   5.142   2.591  1.4379  0.0928 -0.2137
  173SAPS   H2S19640   2.096   5.025   2.485 -0.0968  0.1868  0.1150
  173SAPS    C319641   2.484   5.294   2.382 -0.2341  0.8098  0.0357
  173SAPS    HX19642   2.553   5.336   2.306  0.4736 -0.5092 -0.0781
  173SAPS    HY19643   2.518   5.190   2.406  0.9046  1.2200  0.2817
  173SAPS   O3119644   2.468   5.374   2.501 -0.5963 -0.1055  0.3851
  173SAPS   C3119645   2.520   5.495   2.506 -0.1808  0.1859 -0.5380
  173SAPS   O3219646   2.595   5.540   2.420 -0.2125  0.5686 -0.3583
  173SAPS   C3219647   2.473   5.570   2.638 -0.1540  0.2364  0.2255
  173SAPS   H2X19648   2.444   5.489   2.709 -0.0407 -2.1156 -2.2418
  173SAPS   H2Y19649   2.386   5.633   2.611 -0.0808  0.1384 -0.2510
  173SAPS   C2319650   2.234   4.934   2.638  0.4111  0.1245 -1.0742
  173SAPS   H3R19651   2.264   4.842   2.583 -0.3844 -1.3210  0.7929
  173SAPS   H3S19652   2.138   4.908   2.687  0.3756 -0.8928 -1.6610
  173SAPS   C2419653   2.339   4.977   2.740 -0.2500 -0.8276  0.7036
  173SAPS   H4R19654   2.437   4.998   2.693 -0.1795 -1.1891  0.6846
  173SAPS   H4S19655   2.350   4.887   2.804 -0.7773 -0.5398  1.2057
  173SAPS   C2519656   2.310   5.101   2.822 -0.1842 -0.0843 -0.2239
  173SAPS   H5R19657   2.343   5.192   2.770 -0.5535  0.3418  0.2831
  173SAPS   C2619658   2.265   5.112   2.950 -0.1226  0.2609  0.4840
  173SAPS   H6R19659   2.233   5.206   2.998  0.6371 -1.6196  5.2709
  173SAPS   C2719660   2.238   4.994   3.038  0.5132 -1.1395  0.8773
  173SAPS   H7R19661   2.337   4.968   3.081  0.4124 -0.5233  1.4913
  173SAPS   H7S19662   2.216   4.906   2.974 -0.9444 -1.1574  1.3677
  173SAPS   C2819663   2.137   5.013   3.147  0.4025  0.3360  1.0015
  173SAPS   H8R19664   2.047   5.064   3.109  0.9969  0.8999  0.2999
  173SAPS   C2919665   2.144   4.977   3.278  0.2641  0.5859  0.1702
  173SAPS   H9R19666   2.056   4.999   3.341 -0.3302 -0.4886 -0.2658
  173SAPS  C21019667   2.260   4.901   3.348 -0.0654 -0.6015  0.5637
  173SAPS  H10R19668   2.305   4.976   3.416  0.4361 -0.5316  0.1632
  173SAPS  H10S19669   2.336   4.869   3.273 -0.2921  0.1000  0.0197
  173SAPS  C21119670   2.209   4.782   3.412 -0.1699  0.2634 -0.0510
  173SAPS  H11R19671   2.239   4.689   3.362  1.3211  0.6366  0.1131
  173SAPS  C21219672   2.159   4.771   3.536  0.2320 -0.2296  0.1586
  173SAPS  H12R19673   2.113   4.675   3.564  1.5792 -0.5475  1.4247
  173SAPS  C21319674   2.132   4.888   3.621 -0.1757 -0.5754 -0.6250
  173SAPS  H13R19675   2.031   4.882   3.668 -0.4346  1.1689 -0.8743
  173SAPS  H13S19676   2.139   4.986   3.570  0.7129 -0.7302 -0.8129
  173SAPS  C21419677   2.228   4.898   3.739 -0.4582  0.7076 -0.4550
  173SAPS  H14R19678   2.311   4.826   3.732  1.1496  2.6820 -3.9424
  173SAPS  C21519679   2.217   4.977   3.844  0.2478  0.1616 -0.4668
  173SAPS  H15R19680   2.299   4.975   3.918 -1.0135  1.3725  1.0346
  173SAPS  C21619681   2.120   5.091   3.861  0.2381  0.5625  0.5347
  173SAPS  H16R19682   2.020   5.055   3.893  0.7789 -0.6884  0.8375
  173SAPS  H16S19683   2.111   5.154   3.769  1.5315  1.1268  0.7704
  173SAPS  C21719684   2.166   5.191   3.970 -0.2470 -0.4553  0.7113
  173SAPS  H17R19685   2.169   5.139   4.068 -1.2652 -0.5097  0.7245
  173SAPS  H17S19686   2.087   5.268   3.979 -2.3826 -2.4283 -0.2010
  173SAPS  C21819687   2.299   5.259   3.933  0.4192  0.5053  0.7969
  173SAPS  H18R19688   2.297   5.277   3.823  0.2563 -0.0713  0.7006
  173SAPS  H18S19689   2.389   5.195   3.944  2.3038  2.9304  0.3542
  173SAPS  C21919690   2.324   5.385   4.012 -0.3734  0.0147  0.0830
  173SAPS  H19R19691   2.247   5.463   3.992  1.0599  1.1091 -1.4950
  173SAPS  H19S19692   2.417   5.432   3.973 -1.7002  3.1213  0.3452
  173SAPS  C22019693   2.339   5.360   4.168 -0.0339 -0.7638  0.4408
  173SAPS  H20R19694   2.243   5.322   4.209  0.3029 -1.3718  0.6835
  173SAPS  H20S19695   2.362   5.456   4.218 -0.7168 -0.1043 -0.4806
  173SAPS  H20T19696   2.424   5.289   4.184  1.3248  1.2741  3.1442
  173SAPS   C3319697   2.580   5.662   2.693 -0.2748 -0.2640 -0.2181
  173SAPS   H3X19698   2.638   5.714   2.613  0.9720  0.1251  0.9029
  173SAPS   H3Y19699   2.649   5.586   2.737 -0.9885 -1.3210 -0.8557
  173SAPS   C3419700   2.526   5.771   2.783  0.5298 -0.5056  0.1078
  173SAPS   H4X19701   2.427   5.805   2.747  0.2838 -1.0114  0.3029
  173SAPS   H4Y19702   2.605   5.849   2.790  0.5886 -0.7057  2.2367
  173SAPS   C3519703   2.512   5.708   2.919  0.0870  0.5381  0.0740
  173SAPS   H5X19704   2.610   5.669   2.955 -0.1837 -0.8972 -0.6823
  173SAPS   H5Y19705   2.441   5.623   2.910  0.8376  0.0470 -1.4425
  173SAPS   C3619706   2.452   5.809   3.018 -0.3358  0.9298  0.2931
  173SAPS   H6X19707   2.341   5.816   3.011 -0.5792 -1.0495  1.3557
  173SAPS   H6Y19708   2.504   5.900   2.981  0.8417 -0.5540 -1.9025
  173SAPS   C3719709   2.486   5.777   3.164 -0.8253 -0.1224  0.2925
  173SAPS   H7X19710   2.589   5.810   3.191 -1.0738  3.3649 -2.3599
  173SAPS   H7Y19711   2.495   5.667   3.178 -0.1287 -0.1908 -0.6007
  173SAPS   C3819712   2.390   5.834   3.269  0.2338  0.1381  0.8670
  173SAPS   H8X19713   2.289   5.809   3.231  0.6706  0.1198 -0.3538
  173SAPS   H8Y19714   2.388   5.946   3.271 -2.2740  0.1670  0.1785
  173SAPS   C3919715   2.409   5.785   3.413  0.6372  0.0505  0.4762
  173SAPS   H9X19716   2.515   5.802   3.441  0.7946 -0.8250  0.4301
  173SAPS   H9Y19717   2.409   5.674   3.414  0.6316  0.0281 -0.5982
  173SAPS  C31019718   2.317   5.842   3.521 -0.6465 -1.2026 -0.2237
  173SAPS  H10X19719   2.213   5.820   3.489 -0.0601 -0.1353 -3.2195
  173SAPS  H10Y19720   2.329   5.951   3.538 -2.1840 -1.1817  0.8685
  173SAPS  C31119721   2.346   5.779   3.663 -0.1148 -0.1293 -0.2628
  173SAPS  H11X19722   2.451   5.792   3.695 -0.5355  1.3313  0.6512
  173SAPS  H11Y19723   2.325   5.670   3.651 -1.4951  0.0645  0.1060
  173SAPS  C31219724   2.251   5.836   3.775 -0.1225  0.0708 -0.3585
  173SAPS  H12X19725   2.149   5.850   3.735  0.5379 -0.2174 -2.2489
  173SAPS  H12Y19726   2.280   5.941   3.795 -1.2067 -0.1179  2.8037
  173SAPS  C31319727   2.257   5.749   3.900  0.2425 -0.1574 -0.5457
  173SAPS  H13X19728   2.364   5.725   3.915  0.2613  0.0050 -0.4116
  173SAPS  H13Y19729   2.201   5.653   3.890  1.6523 -1.7073  3.7973
  173SAPS  C31419730   2.209   5.817   4.035 -0.0575 -0.0058  0.5562
  173SAPS  H14X19731   2.109   5.865   4.031  1.0383  2.4395  0.3749
  173SAPS  H14Y19732   2.285   5.896   4.054  1.3269 -1.0950 -0.2464
  173SAPS  C31519733   2.228   5.718   4.150 -0.5441  0.4301 -0.3915
  173SAPS  H15X19734   2.322   5.661   4.148 -1.3311 -0.9229  0.0961
  173SAPS  H15Y19735   2.145   5.646   4.131  0.4244 -0.5958 -0.7900
  173SAPS  C31619736   2.237   5.788   4.288 -0.6589 -0.4379 -0.7278
  173SAPS  H16X19737   2.134   5.821   4.309 -0.6822 -1.3232  0.6234
  173SAPS  H16Y19738   2.302   5.878   4.285 -1.5715  0.2033 -2.4081
  173SAPS  C31719739   2.272   5.696   4.409 -0.0731 -0.0105  0.0959
  173SAPS  H17X19740   2.360   5.633   4.384  1.4127  2.0014  0.0519
  173SAPS  H17Y19741   2.190   5.626   4.435 -1.6816  2.8161  3.4684
  173SAPS  C31819742   2.305   5.772   4.539 -0.2577 -0.0126 -0.9109
  173SAPS  H18X19743   2.395   5.829   4.507  1.1890  0.2238  3.0297
  173SAPS  H18Y19744   2.334   5.698   4.616 -1.0318 -0.6592 -1.2288
  173SAPS  H18Z19745   2.220   5.833   4.578  0.3661  1.3129 -1.5613
  174SAPS     N19746   4.553   6.515   1.768 -0.8072 -0.1416  0.0984
  174SAPS   HN119747   4.508   6.577   1.698 -2.0531 -0.9239  0.1917
  174SAPS   HN219748   4.535   6.416   1.746  0.8426 -0.7224  1.1278
  174SAPS   HN319749   4.549   6.531   1.871 -1.1683 -3.3235  0.6694
  174SAPS   C1219750   4.698   6.536   1.728  0.2393 -0.9178  0.6655
  174SAPS  H12A19751   4.695   6.487   1.631 -0.9052  1.6090 -0.6733
  174SAPS   C1319752   4.735   6.683   1.688 -0.1076  0.2449 -0.6792
  174SAPS  O13A19753   4.644   6.771   1.690 -0.2914 -0.1130  0.4162
  174SAPS  O13B19754   4.859   6.707   1.689 -0.2803  0.1679 -0.3437
  174SAPS   C1119755   4.795   6.483   1.844  0.0741 -0.0003 -0.2547
  174SAPS  H11A19756   4.786   6.562   1.921 -0.4491  0.2286 -0.5482
  174SAPS  H11B19757   4.901   6.482   1.809  0.5625  1.0904  1.0791
  174SAPS     P19758   4.824   6.228   1.931  0.2194 -0.1737  0.4320
  174SAPS   O1319759   4.735   6.128   1.981 -0.0834  1.1346 -0.1594
  174SAPS   O1419760   4.906   6.191   1.814 -0.1561  0.3654 -0.5687
  174SAPS   O1219761   4.743   6.359   1.892  0.2716 -0.6966 -0.4445
  174SAPS   O1119762   4.922   6.287   2.044  0.2221 -0.0791  0.7130
  174SAPS    C119763   4.872   6.387   2.135  0.2466  0.1708  0.1296
  174SAPS    HA19764   4.922   6.485   2.125 -1.0021  0.8815  0.6867
  174SAPS    HB19765   4.766   6.402   2.107  0.1118 -1.2302 -0.1879
  174SAPS    C219766   4.891   6.331   2.274  0.0400  0.1319 -0.1006
  174SAPS    HS19767   4.845   6.393   2.353 -0.4030  2.1925 -1.8762
  174SAPS   O2119768   5.028   6.300   2.303  0.0482 -0.2304 -0.7286
  174SAPS   C2119769   5.094   6.416   2.329  0.2319  0.0127  0.1417
  174SAPS   O2219770   5.042   6.524   2.346 -0.3181  0.2745  0.2073
  174SAPS   C2219771   5.239   6.381   2.357 -0.8427  0.1137  0.2985
  174SAPS   H2R19772   5.265   6.278   2.324  2.5972  0.3822  1.7607
  174SAPS   H2S19773   5.293   6.464   2.306 -1.0510 -0.0231 -0.1464
  174SAPS    C319774   4.801   6.200   2.292  0.1413  0.2897  0.9592
  174SAPS    HX19775   4.832   6.128   2.213 -3.3240 -0.0948 -0.2303
  174SAPS    HY19776   4.695   6.229   2.277  0.8170  2.9597  0.9464
  174SAPS   O3119777   4.799   6.148   2.421 -0.0036  0.3898  0.4820
  174SAPS   C3119778   4.846   6.022   2.436  0.8495  0.5244 -0.0865
  174SAPS   O3219779   4.923   5.968   2.361  0.1947  0.4641  0.3470
  174SAPS   C3219780   4.780   5.959   2.558 -0.5400 -0.3834 -0.0859
  174SAPS   H2X19781   4.689   5.909   2.518  0.4838 -2.1490 -0.2686
  174SAPS   H2Y19782   4.745   6.035   2.631  1.8257 -0.9309  1.7343
  174SAPS   C2319783   5.286   6.394   2.503  0.5694  0.0282 -0.1649
  174SAPS   H3R19784   5.283   6.499   2.539  3.0717 -0.1856  0.8746
  174SAPS   H3S19785   5.395   6.374   2.512  1.0687  0.6773 -3.4793
  174SAPS   C2419786   5.197   6.331   2.608  0.9540 -0.3634 -0.6131
  174SAPS   H4R19787   5.093   6.371   2.599  0.4148 -0.2313  3.9122
  174SAPS   H4S19788   5.224   6.358   2.712 -1.1890 -2.5416  0.6047
  174SAPS   C2519789   5.182   6.181   2.596 -0.4965  0.3369 -0.6821
  174SAPS   H5R19790   5.137   6.144   2.503 -2.0900 -2.3751  1.0185
  174SAPS   C2619791   5.222   6.092   2.689 -0.7967 -0.1200 -0.3293
  174SAPS   H6R19792   5.209   5.983   2.680  2.1556 -0.7201  1.2866
  174SAPS   C2719793   5.290   6.121   2.821 -0.5559 -0.0023 -0.7889
  174SAPS   H7R19794   5.319   6.227   2.840  1.0245 -0.6197  0.4460
  174SAPS   H7S19795   5.384   6.062   2.821 -1.5050 -1.6007  0.7981
  174SAPS   C2819796   5.210   6.070   2.943  0.2924  0.1828 -0.1679
  174SAPS   H8R19797   5.145   5.985   2.916  0.6994 -0.7728  1.6958
  174SAPS   C2919798   5.202   6.104   3.070  0.2288 -0.3611 -0.0850
  174SAPS   H9R19799   5.140   6.037   3.132 -0.2204  1.6257  1.7167
  174SAPS  C21019800   5.274   6.220   3.135 -0.0275 -0.6203 -0.7214
  174SAPS  H10R19801   5.333   6.282   3.064  2.2188 -1.8991 -0.0729
  174SAPS  H10S19802   5.357   6.166   3.185 -0.3747 -1.0558 -0.6085
  174SAPS  C21119803   5.170   6.298   3.215  0.4657  0.1126 -0.1236
  174SAPS  H11R19804   5.102   6.358   3.153 -0.0797  0.2424  0.5946
  174SAPS  C21219805   5.160   6.310   3.347 -0.0498  0.0006  0.9528
  174SAPS  H12R19806   5.083   6.380   3.382  0.5739  0.3206  1.7130
  174SAPS  C21319807   5.248   6.233   3.443 -0.2199  0.1241  0.6366
  174SAPS  H13R19808   5.283   6.302   3.523 -1.9446 -0.7810  2.2440
  174SAPS  H13S19809   5.342   6.193   3.399 -1.3846 -2.1291  0.0981
  174SAPS  C21419810   5.173   6.116   3.497  0.4570  0.1117 -0.0555
  174SAPS  H14R19811   5.115   6.064   3.419 -0.6320 -0.3762  1.0379
  174SAPS  C21519812   5.180   6.056   3.617  0.5568  0.2524 -0.3211
  174SAPS  H15R19813   5.117   5.973   3.653  2.3313 -1.1417 -0.3388
  174SAPS  C21619814   5.267   6.113   3.731  0.5445 -0.0602 -0.0496
  174SAPS  H16R19815   5.331   6.195   3.692 -0.5391  1.1499  0.6166
  174SAPS  H16S19816   5.322   6.032   3.783 -0.9504 -1.2978 -0.3030
  174SAPS  C21719817   5.190   6.192   3.846 -0.0277 -0.6853 -0.3417
  174SAPS  H17R19818   5.114   6.119   3.880  0.2269 -0.3357  1.0462
  174SAPS  H17S19819   5.131   6.271   3.795 -0.0780 -0.0665  0.6507
  174SAPS  C21819820   5.274   6.242   3.966  0.9798  0.0958  0.5396
  174SAPS  H18R19821   5.350   6.318   3.940  1.6928 -0.5168  0.8137
  174SAPS  H18S19822   5.335   6.155   3.999  2.2483 -0.6288 -3.1751
  174SAPS  C21919823   5.180   6.310   4.074  0.4477  0.0808  0.1388
  174SAPS  H19R19824   5.093   6.241   4.082  0.6152 -0.2094 -0.4641
  174SAPS  H19S19825   5.142   6.408   4.037 -2.2402  0.3222  3.0830
  174SAPS  C22019826   5.246   6.322   4.214  0.2857  0.9957  0.0348
  174SAPS  H20R19827   5.240   6.231   4.276 -0.4275  2.3554  2.0844
  174SAPS  H20S19828   5.203   6.410   4.267  1.8623  2.4621 -0.9744
  174SAPS  H20T19829   5.349   6.363   4.210  0.0797  1.8326  2.0538
  174SAPS   C3319830   4.860   5.861   2.648 -0.8733  0.6630  1.0874
  174SAPS   H3X19831   4.928   5.911   2.720  1.3554 -1.4179  0.5608
  174SAPS   H3Y19832   4.919   5.796   2.579 -0.4868  1.5943  0.5190
  174SAPS   C3419833   4.765   5.766   2.722 -0.4488  0.2799  0.0763
  174SAPS   H4X19834   4.807   5.668   2.755 -0.1363 -0.1817 -1.5668
  174SAPS   H4Y19835   4.689   5.738   2.645  1.0600  1.4566 -1.9439
  174SAPS   C3519836   4.699   5.829   2.853  0.3153 -0.7606 -0.4672
  174SAPS   H5X19837   4.615   5.768   2.894 -1.0594  0.1155 -1.8846
  174SAPS   H5Y19838   4.647   5.922   2.822 -1.5895 -1.1510  1.3134
  174SAPS   C3619839   4.806   5.849   2.970 -0.0726 -0.0906  0.4970
  174SAPS   H6X19840   4.901   5.900   2.941  0.9756 -1.9185  0.5405
  174SAPS   H6Y19841   4.843   5.746   2.988  0.4049  0.1486  0.9436
  174SAPS   C3719842   4.746   5.889   3.112  0.4905  0.4243  0.1047
  174SAPS   H7X19843   4.652   5.831   3.126 -0.0138  1.3971  0.8379
  174SAPS   H7Y19844   4.712   5.994   3.099 -2.4401 -0.4218  0.1990
  174SAPS   C3819845   4.832   5.853   3.240  0.6224  0.2802 -0.1983
  174SAPS   H8X19846   4.919   5.921   3.230 -0.7158  1.7533 -2.8339
  174SAPS   H8Y19847   4.858   5.745   3.239 -0.8359 -0.1088 -1.8758
  174SAPS   C3919848   4.756   5.861   3.382 -0.0102  0.4958  0.3234
  174SAPS   H9X19849   4.670   5.791   3.376  0.8377 -0.5299 -0.0777
  174SAPS   H9Y19850   4.720   5.966   3.386 -0.3355  0.3539  1.6081
  174SAPS  C31019851   4.847   5.833   3.505  0.2196 -0.1348  0.1895
  174SAPS  H10X19852   4.932   5.904   3.507 -0.2589  0.4603 -0.0804
  174SAPS  H10Y19853   4.888   5.730   3.505 -1.1723 -0.7349 -0.9503
  174SAPS  C31119854   4.769   5.857   3.627  0.4404  0.6596  0.1024
  174SAPS  H11X19855   4.674   5.799   3.622  1.2926 -1.0365  2.0467
  174SAPS  H11Y19856   4.739   5.963   3.639 -1.1221  0.0142  2.5666
  174SAPS  C31219857   4.833   5.815   3.760  0.3756  0.0375  0.1497
  174SAPS  H12X19858   4.936   5.853   3.769  1.0490 -2.1272  3.1547
  174SAPS  H12Y19859   4.843   5.704   3.769 -2.4649 -0.4051 -0.9504
  174SAPS  C31319860   4.757   5.862   3.881  0.1871 -0.2279 -0.2658
  174SAPS  H13X19861   4.772   5.790   3.965  3.0684  0.2178 -0.3001
  174SAPS  H13Y19862   4.647   5.869   3.868  0.0509  0.9900  1.2781
  174SAPS  C31419863   4.804   6.001   3.928 -0.0159 -0.0836  0.5811
  174SAPS  H14X19864   4.794   6.077   3.847 -1.4702  1.6255  2.2932
  174SAPS  H14Y19865   4.911   5.992   3.957 -0.4594  1.4551  3.0329
  174SAPS  C31519866   4.725   6.063   4.045 -0.0922 -0.1673  0.0796
  174SAPS  H15X19867   4.766   6.166   4.052 -1.8862  0.6732 -1.0724
  174SAPS  H15Y19868   4.740   6.003   4.138 -1.8321 -1.5439 -0.4638
  174SAPS  C31619869   4.583   6.115   4.019  0.4870  0.9797 -0.0602
  174SAPS  H16X19870   4.517   6.025   4.024 -1.5746  2.4819  1.9476
  174SAPS  H16Y19871   4.579   6.153   3.915  1.2030 -0.3297 -0.5879
  174SAPS  C31719872   4.517   6.224   4.110 -0.1434  0.6787 -0.2126
  174SAPS  H17X19873   4.422   6.248   4.058  0.1969  2.4937 -0.0372
  174SAPS  H17Y19874   4.578   6.316   4.105  1.5881 -0.4311 -0.4419
  174SAPS  C31819875   4.489   6.175   4.257 -0.1594  0.1014  0.0976
  174SAPS  H18X19876   4.408   6.100   4.255  0.1267 -0.2002 -0.6998
  174SAPS  H18Y19877   4.451   6.264   4.313 -0.2240 -1.2488  2.3264
  174SAPS  H18Z19878   4.577   6.125   4.303  0.4486  0.5069 -0.5940
  175SAPS     N19879   2.494   4.151   1.798  0.7370  0.4621  0.6914
  175SAPS   HN119880   2.455   4.210   1.875 -3.1609 -3.5885  2.2979
  175SAPS   HN219881   2.425   4.104   1.736  0.3316  1.5332  0.3082
  175SAPS   HN319882   2.534   4.072   1.853 -0.0253 -0.6961 -0.3671
  175SAPS   C1219883   2.609   4.220   1.735 -0.0360 -0.5853 -0.3970
  175SAPS  H12A19884   2.671   4.144   1.690  0.4651 -0.0219 -0.6788
  175SAPS   C1319885   2.563   4.320   1.627 -0.3828 -0.7811 -0.0432
  175SAPS  O13A19886   2.440   4.342   1.606 -0.3157 -0.0597  0.5768
  175SAPS  O13B19887   2.649   4.365   1.545 -0.5678  0.1094 -0.4149
  175SAPS   C1119888   2.680   4.295   1.854 -0.3698  0.2372  0.6522
  175SAPS  H11A19889   2.627   4.385   1.894 -1.3616  0.0074 -0.0910
  175SAPS  H11B19890   2.766   4.338   1.799  0.4693 -2.3998 -0.2504
  175SAPS     P19891   2.860   4.149   1.977  0.0588 -0.0752 -0.4391
  175SAPS   O1319892   2.876   4.017   1.910  0.1399 -0.1049  0.5299
  175SAPS   O1419893   2.955   4.256   1.950 -0.4870  0.4040 -0.4108
  175SAPS   O1219894   2.712   4.196   1.955 -0.7677 -0.2928  0.3739
  175SAPS   O1119895   2.854   4.133   2.132 -0.6220  0.2995 -0.2300
  175SAPS    C119896   2.797   4.231   2.218 -0.6514 -0.1735  0.1109
  175SAPS    HA19897   2.800   4.333   2.174 -1.5613 -0.1059  0.1710
  175SAPS    HB19898   2.688   4.213   2.235 -0.2841 -1.1798  1.6144
  175SAPS    C219899   2.860   4.222   2.357 -0.4322 -0.0593  0.4588
  175SAPS    HS19900   2.970   4.231   2.350 -0.4848 -0.3282 -1.1948
  175SAPS   O2119901   2.817   4.094   2.419  0.6439 -0.1366  0.3397
  175SAPS   C2119902   2.893   4.052   2.525  0.1600 -0.4875 -0.2469
  175SAPS   O2219903   3.005   4.097   2.550  0.1793 -0.2157 -0.0811
  175SAPS   C2219904   2.843   3.913   2.558 -0.3148 -0.0149 -0.0069
  175SAPS   H2R19905   2.733   3.921   2.553 -0.3264  0.9462  1.1815
  175SAPS   H2S19906   2.888   3.836   2.492 -1.6425 -1.8297  1.1096
  175SAPS    C319907   2.808   4.334   2.444 -0.0501 -0.1826 -0.2550
  175SAPS    HX19908   2.700   4.330   2.468  0.1019  0.3416  0.5929
  175SAPS    HY19909   2.812   4.427   2.383 -1.9258  0.0180 -0.1230
  175SAPS   O3119910   2.868   4.344   2.567 -0.3370  0.0842  0.1794
  175SAPS   C3119911   2.983   4.416   2.580 -0.5500  0.2654 -0.0514
  175SAPS   O3219912   3.012   4.503   2.496 -0.2686  0.1506  0.2854
  175SAPS   C3219913   3.050   4.387   2.715  0.6257  0.1902  0.5715
  175SAPS   H2X19914   3.117   4.299   2.700  1.6324  0.7635  1.5237
  175SAPS   H2Y19915   2.979   4.363   2.797 -1.0228 -3.6118 -1.7194
  175SAPS   C2319916   2.889   3.860   2.703  0.1990 -0.2842  0.4611
  175SAPS   H3R19917   2.989   3.892   2.741  0.2608 -0.0435  0.1047
  175SAPS   H3S19918   2.885   3.749   2.709 -0.4540 -0.2367  1.0054
  175SAPS   C2419919   2.786   3.895   2.811 -0.1593 -0.0597 -0.3837
  175SAPS   H4R19920   2.826   3.855   2.906  1.9090  2.2007 -0.2102
  175SAPS   H4S19921   2.686   3.848   2.801 -0.6213  0.5716  1.0423
  175SAPS   C2519922   2.771   4.048   2.828  0.4251  0.4865 -0.4541
  175SAPS   H5R19923   2.861   4.094   2.873  1.1360 -1.4851  0.2455
  175SAPS   C2619924   2.669   4.131   2.800  0.2890  0.0041 -0.9409
  175SAPS   H6R19925   2.682   4.240   2.809  0.2663  0.2167 -3.0135
  175SAPS   C2719926   2.543   4.080   2.738  0.6039 -0.2090  0.0803
  175SAPS   H7R19927   2.532   3.970   2.748  0.2701 -0.1341  0.5703
  175SAPS   H7S19928   2.539   4.096   2.628  1.0575 -1.3830 -0.1146
  175SAPS   C2819929   2.411   4.137   2.778  0.3671  0.8170 -0.7443
  175SAPS   H8R19930   2.338   4.165   2.701 -0.4820  2.4633  0.5825
  175SAPS   C2919931   2.354   4.133   2.905  0.4481  0.6775 -0.0670
  175SAPS   H9R19932   2.247   4.158   2.912  0.3728 -0.0139  1.5421
  175SAPS  C21019933   2.413   4.087   3.040  0.5453  0.2912 -0.2382
  175SAPS  H10R19934   2.514   4.131   3.050  1.4194 -1.4334 -1.0202
  175SAPS  H10S19935   2.425   3.977   3.045 -2.0041 -0.2995 -3.3727
  175SAPS  C21119936   2.322   4.128   3.151  0.1634 -0.2788 -0.2409
  175SAPS  H11R19937   2.224   4.164   3.117 -0.3144  0.6687  1.9755
  175SAPS  C21219938   2.340   4.105   3.280  0.5646  0.0491 -0.0940
  175SAPS  H12R19939   2.262   4.143   3.348  0.6162  0.1283 -0.0791
  175SAPS  C21319940   2.473   4.050   3.329  0.4871 -0.1179 -0.0639
  175SAPS  H13R19941   2.548   4.030   3.250  0.5339  0.0178 -0.0547
  175SAPS  H13S19942   2.459   3.954   3.383 -1.3020 -0.4398 -1.0161
  175SAPS  C21419943   2.529   4.160   3.421  0.0210  0.1572 -0.3845
  175SAPS  H14R19944   2.555   4.259   3.381  3.2273 -1.2628 -2.2846
  175SAPS  C21519945   2.574   4.138   3.543  0.2599  0.0534  0.6576
  175SAPS  H15R19946   2.606   4.227   3.599  0.1435 -1.0286  2.5323
  175SAPS  C21619947   2.570   4.021   3.636  0.5976 -0.0866  0.3508
  175SAPS  H16R19948   2.514   3.936   3.591  1.0561  0.6374 -1.7116
  175SAPS  H16S19949   2.514   4.048   3.727 -0.9822 -1.7955 -0.0688
  175SAPS  C21719950   2.708   3.960   3.658  0.2210 -0.1582 -0.2928
  175SAPS  H17R19951   2.789   4.031   3.687  1.2748 -1.0024 -1.0389
  175SAPS  H17S19952   2.752   3.926   3.562  1.9070 -0.9638  0.7188
  175SAPS  C21819953   2.698   3.838   3.745 -0.0736 -0.2324 -0.1514
  175SAPS  H18R19954   2.639   3.761   3.689  0.1521 -0.2528 -0.3594
  175SAPS  H18S19955   2.635   3.856   3.835 -0.5662 -1.7630 -0.1589
  175SAPS  C21919956   2.835   3.788   3.789  0.9515 -0.1669  0.2569
  175SAPS  H19R19957   2.900   3.820   3.705  1.8131 -3.0529 -0.2948
  175SAPS  H19S19958   2.843   3.677   3.788 -2.3196 -0.5065  0.2298
  175SAPS  C22019959   2.893   3.844   3.918 -0.0011  0.2416  0.0411
  175SAPS  H20R19960   2.997   3.805   3.923 -0.7692 -2.2247 -1.5959
  175SAPS  H20S19961   2.831   3.821   4.007 -0.0905  1.2655  0.2605
  175SAPS  H20T19962   2.898   3.955   3.912 -1.1893  0.3836  1.1891
  175SAPS   C3319963   3.134   4.513   2.748  0.5936  0.3097  0.2966
  175SAPS   H3X19964   3.195   4.539   2.658  1.7014 -3.3244 -0.1394
  175SAPS   H3Y19965   3.205   4.483   2.828  0.1893 -0.4359  0.3765
  175SAPS   C3419966   3.060   4.638   2.789 -0.3562  0.0234  0.8845
  175SAPS   H4X19967   2.977   4.610   2.857  0.9185 -3.6960  1.1580
  175SAPS   H4Y19968   3.009   4.686   2.702 -0.4808  3.0776  2.5136
  175SAPS   C3519969   3.159   4.737   2.858  0.4789 -0.5641  0.1137
  175SAPS   H5X19970   3.094   4.810   2.911  0.5495  1.4006 -2.2843
  175SAPS   H5Y19971   3.225   4.780   2.779 -0.3485  0.9425  0.1986
  175SAPS   C3619972   3.236   4.679   2.977 -0.3755  0.8094 -0.5140
  175SAPS   H6X19973   3.324   4.620   2.944 -0.9705  0.0663 -0.7851
  175SAPS   H6Y19974   3.174   4.617   3.045  0.8105  3.4893  3.3703
  175SAPS   C3719975   3.293   4.778   3.081  0.7793 -0.3069 -0.3053
  175SAPS   H7X19976   3.216   4.853   3.109 -0.6294 -1.3809 -1.1418
  175SAPS   H7Y19977   3.381   4.834   3.041 -0.7556  1.6757 -1.0623
  175SAPS   C3819978   3.342   4.708   3.210 -0.1468 -0.1354 -0.0442
  175SAPS   H8X19979   3.262   4.644   3.253  1.1541 -1.8834 -0.1495
  175SAPS   H8Y19980   3.374   4.787   3.282 -0.2513 -0.1075 -0.0288
  175SAPS   C3919981   3.463   4.612   3.181  0.0361  0.1518 -0.4406
  175SAPS   H9X19982   3.532   4.664   3.110  0.8516  0.3821  0.4987
  175SAPS   H9Y19983   3.420   4.524   3.129  1.5380 -0.6874 -0.3280
  175SAPS  C31019984   3.545   4.567   3.310  0.2412 -0.2842  0.7159
  175SAPS  H10X19985   3.592   4.658   3.352 -0.2262  0.4606 -0.3558
  175SAPS  H10Y19986   3.625   4.490   3.297  0.6584  0.4144 -1.1255
  175SAPS  C31119987   3.460   4.506   3.428 -0.2210 -0.3518 -0.3076
  175SAPS  H11X19988   3.436   4.400   3.403  0.4736 -0.8626  1.0889
  175SAPS  H11Y19989   3.369   4.568   3.438  0.0977 -0.2308  3.0591
  175SAPS  C31219990   3.532   4.489   3.562  0.6366  0.3560  0.0953
  175SAPS  H12X19991   3.588   4.581   3.588  2.3742 -0.4054 -0.7683
  175SAPS  H12Y19992   3.613   4.412   3.559  1.1842  0.9549 -1.1765
  175SAPS  C31319993   3.436   4.451   3.675 -0.4121  0.1061 -0.0468
  175SAPS  H13X19994   3.386   4.357   3.645  2.6199 -1.8201  0.4758
  175SAPS  H13Y19995   3.362   4.534   3.679  1.4968  2.0893 -2.6089
  175SAPS  C31419996   3.506   4.425   3.807  0.1065 -0.5947 -0.2782
  175SAPS  H14X19997   3.563   4.330   3.800 -1.5762 -1.7799  1.3495
  175SAPS  H14Y19998   3.431   4.424   3.889  1.3347 -0.6357  0.8913
  175SAPS  C31519999   3.611   4.535   3.859  0.5009  1.6340 -0.6216
  175SAPS  H15X20000   3.555   4.631   3.852  0.5884  1.5995 -2.3474
  175SAPS  H15Y20001   3.693   4.543   3.783 -1.9584  0.5953 -3.5867
  175SAPS  C31620002   3.657   4.517   4.002  0.0291 -0.1604 -0.5005
  175SAPS  H16X20003   3.718   4.424   4.003  2.2362  1.1683  2.6031
  175SAPS  H16Y20004   3.569   4.511   4.070  2.2642  0.9311  2.6678
  175SAPS  C31720005   3.733   4.635   4.050  0.6240  0.0232 -0.0989
  175SAPS  H17X20006   3.816   4.660   3.980 -0.4856  0.0901 -1.4264
  175SAPS  H17Y20007   3.770   4.607   4.151 -0.9822  0.5147  0.6486
  175SAPS  C31820008   3.644   4.758   4.075 -0.5530 -0.1610  0.0405
  175SAPS  H18X20009   3.685   4.837   4.142 -1.7173  1.1048 -0.7011
  175SAPS  H18Y20010   3.557   4.724   4.136 -0.6845 -0.3416 -0.2486
  175SAPS  H18Z20011   3.623   4.805   3.977  0.1289  1.7529  0.7658
  176SAPS     N20012   1.584   0.164   1.621  0.8599 -0.4967  0.4972
  176SAPS   HN120013   1.634   0.107   1.692 -1.0647 -2.2610  0.5187
  176SAPS   HN220014   1.562   0.102   1.541 -4.8581  2.3479 -0.6785
  176SAPS   HN320015   1.637   0.247   1.588  0.1493 -0.5359 -0.8061
  176SAPS   C1220016   1.447   0.195   1.668 -0.1342 -0.5843 -0.3244
  176SAPS  H12A20017   1.391   0.216   1.578 -2.0018 -1.6978  0.4946
  176SAPS   C1320018   1.361   0.079   1.728  0.0871 -0.4605  0.2390
  176SAPS  O13A20019   1.404  -0.041   1.706  0.3907  0.8126 -0.2427
  176SAPS  O13B20020   1.243   0.106   1.749 -0.4368 -0.2869  0.4862
  176SAPS   C1120021   1.451   0.304   1.783  0.1941 -0.5026  0.1535
  176SAPS  H11A20022   1.349   0.333   1.818 -0.1261  1.9331 -2.4418
  176SAPS  H11B20023   1.486   0.396   1.733  1.3118 -1.5249 -1.0155
  176SAPS     P20024   1.549   0.391   2.000 -0.3291 -0.0088  0.2023
  176SAPS   O1320025   1.617   0.495   1.933  0.8968  0.3271 -0.2318
  176SAPS   O1420026   1.419   0.426   2.062  0.0331 -0.1435  0.3051
  176SAPS   O1220027   1.527   0.260   1.898 -0.1265  0.4044 -0.4107
  176SAPS   O1120028   1.641   0.310   2.106  0.0808 -0.1489 -0.4166
  176SAPS    C120029   1.719   0.388   2.200 -0.1682  0.0858 -0.4821
  176SAPS    HA20030   1.826   0.356   2.196 -0.8522 -2.6225  0.9620
  176SAPS    HB20031   1.721   0.499   2.189  0.2411 -0.0106 -1.5915
  176SAPS    C220032   1.683   0.354   2.344  0.2106 -0.2009 -0.3385
  176SAPS    HS20033   1.573   0.371   2.350  0.3782  1.1703 -0.9699
  176SAPS   O2120034   1.758   0.437   2.437 -0.0574 -0.2564  0.3965
  176SAPS   C2120035   1.697   0.456   2.558 -0.4644 -0.3467  0.8562
  176SAPS   O2220036   1.588   0.417   2.594 -0.0361 -0.7236 -0.3940
  176SAPS   C2220037   1.788   0.544   2.642 -0.6047  0.3810 -0.2829
  176SAPS   H2R20038   1.881   0.486   2.659 -1.2164 -0.8033 -0.8984
  176SAPS   H2S20039   1.805   0.632   2.578  0.3011 -1.0155 -2.0361
  176SAPS    C320040   1.720   0.206   2.366 -0.2059 -0.3563  0.6087
  176SAPS    HX20041   1.830   0.208   2.347 -0.1426  0.9114  0.9836
  176SAPS    HY20042   1.678   0.137   2.290  0.4476 -0.1200  0.0250
  176SAPS   O3120043   1.698   0.154   2.496  0.2006  0.0541  0.4351
  176SAPS   C3120044   1.570   0.137   2.535  0.4448 -0.0987  0.1642
  176SAPS   O3220045   1.472   0.144   2.462  0.1719 -0.2905 -0.8869
  176SAPS   C3220046   1.569   0.095   2.681 -0.0370 -0.1773  0.9705
  176SAPS   H2X20047   1.653   0.148   2.729 -0.5371 -0.0013  1.6597
  176SAPS   H2Y20048   1.580  -0.015   2.694  1.3746 -0.0797  0.8085
  176SAPS   C2320049   1.729   0.585   2.785 -0.3353  0.0436  0.0760
  176SAPS   H3R20050   1.716   0.496   2.850 -0.2588 -0.6749 -0.8728
  176SAPS   H3S20051   1.627   0.619   2.759 -0.3876  0.3374  0.6699
  176SAPS   C2420052   1.810   0.703   2.844  0.6273  0.3327 -0.0805
  176SAPS   H4R20053   1.733   0.770   2.888 -0.7279 -0.6601 -0.8445
  176SAPS   H4S20054   1.841   0.759   2.753 -2.1481  1.2771 -0.5509
  176SAPS   C2520055   1.916   0.673   2.936 -0.9052  0.0469  0.4212
  176SAPS   H5R20056   2.011   0.637   2.894 -0.6930  1.1764 -0.0890
  176SAPS   C2620057   1.917   0.699   3.069 -0.2946 -0.0651  0.5013
  176SAPS   H6R20058   2.009   0.680   3.127 -0.6933  0.2541  1.2614
  176SAPS   C2720059   1.800   0.754   3.151 -0.2581 -0.6002  0.3056
  176SAPS   H7R20060   1.738   0.816   3.083 -0.0101  1.2310  1.6876
  176SAPS   H7S20061   1.842   0.823   3.227 -1.1758  1.6897 -1.1868
  176SAPS   C2820062   1.719   0.644   3.212 -0.2978  0.1368 -0.5058
  176SAPS   H8R20063   1.668   0.579   3.140 -0.0626 -1.1527  0.4591
  176SAPS   C2920064   1.712   0.610   3.343 -0.3558 -0.1821  0.5753
  176SAPS   H9R20065   1.634   0.540   3.376 -1.3965  0.7507  0.1411
  176SAPS  C21020066   1.786   0.672   3.458 -0.1144  0.0526  1.4499
  176SAPS  H10R20067   1.874   0.730   3.425  0.8832 -1.9465  0.4540
  176SAPS  H10S20068   1.829   0.591   3.521  0.2219 -0.6541  0.3214
  176SAPS  C21120069   1.697   0.757   3.540  0.1952  0.5365  0.1406
  176SAPS  H11R20070   1.620   0.799   3.474  0.5810  2.0748  0.6096
  176SAPS  C21220071   1.702   0.795   3.673  0.2417  0.1260 -0.3656
  176SAPS  H12R20072   1.630   0.870   3.706 -2.1400 -2.5426  0.9044
  176SAPS  C21320073   1.809   0.760   3.768  0.5339 -0.2827  0.4916
  176SAPS  H13R20074   1.867   0.848   3.805 -0.7595 -0.0702  2.0906
  176SAPS  H13S20075   1.894   0.708   3.719 -0.5074 -2.4175  0.8474
  176SAPS  C21420076   1.754   0.679   3.886  0.2268  0.2803 -0.2650
  176SAPS  H14R20077   1.737   0.576   3.851 -0.6076  0.5849 -0.7747
  176SAPS  C21520078   1.736   0.711   4.013  0.5750  0.0702 -0.3606
  176SAPS  H15R20079   1.703   0.632   4.082  0.8319  1.4493  1.4023
  176SAPS  C21620080   1.746   0.840   4.082 -0.5403  0.4770  0.1662
  176SAPS  H16R20081   1.667   0.846   4.160 -0.7746  0.4846 -0.0700
  176SAPS  H16S20082   1.717   0.917   4.007 -1.0037  0.6680  0.5382
  176SAPS  C21720083   1.883   0.880   4.139 -0.6624 -0.1019 -0.2811
  176SAPS  H17R20084   1.859   0.975   4.191  0.5208  1.8719 -3.0906
  176SAPS  H17S20085   1.953   0.892   4.053 -1.3808 -0.9437 -0.9884
  176SAPS  C21820086   1.938   0.784   4.246  0.2440  0.9450  0.6946
  176SAPS  H18R20087   1.906   0.682   4.216 -2.2806  1.7616  0.4226
  176SAPS  H18S20088   1.878   0.791   4.339 -1.5301  0.2255 -0.3442
  176SAPS  C21920089   2.087   0.810   4.265 -0.2455 -0.0647  0.1714
  176SAPS  H19R20090   2.093   0.920   4.280  1.2426 -0.2778  1.3979
  176SAPS  H19S20091   2.138   0.774   4.173  1.4195  1.1015  0.5916
  176SAPS  C22020092   2.152   0.761   4.396 -0.4250  0.5226 -0.0227
  176SAPS  H20R20093   2.097   0.807   4.481 -1.5038 -0.8066  0.0198
  176SAPS  H20S20094   2.261   0.780   4.410 -0.3283 -0.6093  0.8917
  176SAPS  H20T20095   2.128   0.653   4.401  0.1010  0.3112 -1.6463
  176SAPS   C3320096   1.434   0.141   2.732  1.1280 -0.4842  0.2325
  176SAPS   H3X20097   1.351   0.089   2.678  1.4403 -1.2040  0.4318
  176SAPS   H3Y20098   1.415   0.250   2.723  1.1087 -0.5370 -0.4184
  176SAPS   C3420099   1.422   0.110   2.880 -0.7141 -0.2127 -0.4502
  176SAPS   H4X20100   1.432   0.000   2.893  0.0226 -0.0204  0.7183
  176SAPS   H4Y20101   1.320   0.144   2.911 -0.1436  3.7680 -2.3400
  176SAPS   C3520102   1.531   0.162   2.969  0.7293 -0.4664 -0.3817
  176SAPS   H5X20103   1.544   0.270   2.948 -1.4053 -0.5903 -2.8476
  176SAPS   H5Y20104   1.634   0.123   2.955  0.4001 -1.1023 -1.1111
  176SAPS   C3620105   1.504   0.142   3.120 -0.0761  0.0053  0.3845
  176SAPS   H6X20106   1.491   0.033   3.135  0.7439 -0.8423 -3.8561
  176SAPS   H6Y20107   1.407   0.194   3.132 -1.0771 -0.9976 -2.5286
  176SAPS   C3720108   1.608   0.200   3.208 -0.0840  0.4641 -0.4435
  176SAPS   H7X20109   1.619   0.307   3.182 -2.9400  0.6824 -1.1144
  176SAPS   H7Y20110   1.700   0.139   3.192 -0.2802  0.9387 -4.3088
  176SAPS   C3820111   1.578   0.199   3.368  0.1817  0.5752 -0.1729
  176SAPS   H8X20112   1.563   0.093   3.396  0.3932  0.3678 -0.8191
  176SAPS   H8Y20113   1.489   0.265   3.385  0.0890 -0.1929  2.9276
  176SAPS   C3920114   1.699   0.244   3.454 -0.2270  0.7814 -0.8964
  176SAPS   H9X20115   1.722   0.345   3.413 -0.4605  1.3410  0.2997
  176SAPS   H9Y20116   1.785   0.174   3.445 -0.2188  0.6161  0.2815
  176SAPS  C31020117   1.671   0.250   3.609  0.0367  0.2191 -0.6664
  176SAPS  H10X20118   1.629   0.152   3.639  1.8721 -0.7493 -1.0845
  176SAPS  H10Y20119   1.596   0.332   3.618  0.4473  0.6698 -1.1989
  176SAPS  C31120120   1.798   0.283   3.687  0.1417 -0.2705 -0.2200
  176SAPS  H11X20121   1.841   0.377   3.645 -0.3507 -0.2743 -0.7519
  176SAPS  H11Y20122   1.872   0.204   3.664 -1.2423 -1.4209 -0.8693
  176SAPS  C31220123   1.779   0.301   3.838  0.1841  0.4561  0.2418
  176SAPS  H12X20124   1.705   0.377   3.870 -1.5853 -0.5256 -1.2595
  176SAPS  H12Y20125   1.878   0.315   3.886  1.5475 -3.6194 -0.8984
  176SAPS  C31320126   1.747   0.166   3.912  0.1934  0.2028  0.1869
  176SAPS  H13X20127   1.831   0.097   3.889 -0.1614 -0.2561  0.2666
  176SAPS  H13Y20128   1.666   0.116   3.855  1.5840 -0.5479 -1.2143
  176SAPS  C31420129   1.717   0.186   4.058 -0.7261  0.1005 -0.4824
  176SAPS  H14X20130   1.608   0.201   4.069 -0.7139 -0.5638  0.6921
  176SAPS  H14Y20131   1.761   0.279   4.099 -0.0126 -1.2614  2.0734
  176SAPS  C31520132   1.762   0.075   4.150  0.2788  0.0283 -0.2736
  176SAPS  H15X20133   1.873   0.071   4.141  0.3032 -0.5412  0.1934
  176SAPS  H15Y20134   1.726  -0.024   4.114 -0.7136  0.5951 -0.8752
  176SAPS  C31620135   1.734   0.103   4.302 -0.0384 -0.5251  0.0014
  176SAPS  H16X20136   1.759   0.209   4.326 -0.3529  0.3072 -2.8766
  176SAPS  H16Y20137   1.805   0.049   4.368  0.1184 -0.0387  0.2364
  176SAPS  C31720138   1.596   0.070   4.354 -0.2111  0.2012  0.7587
  176SAPS  H17X20139   1.511   0.085   4.284 -1.1017 -0.2203  1.7426
  176SAPS  H17Y20140   1.576   0.139   4.439 -1.3278 -0.0611  0.7225
  176SAPS  C31820141   1.583  -0.072   4.392 -0.4083 -0.0676  0.4325
  176SAPS  H18X20142   1.483  -0.097   4.433 -0.5627 -1.6822 -0.8231
  176SAPS  H18Y20143   1.665  -0.092   4.465  0.5978 -0.7904 -0.8530
  176SAPS  H18Z20144   1.591  -0.136   4.301 -0.1247 -0.4075  0.6936
  177SAPS     N20145   3.525   2.239   1.668  0.1785  0.2542  0.6207
  177SAPS   HN120146   3.454   2.222   1.594  0.0435 -2.0097  1.2104
  177SAPS   HN220147   3.523   2.327   1.724  0.0527  0.0117  0.9994
  177SAPS   HN320148   3.618   2.245   1.622 -0.2754  0.0882 -0.3499
  177SAPS   C1220149   3.518   2.123   1.759 -0.0221 -0.0682 -0.0513
  177SAPS  H12A20150   3.483   2.042   1.696  0.8846 -0.5900  0.1039
  177SAPS   C1320151   3.650   2.086   1.831  0.1675 -0.7832 -0.3730
  177SAPS  O13A20152   3.754   2.149   1.801 -0.5039 -0.0522 -0.0930
  177SAPS  O13B20153   3.651   1.974   1.892  0.3586  0.2572  0.3638
  177SAPS   C1120154   3.396   2.150   1.842  0.1635 -0.1773 -0.6077
  177SAPS  H11A20155   3.395   2.250   1.890  1.3397 -0.7574  0.6804
  177SAPS  H11B20156   3.383   2.085   1.932 -1.2448  0.7981 -0.0604
  177SAPS     P20157   3.143   2.176   1.798  0.1671 -0.4307 -0.3186
  177SAPS   O1320158   3.133   2.327   1.804  0.3964  0.1406  0.0461
  177SAPS   O1420159   3.042   2.114   1.706 -0.6825  0.0540  0.0817
  177SAPS   O1220160   3.287   2.131   1.754  0.6033  0.1946 -0.2470
  177SAPS   O1120161   3.131   2.124   1.951  0.4526  0.9224 -0.1607
  177SAPS    C120162   3.005   2.071   1.993  0.5399  0.2317 -0.4379
  177SAPS    HA20163   2.924   2.139   1.957  0.7262  1.4166  1.2763
  177SAPS    HB20164   2.982   1.977   1.938 -0.7276 -0.1881  0.7428
  177SAPS    C220165   2.995   2.056   2.145 -0.2641  0.5150 -0.6452
  177SAPS    HS20166   2.929   1.968   2.161 -0.9552  1.1009 -0.1728
  177SAPS   O2120167   2.945   2.177   2.207 -0.0851 -0.5674 -0.4298
  177SAPS   C2120168   2.815   2.199   2.194 -1.0658 -0.5846 -0.2701
  177SAPS   O2220169   2.736   2.137   2.130 -0.2127  0.6378  0.3836
  177SAPS   C2220170   2.781   2.321   2.272  0.1169 -0.1419 -0.9348
  177SAPS   H2R20171   2.852   2.407   2.271 -2.2332  1.9336  0.1757
  177SAPS   H2S20172   2.685   2.359   2.232  0.1375  1.7108  0.6316
  177SAPS    C320173   3.134   2.025   2.210  0.7537 -0.2842  0.0791
  177SAPS    HX20174   3.195   2.118   2.204 -1.4569  1.1862 -1.4293
  177SAPS    HY20175   3.180   1.941   2.154 -1.1155  0.5237 -2.9461
  177SAPS   O3120176   3.106   1.977   2.344  0.3869 -0.0848  0.0405
  177SAPS   C3120177   3.215   1.959   2.418 -0.1721 -0.8489  0.1798
  177SAPS   O3220178   3.328   1.976   2.374 -0.4651 -0.5170  0.2156
  177SAPS   C3220179   3.187   1.909   2.558  0.2691 -0.4412 -0.2433
  177SAPS   H2X20180   3.262   1.830   2.580 -0.5696 -0.6237  2.2760
  177SAPS   H2Y20181   3.090   1.855   2.563  0.7177 -1.1632  3.1058
  177SAPS   C2320182   2.749   2.272   2.416 -0.1203 -0.3005 -0.0866
  177SAPS   H3R20183   2.836   2.261   2.483  0.6324  0.2754 -0.9407
  177SAPS   H3S20184   2.691   2.178   2.420 -0.8228  0.0881 -0.7469
  177SAPS   C2420185   2.646   2.366   2.493 -0.2906 -0.4726 -0.2722
  177SAPS   H4R20186   2.618   2.299   2.577 -1.2820 -0.9340 -0.9497
  177SAPS   H4S20187   2.555   2.378   2.431 -1.5231  0.1997  1.5747
  177SAPS   C2520188   2.693   2.503   2.552  0.4259 -0.2765  0.1110
  177SAPS   H5R20189   2.730   2.567   2.471 -0.0247  0.9920  0.8730
  177SAPS   C2620190   2.723   2.542   2.681 -0.0469 -0.5149 -0.2899
  177SAPS   H6R20191   2.759   2.644   2.704 -2.7447  0.5408 -0.3931
  177SAPS   C2720192   2.693   2.460   2.804  0.7298  0.4146 -0.1325
  177SAPS   H7R20193   2.609   2.390   2.786  0.6506  0.9459 -2.0529
  177SAPS   H7S20194   2.649   2.533   2.876  1.0290  0.6611 -0.1976
  177SAPS   C2820195   2.810   2.385   2.864 -0.1673 -0.2104 -0.7628
  177SAPS   H8R20196   2.857   2.317   2.791  0.1532  0.1085 -0.8576
  177SAPS   C2920197   2.857   2.406   2.991  0.7574  0.5468  0.0302
  177SAPS   H9R20198   2.945   2.346   3.021  1.1596 -0.6766 -3.2410
  177SAPS  C21020199   2.803   2.494   3.099 -0.4876  0.3772 -0.2623
  177SAPS  H10R20200   2.714   2.448   3.148  2.1039 -2.4233  2.3080
  177SAPS  H10S20201   2.780   2.596   3.063  0.1117  0.1422 -1.3498
  177SAPS  C21120202   2.900   2.517   3.215 -0.0421  0.0852 -0.4288
  177SAPS  H11R20203   2.947   2.616   3.214 -0.4976  0.3037 -0.2413
  177SAPS  C21220204   2.922   2.444   3.319  0.2109  0.3477  0.3238
  177SAPS  H12R20205   2.998   2.485   3.388 -0.7928 -0.1321  1.7716
  177SAPS  C21320206   2.884   2.302   3.366  0.5287 -0.1911 -0.1189
  177SAPS  H13R20207   2.836   2.241   3.286 -1.7809  0.7815  0.4259
  177SAPS  H13S20208   2.806   2.311   3.445  1.1129  1.1069  0.3385
  177SAPS  C21420209   3.002   2.220   3.418  0.0593  0.1259  0.3255
  177SAPS  H14R20210   3.057   2.166   3.339 -0.4203  0.0252  0.0622
  177SAPS  C21520211   3.046   2.197   3.545  0.7099  0.5906  0.2192
  177SAPS  H15R20212   3.131   2.130   3.566  0.5246  0.8263  1.8273
  177SAPS  C21620213   2.995   2.258   3.670  0.6548 -0.4504 -0.2487
  177SAPS  H16R20214   3.022   2.197   3.759  0.2387  1.3344  1.1910
  177SAPS  H16S20215   2.884   2.266   3.668  0.6656 -0.3714 -2.0120
  177SAPS  C21720216   3.058   2.399   3.712 -0.2621 -0.0851 -0.0861
  177SAPS  H17R20217   3.040   2.468   3.626 -1.4022 -0.7677 -0.4158
  177SAPS  H17S20218   3.168   2.389   3.719 -0.4547 -2.7876  0.0913
  177SAPS  C21820219   3.006   2.457   3.846 -0.6881 -0.3529  0.2491
  177SAPS  H18R20220   2.896   2.442   3.843 -0.7497 -0.0160  0.6842
  177SAPS  H18S20221   3.027   2.566   3.849  2.4016 -0.8484 -0.0516
  177SAPS  C21920222   3.055   2.386   3.973 -0.5346  0.3722 -0.2798
  177SAPS  H19R20223   3.022   2.280   3.980  1.5651 -0.3610 -0.8271
  177SAPS  H19S20224   3.005   2.437   4.057  1.1456 -0.5182  1.3445
  177SAPS  C22020225   3.199   2.392   4.014 -0.8340  0.0273  0.4301
  177SAPS  H20R20226   3.252   2.347   3.927 -0.2206 -1.4377  1.5217
  177SAPS  H20S20227   3.233   2.346   4.109  2.8152  0.9183 -0.2914
  177SAPS  H20T20228   3.222   2.501   4.017 -2.6726  0.5247 -1.3621
  177SAPS   C3320229   3.179   2.033   2.649 -0.1124 -0.1229 -0.3255
  177SAPS   H3X20230   3.099   2.103   2.615  0.1821  0.3735 -0.0157
  177SAPS   H3Y20231   3.269   2.097   2.654 -1.6919  2.1486  1.3428
  177SAPS   C3420232   3.171   1.978   2.788  0.2889  0.4779 -0.7968
  177SAPS   H4X20233   3.270   1.932   2.809 -0.6266 -2.1514 -1.7996
  177SAPS   H4Y20234   3.090   1.902   2.793 -1.2425  2.0920  0.3089
  177SAPS   C3520235   3.132   2.082   2.899  0.1607 -0.3024 -0.2855
  177SAPS   H5X20236   3.022   2.097   2.902  0.2707  0.4604  1.3880
  177SAPS   H5Y20237   3.183   2.180   2.885  0.9747 -0.8565 -1.3157
  177SAPS   C3620238   3.155   2.042   3.051 -0.1657 -0.0030 -0.1770
  177SAPS   H6X20239   3.099   1.948   3.069 -0.6612  0.4970  0.9861
  177SAPS   H6Y20240   3.120   2.125   3.116  1.3109 -0.7388  1.6484
  177SAPS   C3720241   3.305   2.027   3.087 -0.5342  0.0598 -0.2090
  177SAPS   H7X20242   3.344   2.127   3.056 -0.3628  0.1490  0.2749
  177SAPS   H7Y20243   3.348   1.954   3.015  1.3660 -0.2002  1.1146
  177SAPS   C3820244   3.330   1.988   3.237  0.7080 -0.2918  0.0193
  177SAPS   H8X20245   3.305   1.880   3.235 -1.2678  0.1267 -1.8505
  177SAPS   H8Y20246   3.264   2.039   3.310  1.9411  0.0764  0.9240
  177SAPS   C3920247   3.476   2.014   3.295  0.3052 -0.3194  0.6244
  177SAPS   H9X20248   3.501   2.121   3.303  0.2225 -0.1130 -1.4299
  177SAPS   H9Y20249   3.552   1.979   3.222 -0.2557  1.5900 -0.9419
  177SAPS  C31020250   3.481   1.937   3.427 -0.2901 -0.7904 -0.1962
  177SAPS  H10X20251   3.583   1.899   3.449  0.0947 -0.1564 -0.8179
  177SAPS  H10Y20252   3.417   1.848   3.410 -0.0429 -0.9687 -0.2047
  177SAPS  C31120253   3.418   2.015   3.550  0.9847 -0.1132  0.6550
  177SAPS  H11X20254   3.308   2.012   3.535  1.0957 -0.5801 -0.2050
  177SAPS  H11Y20255   3.459   2.118   3.545  0.2762  0.1266 -2.5020
  177SAPS  C31220256   3.445   1.948   3.684  0.1621  0.5274 -0.0303
  177SAPS  H12X20257   3.555   1.947   3.699  0.4232 -2.1503 -1.3723
  177SAPS  H12Y20258   3.404   1.845   3.676  0.1362  0.4977  0.4774
  177SAPS  C31320259   3.370   2.014   3.794 -0.3240  0.2264 -0.3876
  177SAPS  H13X20260   3.266   2.037   3.761  0.0865  2.0529 -0.5091
  177SAPS  H13Y20261   3.433   2.105   3.798 -1.7125  1.2612 -0.9428
  177SAPS  C31420262   3.376   1.931   3.923  0.5139  0.4024  0.4152
  177SAPS  H14X20263   3.485   1.915   3.939  1.0671 -0.3223 -3.2472
  177SAPS  H14Y20264   3.314   1.840   3.905 -1.0614  1.6540 -0.9018
  177SAPS  C31520265   3.316   2.022   4.033 -0.8137 -0.2418 -0.3439
  177SAPS  H15X20266   3.208   2.031   4.008 -0.6432 -0.6150 -1.2266
  177SAPS  H15Y20267   3.370   2.119   4.037  0.3443 -0.8857  0.1525
  177SAPS  C31620268   3.329   1.969   4.176 -0.7963  0.5808 -0.4367
  177SAPS  H16X20269   3.432   1.938   4.202 -1.0254  1.6033  1.9577
  177SAPS  H16Y20270   3.259   1.884   4.163  0.0683 -0.3756  0.9040
  177SAPS  C31720271   3.278   2.063   4.291  0.5177 -0.0456  0.3433
  177SAPS  H17X20272   3.276   1.999   4.382  0.0872 -1.5912 -0.6986
  177SAPS  H17Y20273   3.180   2.109   4.271  0.3352 -0.2895  0.6636
  177SAPS  C31820274   3.373   2.177   4.314 -0.5754 -0.1460  0.3098
  177SAPS  H18X20275   3.336   2.253   4.386 -1.9081  0.4817 -0.9977
  177SAPS  H18Y20276   3.389   2.227   4.217 -0.6047  1.2078  0.9826
  177SAPS  H18Z20277   3.475   2.138   4.335 -0.2761 -0.7444 -1.9593
  178SAPS     N20278   0.697   4.788   2.080  0.5538 -0.3653  0.1893
  178SAPS   HN120279   0.718   4.876   2.029  0.5339 -1.8838 -2.6817
  178SAPS   HN220280   0.600   4.757   2.060 -0.3251  2.0949  0.3183
  178SAPS   HN320281   0.694   4.800   2.183 -0.3081  2.0288 -0.0723
  178SAPS   C1220282   0.796   4.680   2.055 -0.2467 -0.6697  0.1162
  178SAPS  H12A20283   0.797   4.616   2.142 -1.4959  2.6670  2.8268
  178SAPS   C1320284   0.760   4.587   1.935 -0.1308  0.0389 -0.5965
  178SAPS  O13A20285   0.664   4.612   1.861 -0.6973 -0.0947  0.0006
  178SAPS  O13B20286   0.839   4.499   1.909  0.0662  0.2584 -0.0538
  178SAPS   C1120287   0.932   4.751   2.038  0.0828  0.2513 -0.0198
  178SAPS  H11A20288   0.926   4.810   1.943 -1.2260 -0.5002 -0.4253
  178SAPS  H11B20289   1.014   4.677   2.027 -0.8195 -1.2792  2.6676
  178SAPS     P20290   1.096   4.925   2.149 -0.0105 -0.3547  0.3161
  178SAPS   O1320291   1.193   4.833   2.219 -0.6965  1.0117 -0.0596
  178SAPS   O1420292   1.129   4.989   2.019  0.0107 -0.4278 -0.0299
  178SAPS   O1220293   0.958   4.850   2.137 -0.1707 -0.1453 -0.1524
  178SAPS   O1120294   1.068   5.039   2.249  0.6997 -0.4671 -0.1364
  178SAPS    C120295   0.986   5.004   2.364  0.0297 -0.2649 -0.2204
  178SAPS    HA20296   0.879   5.029   2.344  0.1471  0.9912  0.5868
  178SAPS    HB20297   1.000   4.899   2.397 -4.0468 -0.6452  0.8649
  178SAPS    C220298   1.038   5.103   2.475  0.2337  0.0603  0.1088
  178SAPS    HS20299   1.056   5.198   2.420 -0.0098  1.4079  2.2324
  178SAPS   O2120300   1.145   5.044   2.551 -0.2369 -0.4462 -0.1586
  178SAPS   C2120301   1.260   5.103   2.545  0.2707 -0.3217  0.2891
  178SAPS   O2220302   1.282   5.202   2.479  0.4515 -0.1481  0.3177
  178SAPS   C2220303   1.362   5.042   2.642 -0.1196 -0.0642 -0.0135
  178SAPS   H2R20304   1.305   5.019   2.735  1.0420 -0.4929  0.6082
  178SAPS   H2S20305   1.407   4.953   2.592  1.3211  0.4773  0.2809
  178SAPS    C320306   0.927   5.141   2.572 -0.3382  0.0123  0.0884
  178SAPS    HX20307   0.853   5.059   2.585 -0.3022 -0.1550 -0.7401
  178SAPS    HY20308   0.863   5.215   2.520 -0.8834 -0.1347  0.5381
  178SAPS   O3120309   0.976   5.206   2.697  0.1737  0.2342  0.0430
  178SAPS   C3120310   0.951   5.136   2.806  0.6112  0.4087  0.4679
  178SAPS   O3220311   0.888   5.033   2.816  0.3617  0.1595  0.0729
  178SAPS   C3220312   1.006   5.207   2.931  0.0468  0.0240 -1.1281
  178SAPS   H2X20313   1.037   5.311   2.909 -0.5713  0.0947 -1.6916
  178SAPS   H2Y20314   1.092   5.143   2.961  1.6262  0.5290 -4.1544
  178SAPS   C2320315   1.485   5.132   2.682  0.0801 -0.2176  0.0562
  178SAPS   H3R20316   1.547   5.166   2.597 -1.9046  1.0487 -0.9691
  178SAPS   H3S20317   1.540   5.074   2.759 -0.3471 -0.3337  0.2783
  178SAPS   C2420318   1.432   5.252   2.760  0.3526 -0.2457  0.0590
  178SAPS   H4R20319   1.355   5.222   2.834 -0.1412 -0.9463 -0.7185
  178SAPS   H4S20320   1.377   5.324   2.694 -0.4232 -0.0275  0.9166
  178SAPS   C2520321   1.542   5.321   2.838 -0.3376 -0.0742  0.3076
  178SAPS   H5R20322   1.633   5.336   2.779 -0.7181  0.0174 -0.2626
  178SAPS   C2620323   1.540   5.364   2.962 -0.1663  0.1878 -0.7117
  178SAPS   H6R20324   1.638   5.398   2.999 -1.6333 -0.2286  4.3032
  178SAPS   C2720325   1.418   5.373   3.050  0.2402 -0.3443 -0.7283
  178SAPS   H7R20326   1.324   5.354   2.995  1.1824  1.5746 -3.1858
  178SAPS   H7S20327   1.404   5.479   3.082 -4.1682 -0.7638 -0.6588
  178SAPS   C2820328   1.410   5.291   3.177  0.2558 -0.3944 -0.2458
  178SAPS   H8R20329   1.416   5.184   3.152  0.4174 -0.2098 -1.0314
  178SAPS   C2920330   1.396   5.340   3.306 -0.2231  0.0102 -0.3829
  178SAPS   H9R20331   1.382   5.268   3.388  1.1571  2.0343  1.7618
  178SAPS  C21020332   1.398   5.482   3.362  0.0003 -0.9191  0.2583
  178SAPS  H10R20333   1.421   5.568   3.295 -0.0925 -2.0986 -1.3256
  178SAPS  H10S20334   1.468   5.493   3.448  0.5921 -2.3253 -0.0289
  178SAPS  C21120335   1.258   5.496   3.410  0.1115 -0.1631  0.4085
  178SAPS  H11R20336   1.188   5.505   3.326  0.5039  3.1662  0.3112
  178SAPS  C21220337   1.206   5.487   3.533 -0.2442 -0.5531 -1.0417
  178SAPS  H12R20338   1.100   5.472   3.555  0.1391 -1.2562  0.3865
  178SAPS  C21320339   1.287   5.495   3.662 -0.0897  0.0265  0.5387
  178SAPS  H13R20340   1.222   5.548   3.735 -0.0526  0.9098 -0.0532
  178SAPS  H13S20341   1.373   5.565   3.649 -0.0459 -0.1280 -0.0320
  178SAPS  C21420342   1.346   5.368   3.719 -0.1420 -0.5391  0.4427
  178SAPS  H14R20343   1.415   5.311   3.655  1.6874  1.1205  0.8332
  178SAPS  C21520344   1.347   5.336   3.855  0.5538  0.3611  0.0861
  178SAPS  H15R20345   1.384   5.240   3.894  0.5389 -1.3559 -3.6799
  178SAPS  C21620346   1.283   5.422   3.956 -0.0359  0.3207 -0.6392
  178SAPS  H16R20347   1.175   5.397   3.968 -0.1931  0.0899 -2.2998
  178SAPS  H16S20348   1.276   5.531   3.933 -0.7234  0.2851 -0.6193
  178SAPS  C21720349   1.349   5.408   4.095  0.0243 -0.1028  0.1606
  178SAPS  H17R20350   1.301   5.485   4.158 -0.0629  0.4363 -0.5596
  178SAPS  H17S20351   1.457   5.430   4.085  0.0671 -0.7560 -0.9257
  178SAPS  C21820352   1.349   5.269   4.164 -0.1048  0.1009  0.2621
  178SAPS  H18R20353   1.441   5.209   4.148  1.2080  0.5895  4.5357
  178SAPS  H18S20354   1.259   5.216   4.126 -0.0908 -0.7661  1.3885
  178SAPS  C21920355   1.334   5.285   4.318  0.1996 -0.8654 -0.8352
  178SAPS  H19R20356   1.253   5.360   4.332  1.1809  0.0647  0.0232
  178SAPS  H19S20357   1.427   5.325   4.363 -1.7212 -0.3430  3.0952
  178SAPS  C22020358   1.294   5.148   4.379  0.1940 -0.7450 -0.0113
  178SAPS  H20R20359   1.271   5.160   4.487  0.4108 -1.2908  0.0997
  178SAPS  H20S20360   1.369   5.066   4.372  0.2239 -1.0656  2.9067
  178SAPS  H20T20361   1.210   5.108   4.317  0.0923  1.1273 -1.1682
  178SAPS   C3320362   0.901   5.205   3.042  0.2194  0.5027  0.3976
  178SAPS   H3X20363   0.865   5.100   3.048  0.3482  0.4496  0.2545
  178SAPS   H3Y20364   0.820   5.278   3.025  1.2332  1.5821  0.0736
  178SAPS   C3420365   0.971   5.231   3.178 -0.1566  0.4078 -0.6894
  178SAPS   H4X20366   0.993   5.339   3.186 -0.4863  0.3356  1.8678
  178SAPS   H4Y20367   1.062   5.170   3.194 -1.8874 -2.2422 -0.2151
  178SAPS   C3520368   0.878   5.190   3.298 -0.8637 -0.4543  0.6174
  178SAPS   H5X20369   0.887   5.080   3.311 -0.3585 -0.4254  0.5170
  178SAPS   H5Y20370   0.778   5.222   3.262  0.4805  1.3402 -1.8119
  178SAPS   C3620371   0.916   5.248   3.426  0.0515 -0.0424 -1.3793
  178SAPS   H6X20372   0.864   5.344   3.445 -0.4222 -0.4870 -0.3202
  178SAPS   H6Y20373   1.026   5.256   3.440 -0.1620 -1.1942  1.8046
  178SAPS   C3720374   0.874   5.162   3.538 -0.0235 -0.0988  0.2220
  178SAPS   H7X20375   0.894   5.055   3.520  2.2991  0.5890 -1.8993
  178SAPS   H7Y20376   0.764   5.163   3.555  0.3791  0.1201  3.2194
  178SAPS   C3820377   0.932   5.215   3.668 -0.0034 -0.1168  0.0633
  178SAPS   H8X20378   0.899   5.321   3.673  3.4258  1.0457  1.0492
  178SAPS   H8Y20379   1.043   5.213   3.664 -0.0116  0.1418 -0.3093
  178SAPS   C3920380   0.878   5.134   3.784 -0.3230 -0.1633  0.1597
  178SAPS   H9X20381   0.888   5.028   3.750 -0.0316  0.3716 -1.5364
  178SAPS   H9Y20382   0.768   5.146   3.793 -0.1900  1.8326 -0.3267
  178SAPS  C31020383   0.953   5.162   3.911  0.1387 -0.0467 -0.5105
  178SAPS  H10X20384   0.951   5.272   3.928  2.7107  0.0694 -0.6071
  178SAPS  H10Y20385   1.060   5.136   3.898 -0.6748 -2.5149 -3.9762
  178SAPS  C31120386   0.889   5.089   4.027 -0.5923  0.0683  0.1227
  178SAPS  H11X20387   0.917   4.981   4.020  2.0462  0.6577  0.5965
  178SAPS  H11Y20388   0.779   5.094   4.015 -0.9099 -1.0082  2.0630
  178SAPS  C31220389   0.931   5.148   4.163  0.1738  1.1310 -0.5450
  178SAPS  H12X20390   0.914   5.257   4.170 -0.0752  1.0226  1.1729
  178SAPS  H12Y20391   1.042   5.140   4.171  0.0865  1.1331  1.0447
  178SAPS  C31320392   0.850   5.083   4.272  0.3524  0.0389 -0.8666
  178SAPS  H13X20393   0.869   4.973   4.275  2.4584  0.3844  0.0561
  178SAPS  H13Y20394   0.747   5.089   4.231 -0.9372 -1.2788  1.9149
  178SAPS  C31420395   0.864   5.160   4.410  0.2886  0.0054  0.8188
  178SAPS  H14X20396   0.862   5.270   4.395  3.1908 -0.0037 -0.4501
  178SAPS  H14Y20397   0.970   5.145   4.439  0.3822 -0.3945  0.2984
  178SAPS  C31520398   0.766   5.104   4.514 -0.0545 -0.3245 -0.0523
  178SAPS  H15X20399   0.802   5.000   4.534  2.9556  0.2994 -1.6326
  178SAPS  H15Y20400   0.660   5.106   4.480 -0.4525 -2.5607  0.8668
  178SAPS  C31620401   0.768   5.178   4.652 -0.2391 -0.3377  0.9942
  178SAPS  H16X20402   0.756   5.288   4.646 -0.9944 -0.4444  0.3407
  178SAPS  H16Y20403   0.870   5.168   4.695  0.7164 -0.5931 -1.2187
  178SAPS  C31720404   0.664   5.141   4.758 -0.3448 -0.2863 -0.3676
  178SAPS  H17X20405   0.565   5.174   4.720 -0.1930  2.0208  1.0231
  178SAPS  H17Y20406   0.671   5.204   4.850 -1.4342 -0.4555 -0.1478
  178SAPS  C31820407   0.676   4.996   4.794 -0.2106  0.2193  0.0188
  178SAPS  H18X20408   0.721   4.970   4.892 -0.9096 -1.8730 -0.1625
  178SAPS  H18Y20409   0.737   4.957   4.710  0.2261  0.7170  0.1036
  178SAPS  H18Z20410   0.574   4.955   4.813 -0.1993  1.6027  3.7447
  179SAPS     N20411   4.260   2.102   1.671 -0.3218 -0.6268  0.3886
  179SAPS   HN120412   4.184   2.156   1.717  0.1841  1.8621 -1.4745
  179SAPS   HN220413   4.212   2.031   1.612 -2.5846  1.3823 -0.3359
  179SAPS   HN320414   4.317   2.053   1.743  1.7660 -0.0535 -0.7783
  179SAPS   C1220415   4.359   2.198   1.604  0.5155  0.9625 -0.7853
  179SAPS  H12A20416   4.426   2.137   1.544  1.1571  1.1125 -0.2379
  179SAPS   C1320417   4.289   2.301   1.511 -0.0235  0.9409 -0.5979
  179SAPS  O13A20418   4.165   2.319   1.518 -0.4198 -0.7537 -0.8715
  179SAPS  O13B20419   4.356   2.377   1.439  0.4842 -0.0105  1.2092
  179SAPS   C1120420   4.434   2.260   1.726 -0.0285  0.2247  0.2304
  179SAPS  H11A20421   4.511   2.329   1.686  0.7573 -0.4908  0.4948
  179SAPS  H11B20422   4.494   2.181   1.775  1.0545  0.0507 -1.3190
  179SAPS     P20423   4.379   2.439   1.908  0.1132  0.0709 -0.2133
  179SAPS   O1320424   4.483   2.523   1.839 -0.0273  0.5119 -0.0673
  179SAPS   O1420425   4.251   2.506   1.935 -0.2918 -0.2912  0.0586
  179SAPS   O1220426   4.347   2.310   1.826 -0.3813 -0.1871 -0.2758
  179SAPS   O1120427   4.435   2.389   2.042 -0.4482 -0.4599 -0.1334
  179SAPS    C120428   4.427   2.259   2.093 -1.6225 -0.1602 -0.5043
  179SAPS    HA20429   4.381   2.185   2.024  0.9800 -2.0743 -0.3735
  179SAPS    HB20430   4.531   2.223   2.107 -1.0753  0.8404 -1.7502
  179SAPS    C220431   4.353   2.266   2.225  0.1864  0.2476 -0.5507
  179SAPS    HS20432   4.253   2.307   2.199  0.1135 -0.0573 -0.7546
  179SAPS   O2120433   4.414   2.340   2.329 -0.5092 -0.3408  0.4282
  179SAPS   C2120434   4.348   2.446   2.362 -0.0344  0.0784 -0.9012
  179SAPS   O2220435   4.233   2.475   2.336  0.2316 -0.4700 -0.2032
  179SAPS   C2220436   4.442   2.531   2.443 -0.1896 -0.9119  0.8546
  179SAPS   H2R20437   4.471   2.471   2.531  2.4837  0.5470  1.0662
  179SAPS   H2S20438   4.538   2.560   2.395 -0.8828  0.9719  0.5297
  179SAPS    C320439   4.324   2.121   2.288 -0.7683 -0.1519 -0.6725
  179SAPS    HX20440   4.262   2.059   2.220  0.1098 -1.0204 -0.6978
  179SAPS    HY20441   4.262   2.141   2.378  0.0583 -0.8735  0.0744
  179SAPS   O3120442   4.441   2.042   2.324  0.1020  0.3088 -0.1482
  179SAPS   C3120443   4.499   2.053   2.446 -0.1240  0.0377  0.5428
  179SAPS   O3220444   4.451   2.123   2.538  0.3890 -0.2127  0.2733
  179SAPS   C3220445   4.609   1.944   2.460  0.6961  0.4191 -0.7548
  179SAPS   H2X20446   4.695   1.982   2.401  0.5258  2.5053  0.2437
  179SAPS   H2Y20447   4.560   1.850   2.427  0.5643  0.3043 -0.2463
  179SAPS   C2320448   4.370   2.660   2.489  0.1236  0.0669 -0.0808
  179SAPS   H3R20449   4.289   2.627   2.557 -2.1418  0.2778 -2.5130
  179SAPS   H3S20450   4.320   2.714   2.406 -0.5655  1.3456  1.1253
  179SAPS   C2420451   4.477   2.759   2.549  0.2124 -0.1710 -0.7113
  179SAPS   H4R20452   4.550   2.789   2.471 -0.9896  1.0451 -1.3950
  179SAPS   H4S20453   4.531   2.701   2.627  0.9301  0.7067 -0.5386
  179SAPS   C2520454   4.421   2.886   2.606  0.3141 -0.0850  0.6872
  179SAPS   H5R20455   4.437   2.976   2.545 -0.7277  0.0750  0.6470
  179SAPS   C2620456   4.365   2.898   2.725 -0.2082  0.2505 -0.3647
  179SAPS   H6R20457   4.335   2.998   2.761 -0.1237  0.5937 -1.2321
  179SAPS   C2720458   4.346   2.772   2.813  0.0340 -0.3917  0.2237
  179SAPS   H7R20459   4.339   2.678   2.755 -2.2936  0.0710 -0.3198
  179SAPS   H7S20460   4.249   2.794   2.862  0.7598 -1.4652  2.2360
  179SAPS   C2820461   4.444   2.750   2.923  0.9124  0.6636 -0.7518
  179SAPS   H8R20462   4.520   2.672   2.909  0.2801 -0.8214  2.8373
  179SAPS   C2920463   4.442   2.818   3.038 -0.6255 -0.7842  0.1010
  179SAPS   H9R20464   4.501   2.786   3.125 -3.6726 -0.7396  2.3647
  179SAPS  C21020465   4.355   2.944   3.071 -0.0329  0.0476 -1.1293
  179SAPS  H10R20466   4.300   2.911   3.162  0.5311 -1.7967 -1.4016
  179SAPS  H10S20467   4.273   2.965   2.998 -1.8937  3.5543  1.6945
  179SAPS  C21120468   4.429   3.067   3.122 -0.4165 -0.0237 -0.5108
  179SAPS  H11R20469   4.453   3.143   3.047  1.1619  1.1145  1.0780
  179SAPS  C21220470   4.487   3.080   3.244  0.1780 -0.0589  0.1844
  179SAPS  H12R20471   4.545   3.170   3.267 -1.0345 -0.0184  3.8307
  179SAPS  C21320472   4.488   2.979   3.355 -0.4333  0.0450  0.4671
  179SAPS  H13R20473   4.402   2.908   3.358  0.1747 -0.6653  2.0820
  179SAPS  H13S20474   4.484   3.036   3.451  1.7092  1.5100 -0.2411
  179SAPS  C21420475   4.617   2.897   3.352 -0.7818  0.2117 -0.1644
  179SAPS  H14R20476   4.693   2.908   3.273 -1.1648  0.3054 -0.5253
  179SAPS  C21520477   4.631   2.800   3.436  0.4270  0.1540 -0.2634
  179SAPS  H15R20478   4.729   2.752   3.444  0.3129  0.0106  0.3019
  179SAPS  C21620479   4.536   2.768   3.555 -0.1782 -0.8712  0.2357
  179SAPS  H16R20480   4.499   2.666   3.531  1.7532 -1.5715  0.0880
  179SAPS  H16S20481   4.452   2.841   3.556  0.5513 -0.0147 -0.0503
  179SAPS  C21720482   4.612   2.755   3.685  0.0097 -0.0873 -0.2651
  179SAPS  H17R20483   4.664   2.844   3.727 -0.2044 -0.1532  0.1446
  179SAPS  H17S20484   4.693   2.680   3.674  0.5734  0.9043 -4.6486
  179SAPS  C21820485   4.515   2.716   3.802 -0.5067  0.6783 -0.3952
  179SAPS  H18R20486   4.435   2.647   3.767 -1.2201  0.9084  0.7358
  179SAPS  H18S20487   4.464   2.809   3.836 -1.0591  0.1976  0.1283
  179SAPS  C21920488   4.578   2.651   3.925 -0.1410 -1.0086 -0.9815
  179SAPS  H19R20489   4.654   2.574   3.899  1.1169 -0.1382 -0.0204
  179SAPS  H19S20490   4.501   2.603   3.988 -1.7461  0.6897 -1.5549
  179SAPS  C22020491   4.645   2.758   4.015 -0.0749 -0.1763  0.0996
  179SAPS  H20R20492   4.700   2.725   4.106  1.1977  1.1106 -0.1660
  179SAPS  H20S20493   4.568   2.831   4.049  0.0508 -0.1894  0.4187
  179SAPS  H20T20494   4.703   2.828   3.952  0.7881 -0.5869  0.4243
  179SAPS   C3320495   4.661   1.930   2.606 -0.0177 -0.1992  0.1943
  179SAPS   H3X20496   4.579   1.903   2.675 -0.9820 -0.4707 -1.0205
  179SAPS   H3Y20497   4.697   2.028   2.644 -0.4552 -0.4058  1.1668
  179SAPS   C3420498   4.774   1.824   2.604 -0.5386 -0.2371 -0.3915
  179SAPS   H4X20499   4.842   1.855   2.522 -1.5965  1.6778 -0.5977
  179SAPS   H4Y20500   4.724   1.730   2.573 -0.1728 -0.1434 -1.2964
  179SAPS   C3520501   4.861   1.809   2.731  0.5174 -0.4561  0.3450
  179SAPS   H5X20502   4.902   1.908   2.758  2.0765 -0.5211 -1.5100
  179SAPS   H5Y20503   4.943   1.738   2.706 -0.1583 -0.6576 -1.4768
  179SAPS   C3620504   4.784   1.744   2.843 -0.1485 -0.2135  0.2221
  179SAPS   H6X20505   4.801   1.634   2.841  1.3159 -0.0193 -1.7883
  179SAPS   H6Y20506   4.675   1.765   2.837 -0.1599 -0.3661 -0.1744
  179SAPS   C3720507   4.827   1.796   2.978 -1.2614 -0.2325 -0.3476
  179SAPS   H7X20508   4.814   1.906   2.979  2.6113  0.3928  0.4908
  179SAPS   H7Y20509   4.936   1.780   2.998 -1.6248 -0.5475  1.6077
  179SAPS   C3820510   4.757   1.725   3.090  1.4049 -0.2211  0.0578
  179SAPS   H8X20511   4.647   1.706   3.088  1.3420  0.1219  0.3468
  179SAPS   H8Y20512   4.762   1.807   3.164 -1.5417  2.3318 -2.2731
  179SAPS   C3920513   4.829   1.594   3.144 -0.3707 -0.0283 -0.0578
  179SAPS   H9X20514   4.934   1.630   3.151 -0.6947  1.5036 -2.1039
  179SAPS   H9Y20515   4.814   1.507   3.076  1.7047 -0.9559  0.5783
  179SAPS  C31020516   4.775   1.554   3.282  0.1766  0.4793  0.3613
  179SAPS  H10X20517   4.838   1.468   3.311 -0.5208  0.9303  3.6750
  179SAPS  H10Y20518   4.671   1.516   3.281  0.7325 -1.1670  1.2396
  179SAPS  C31120519   4.781   1.653   3.394  0.0223  0.7858  0.3134
  179SAPS  H11X20520   4.702   1.730   3.384  0.0770  0.6491 -1.3214
  179SAPS  H11Y20521   4.884   1.695   3.404  0.2622  0.2716  0.0423
  179SAPS  C31220522   4.769   1.584   3.532 -0.6241  0.4429  0.6119
  179SAPS  H12X20523   4.830   1.491   3.526 -2.6125 -0.8813 -0.4596
  179SAPS  H12Y20524   4.667   1.542   3.548 -0.1978 -0.2824  1.4980
  179SAPS  C31320525   4.799   1.687   3.642  0.0560  0.0812 -0.5834
  179SAPS  H13X20526   4.731   1.773   3.619  0.4697  0.5197 -0.1955
  179SAPS  H13Y20527   4.905   1.718   3.630 -0.0601  0.5747 -0.3676
  179SAPS  C31420528   4.782   1.627   3.783  0.2198  1.0429  0.3797
  179SAPS  H14X20529   4.817   1.522   3.770 -0.5377  0.8776 -0.4045
  179SAPS  H14Y20530   4.681   1.624   3.829  1.1587 -0.8330  2.5202
  179SAPS  C31520531   4.886   1.683   3.887  0.6543 -0.8459 -0.4143
  179SAPS  H15X20532   4.878   1.793   3.902 -0.2061 -1.3391  5.4347
  179SAPS  H15Y20533   4.989   1.651   3.862  0.1742 -1.6345 -1.4237
  179SAPS  C31620534   4.859   1.620   4.025  0.2889 -0.1163 -0.3741
  179SAPS  H16X20535   4.870   1.509   4.021 -1.2451 -0.3525  1.0516
  179SAPS  H16Y20536   4.754   1.646   4.051  0.3902  0.9245 -0.9301
  179SAPS  C31720537   4.959   1.668   4.127 -0.1702  0.1564  0.4962
  179SAPS  H17X20538   4.976   1.778   4.122  0.8341 -0.0356 -1.3669
  179SAPS  H17Y20539   5.056   1.623   4.097  0.4550  0.5340  1.8629
  179SAPS  C31820540   4.912   1.631   4.267 -0.2025  0.0048 -0.8232
  179SAPS  H18X20541   4.864   1.532   4.276  0.8757 -0.4585  0.0838
  179SAPS  H18Y20542   4.844   1.712   4.299  0.1009  0.3716 -1.0900
  179SAPS  H18Z20543   4.995   1.617   4.340  0.7531  1.3673 -1.6018
  180SAPS     N20544   2.522   1.718   1.860  0.2286 -0.1955 -0.5311
  180SAPS   HN120545   2.420   1.720   1.843  0.0244 -3.1214 -0.1286
  180SAPS   HN220546   2.545   1.627   1.815  2.1351  0.4377 -0.9665
  180SAPS   HN320547   2.521   1.719   1.964  0.4875 -1.4409 -0.4944
  180SAPS   C1220548   2.609   1.822   1.803 -0.5250 -0.0954  0.2164
  180SAPS  H12A20549   2.615   1.807   1.696 -1.2104  2.5550 -0.2566
  180SAPS   C1320550   2.549   1.961   1.818 -0.0172  1.2595  0.3265
  180SAPS  O13A20551   2.440   1.981   1.877 -0.2454 -0.7747 -0.5370
  180SAPS  O13B20552   2.613   2.055   1.764  0.2465 -0.2982  0.3793
  180SAPS   C1120553   2.749   1.812   1.872 -0.1364 -0.1380 -0.0955
  180SAPS  H11A20554   2.744   1.844   1.978  0.0440  0.0673 -0.1476
  180SAPS  H11B20555   2.815   1.879   1.812  0.9520 -0.4461  0.7071
  180SAPS     P20556   2.952   1.649   1.909 -0.1354 -0.1110 -0.1646
  180SAPS   O1320557   2.983   1.506   1.907 -0.4511 -0.0501 -0.6421
  180SAPS   O1420558   3.048   1.740   1.841 -0.2872  0.0947 -0.0645
  180SAPS   O1220559   2.798   1.675   1.867  0.0116  0.7041 -0.0733
  180SAPS   O1120560   2.942   1.690   2.062  0.2521 -0.0263  0.1542
  180SAPS    C120561   2.900   1.592   2.159 -0.0872  0.3047  0.1148
  180SAPS    HA20562   2.798   1.622   2.192  0.0400 -0.6615  1.4608
  180SAPS    HB20563   2.884   1.487   2.128 -0.0031 -0.1882  1.6419
  180SAPS    C220564   2.982   1.597   2.297  0.2322 -0.3492 -0.6377
  180SAPS    HS20565   2.956   1.503   2.350  0.1929 -0.1623 -0.3269
  180SAPS   O2120566   2.941   1.717   2.375  0.0328  0.0239  0.1752
  180SAPS   C2120567   2.817   1.705   2.427 -0.7394 -0.8634 -0.2668
  180SAPS   O2220568   2.762   1.606   2.454  0.9186  0.2101 -0.3515
  180SAPS   C2220569   2.770   1.851   2.457  0.5935 -0.0126 -0.6249
  180SAPS   H2R20570   2.863   1.908   2.478  0.6840  0.1345 -1.3919
  180SAPS   H2S20571   2.718   1.887   2.366 -2.7045 -1.7506  0.3932
  180SAPS    C320572   3.129   1.592   2.264 -1.0376  0.3233 -0.1975
  180SAPS    HX20573   3.142   1.687   2.208  0.5446 -1.4079 -2.9984
  180SAPS    HY20574   3.153   1.502   2.203 -0.0974 -0.9475  1.9294
  180SAPS   O3120575   3.206   1.597   2.391  0.1595  0.2579 -0.8469
  180SAPS   C3120576   3.233   1.479   2.452 -0.2626 -0.3563  0.2355
  180SAPS   O3220577   3.198   1.370   2.411  0.0388  0.0507  0.0423
  180SAPS   C3220578   3.323   1.501   2.578  0.4600 -0.2288  0.0046
  180SAPS   H2X20579   3.347   1.606   2.607 -1.6262  0.0980  0.7315
  180SAPS   H2Y20580   3.418   1.462   2.536  1.6626  1.3744  1.0939
  180SAPS   C2320581   2.656   1.840   2.570  0.1279 -0.0873 -0.1828
  180SAPS   H3R20582   2.576   1.777   2.527 -1.4779  3.0052 -2.1175
  180SAPS   H3S20583   2.609   1.939   2.592 -0.8956 -0.7282  0.6239
  180SAPS   C2420584   2.705   1.793   2.705 -0.4443  0.3391 -0.3992
  180SAPS   H4R20585   2.800   1.845   2.730 -0.5880  0.8445 -0.8736
  180SAPS   H4S20586   2.736   1.686   2.696 -2.9828 -0.3885 -1.2362
  180SAPS   C2520587   2.592   1.811   2.800 -0.1961 -0.0507  0.0848
  180SAPS   H5R20588   2.500   1.762   2.766 -0.3667 -1.7290  2.7182
  180SAPS   C2620589   2.585   1.885   2.910 -1.1353  0.6186  0.3972
  180SAPS   H6R20590   2.485   1.908   2.950 -0.5854  1.3488  1.4090
  180SAPS   C2720591   2.705   1.960   2.954  0.0678  0.8473 -0.9366
  180SAPS   H7R20592   2.771   1.995   2.871  0.6439 -2.4050 -2.0280
  180SAPS   H7S20593   2.776   1.892   3.007  0.4717  0.1523 -2.3040
  180SAPS   C2820594   2.653   2.082   3.036 -0.2837  0.2797 -0.1352
  180SAPS   H8R20595   2.642   2.171   2.972 -0.8303 -1.7463 -3.1136
  180SAPS   C2920596   2.621   2.094   3.168 -0.1603 -1.2014  0.0455
  180SAPS   H9R20597   2.590   2.194   3.201 -0.1442 -1.0189 -0.4905
  180SAPS  C21020598   2.630   1.988   3.277  0.0087  0.1377 -0.0155
  180SAPS  H10R20599   2.735   1.952   3.274  0.5947  1.8165 -1.4933
  180SAPS  H10S20600   2.569   1.900   3.248  1.1998  0.2568 -3.2311
  180SAPS  C21120601   2.601   2.046   3.415  0.1030 -0.0936  0.4909
  180SAPS  H11R20602   2.560   2.149   3.416  0.2756 -0.0267  1.1270
  180SAPS  C21220603   2.634   1.995   3.531 -0.8242 -0.3231 -0.0071
  180SAPS  H12R20604   2.602   2.054   3.618  2.1159 -1.3646  1.9458
  180SAPS  C21320605   2.713   1.869   3.557  0.2159  0.4278  0.1601
  180SAPS  H13R20606   2.725   1.814   3.462 -0.5361 -0.8131  0.7564
  180SAPS  H13S20607   2.647   1.805   3.620  1.7094 -0.7528  0.5693
  180SAPS  C21420608   2.848   1.886   3.628  0.8302  0.4431 -0.0203
  180SAPS  H14R20609   2.938   1.889   3.565  1.7104 -0.7318  1.1082
  180SAPS  C21520610   2.868   1.914   3.761 -0.1130 -0.0168 -0.4581
  180SAPS  H15R20611   2.972   1.911   3.794 -0.1570  0.0670 -0.3102
  180SAPS  C21620612   2.761   1.921   3.866 -0.2338 -0.0457  0.1104
  180SAPS  H16R20613   2.788   1.844   3.941  0.7616 -0.8337 -1.0265
  180SAPS  H16S20614   2.664   1.878   3.832  0.2017 -0.2533 -0.9058
  180SAPS  C21720615   2.732   2.055   3.932  0.3829  0.4538 -0.4907
  180SAPS  H17R20616   2.670   2.123   3.869  1.5529  0.1393 -2.0270
  180SAPS  H17S20617   2.829   2.107   3.943  0.0866  1.0243 -0.5377
  180SAPS  C21820618   2.667   2.041   4.072  0.2712  0.2597 -0.1350
  180SAPS  H18R20619   2.746   2.015   4.144  1.0783  0.8289 -0.7965
  180SAPS  H18S20620   2.587   1.963   4.074  0.2087  0.2022 -2.1570
  180SAPS  C21920621   2.613   2.175   4.116 -0.3086 -0.1461  0.5521
  180SAPS  H19R20622   2.565   2.229   4.032 -1.3237  3.7002  3.3363
  180SAPS  H19S20623   2.700   2.233   4.152 -1.4788  1.6510  0.5833
  180SAPS  C22020624   2.516   2.169   4.237  0.3222 -0.5185 -0.0204
  180SAPS  H20R20625   2.430   2.100   4.225 -0.6341  0.3315  1.6025
  180SAPS  H20S20626   2.574   2.138   4.326  1.1214  0.5297 -0.1599
  180SAPS  H20T20627   2.467   2.268   4.242  0.5621 -0.4207  0.4011
  180SAPS   C3320628   3.280   1.405   2.692 -0.2492  0.0790  0.2127
  180SAPS   H3X20629   3.360   1.406   2.769  1.4702  0.2061 -1.4863
  180SAPS   H3Y20630   3.260   1.304   2.650 -1.1808 -1.1642  3.4066
  180SAPS   C3420631   3.160   1.459   2.776  0.3445 -0.6686 -0.1707
  180SAPS   H4X20632   3.140   1.395   2.865  0.7371 -1.6260 -0.7536
  180SAPS   H4Y20633   3.065   1.458   2.718 -1.0346 -1.8101  1.9986
  180SAPS   C3520634   3.174   1.596   2.838 -0.5422 -0.4994 -0.0419
  180SAPS   H5X20635   3.165   1.672   2.758 -4.0866 -0.6776  0.0472
  180SAPS   H5Y20636   3.271   1.602   2.893 -0.2810 -1.5384 -0.3639
  180SAPS   C3620637   3.057   1.644   2.926 -0.1582 -0.6274  0.2137
  180SAPS   H6X20638   2.959   1.603   2.895 -0.2670 -1.3766  1.4867
  180SAPS   H6Y20639   3.051   1.755   2.929  0.1313 -0.6216  0.7460
  180SAPS   C3720640   3.074   1.608   3.073 -0.3476 -0.1219 -0.2447
  180SAPS   H7X20641   3.177   1.632   3.109  0.1831  0.0619 -1.8174
  180SAPS   H7Y20642   3.063   1.499   3.088  1.5971 -0.2483  0.6274
  180SAPS   C3820643   2.984   1.684   3.171  0.3011  0.3880 -0.4825
  180SAPS   H8X20644   2.879   1.689   3.134  0.4558  0.0901 -0.9660
  180SAPS   H8Y20645   3.023   1.787   3.185  0.2210  0.2935  0.5051
  180SAPS   C3920646   2.967   1.627   3.309  0.0553 -0.6644 -0.2736
  180SAPS   H9X20647   2.926   1.527   3.285  0.5995 -0.1130 -4.0726
  180SAPS   H9Y20648   2.896   1.684   3.372  1.6959 -0.1797  1.2507
  180SAPS  C31020649   3.101   1.615   3.386 -0.0568  1.2632 -0.1426
  180SAPS  H10X20650   3.165   1.704   3.368 -1.0099  1.5768 -2.1554
  180SAPS  H10Y20651   3.154   1.520   3.360  0.1675  1.3972 -0.1772
  180SAPS  C31120652   3.071   1.605   3.541 -0.4030 -0.1906 -0.3696
  180SAPS  H11X20653   2.997   1.682   3.570 -0.6385 -0.6030  0.1155
  180SAPS  H11Y20654   3.166   1.619   3.597 -0.1185 -2.8565 -0.0747
  180SAPS  C31220655   2.997   1.471   3.581  0.1926 -0.0676 -0.0683
  180SAPS  H12X20656   3.070   1.394   3.551  0.2761  0.8884 -2.5984
  180SAPS  H12Y20657   2.905   1.462   3.519 -0.1027  1.5636  0.0828
  180SAPS  C31320658   2.973   1.449   3.730 -0.2458 -0.6610 -0.5641
  180SAPS  H13X20659   3.070   1.477   3.775 -0.5696  0.5464 -0.5859
  180SAPS  H13Y20660   2.943   1.342   3.737  0.7727 -1.1490 -2.8039
  180SAPS  C31420661   2.873   1.535   3.807  0.4068 -0.2046  0.3555
  180SAPS  H14X20662   2.775   1.508   3.763  0.2041  0.0431  0.6515
  180SAPS  H14Y20663   2.870   1.646   3.795 -1.1510 -0.0696  1.7110
  180SAPS  C31520664   2.888   1.501   3.957  0.2647 -0.5850 -0.3579
  180SAPS  H15X20665   2.888   1.391   3.970  0.0880 -0.3683  1.9251
  180SAPS  H15Y20666   2.797   1.543   4.006  0.0066 -0.9338 -0.5406
  180SAPS  C31620667   3.003   1.576   4.032 -0.3723  0.4414  0.0345
  180SAPS  H16X20668   3.036   1.669   3.981 -0.0649  0.6942  0.6817
  180SAPS  H16Y20669   3.088   1.505   4.027  1.2651  2.2458  0.9373
  180SAPS  C31720670   2.981   1.600   4.183 -0.9541 -0.3246  0.2594
  180SAPS  H17X20671   2.896   1.665   4.215 -0.1455  0.6664  0.4538
  180SAPS  H17Y20672   3.072   1.649   4.224 -1.5155 -0.3138  1.5547
  180SAPS  C31820673   2.965   1.469   4.257 -0.7666  0.5480 -0.6924
  180SAPS  H18X20674   3.049   1.399   4.237  0.1410  1.5370 -0.4214
  180SAPS  H18Y20675   2.871   1.413   4.236  1.5433 -3.6246 -1.0049
  180SAPS  H18Z20676   2.970   1.492   4.365  1.2239  3.9469 -1.3626
  181POPC     N20677   3.725   2.775   6.429 -0.3069 -0.2391  0.3122
  181POPC   C1220678   3.586   2.814   6.485 -0.3718  0.4419 -0.0799
  181POPC  H12A20679   3.593   2.910   6.535 -0.4410  0.0086  0.7885
  181POPC  H12B20680   3.561   2.740   6.560  3.1339 -0.6203  0.2651
  181POPC   C1320681   3.818   2.748   6.546 -0.5967  0.0356  0.1887
  181POPC  H13A20682   3.763   2.701   6.626 -2.0000 -2.0874 -1.8944
  181POPC  H13B20683   3.908   2.694   6.522 -0.2283  0.7969 -0.1662
  181POPC  H13C20684   3.852   2.844   6.583 -0.2655  0.8146 -1.9873
  181POPC   C1420685   3.706   2.643   6.359 -0.3902 -0.2466  0.0240
  181POPC  H14A20686   3.798   2.616   6.310 -0.2629 -1.9242  1.1225
  181POPC  H14B20687   3.684   2.563   6.428  0.5112  1.2304  2.1790
  181POPC  H14C20688   3.632   2.657   6.282  1.2413  0.3010 -1.5043
  181POPC   C1520689   3.781   2.877   6.342 -0.0559 -0.3794  0.0363
  181POPC  H15A20690   3.788   2.971   6.395  0.7699  0.0070 -0.7436
  181POPC  H15B20691   3.732   2.887   6.246  2.6176  0.5977 -1.3205
  181POPC  H15C20692   3.885   2.861   6.317 -0.6191 -0.9420 -2.0988
  181POPC   C1120693   3.476   2.825   6.382  0.3181 -0.3274 -0.5813
  181POPC  H11A20694   3.481   2.754   6.297  1.8419  2.1448 -2.7124
  181POPC  H11B20695   3.478   2.923   6.329 -2.3082 -1.3006 -2.7444
  181POPC     P20696   3.283   2.707   6.495  0.1633 -0.0495 -0.0372
  181POPC   O1320697   3.175   2.737   6.597  0.0441  0.1139 -0.9206
  181POPC   O1420698   3.387   2.609   6.525 -0.0487  0.4529 -0.3769
  181POPC   O1220699   3.350   2.840   6.454 -0.7106  0.3374  0.1594
  181POPC   O1120700   3.211   2.657   6.366  0.2995  0.0162  0.3121
  181POPC    C120701   3.122   2.751   6.300  0.0759  0.4371 -0.8912
  181POPC    HA20702   3.146   2.858   6.316 -0.8689  0.6598 -0.8978
  181POPC    HB20703   3.017   2.735   6.333 -0.2259  1.6676 -1.1955
  181POPC    C220704   3.130   2.734   6.147  0.5105 -0.2889 -0.7371
  181POPC    HS20705   3.046   2.794   6.107  0.2145 -0.4457 -0.3575
  181POPC   O2120706   3.117   2.594   6.107 -0.4231  0.2565  0.0342
  181POPC   C2120707   3.049   2.569   5.994  0.3942 -0.2148 -0.5126
  181POPC   O2220708   2.990   2.650   5.931  0.5177 -0.4834 -0.6008
  181POPC   C2220709   3.037   2.416   5.975 -0.0155 -0.0280 -0.0701
  181POPC   H2R20710   2.933   2.398   5.943 -0.1895 -1.7059  1.2523
  181POPC   H2S20711   3.052   2.370   6.076  2.2870 -2.9345 -1.5649
  181POPC    C320712   3.264   2.793   6.102 -0.3784  0.5370  0.3934
  181POPC    HX20713   3.347   2.725   6.131 -0.6246  0.3397  0.6459
  181POPC    HY20714   3.280   2.899   6.131 -0.4973  1.0960 -1.4579
  181POPC   O3120715   3.277   2.774   5.963  0.2969  0.5101  0.1611
  181POPC   C3120716   3.212   2.856   5.874  0.3024  0.1946  0.5599
  181POPC   O3220717   3.150   2.955   5.904 -0.0883  0.5223 -0.1108
  181POPC   C3220718   3.232   2.816   5.730  0.2289  0.2409 -0.7227
  181POPC   H2X20719   3.203   2.709   5.719  0.0887  0.0401  1.2157
  181POPC   H2Y20720   3.339   2.836   5.712  0.2967  2.1377  1.3256
  181POPC   C2320721   3.137   2.358   5.868 -0.7662  0.4247 -0.1456
  181POPC   H3R20722   3.128   2.249   5.882  0.1919  0.4576  0.8642
  181POPC   H3S20723   3.242   2.393   5.879 -0.0553 -0.8043 -2.3620
  181POPC   C2420724   3.104   2.386   5.723 -0.2184 -0.1382  0.1445
  181POPC   H4R20725   3.100   2.496   5.716  0.9633 -0.1657 -1.6589
  181POPC   H4S20726   3.020   2.323   5.687  0.6935 -1.7836  0.7528
  181POPC   C2520727   3.218   2.336   5.628  1.0169 -0.0753 -0.7767
  181POPC   H5R20728   3.245   2.232   5.659  0.9181 -0.7816 -2.8899
  181POPC   H5S20729   3.310   2.397   5.642  2.7665 -2.4932 -0.9070
  181POPC   C2620730   3.181   2.345   5.481 -0.0879  0.4831 -0.7262
  181POPC   H6R20731   3.106   2.266   5.464  1.0848 -0.7519 -0.3201
  181POPC   H6S20732   3.268   2.311   5.420  0.8757 -0.8174  1.2850
  181POPC   C2720733   3.121   2.482   5.439 -0.1127 -0.0153  0.1717
  181POPC   H7R20734   3.194   2.553   5.481 -0.9688 -0.1026  1.9151
  181POPC   H7S20735   3.027   2.506   5.493  0.3880  1.6877  0.3311
  181POPC   C2820736   3.116   2.492   5.289 -0.0040  0.0026  0.0328
  181POPC   H8R20737   3.212   2.449   5.251  0.2809  0.6871 -0.0414
  181POPC   H8S20738   3.111   2.600   5.262  0.0097 -0.0393 -0.1429
  181POPC   C2920739   3.001   2.415   5.226 -0.0398  0.0520 -0.1896
  181POPC   H9120740   2.907   2.443   5.275 -0.2250 -1.4545  0.3594
  181POPC  C21020741   3.000   2.328   5.124 -0.9047  0.8885 -0.1612
  181POPC  H10120742   2.902   2.286   5.099 -1.2892  0.5052  1.8063
  181POPC  C21120743   3.120   2.269   5.052 -0.1036  0.7469  0.3860
  181POPC  H11R20744   3.106   2.161   5.076 -2.4429  1.2363  1.6043
  181POPC  H11S20745   3.217   2.294   5.098 -0.5873 -0.3429  2.1222
  181POPC  C21220746   3.101   2.306   4.904  0.2282  0.0908 -0.2579
  181POPC  H12R20747   3.072   2.413   4.898 -0.1931 -0.0927 -2.3445
  181POPC  H12S20748   3.012   2.252   4.865  0.5288 -0.0086 -0.8096
  181POPC  C21320749   3.219   2.282   4.813 -0.0877  0.0145 -0.1182
  181POPC  H13R20750   3.246   2.177   4.790  1.8335  0.3179  0.5548
  181POPC  H13S20751   3.315   2.318   4.856  1.2136 -2.9188 -0.2909
  181POPC  C21420752   3.205   2.367   4.685  0.2814 -0.6444 -0.1850
  181POPC  H14R20753   3.287   2.351   4.612 -1.0820 -1.3448 -1.6357
  181POPC  H14S20754   3.201   2.476   4.707  3.0573 -0.3784 -0.6915
  181POPC  C21520755   3.078   2.335   4.605 -0.0522 -0.1416 -0.6197
  181POPC  H15R20756   2.994   2.360   4.673  0.2276  1.2472 -0.7725
  181POPC  H15S20757   3.071   2.226   4.582  1.1351 -0.4690  0.4480
  181POPC  C21620758   3.065   2.409   4.470 -0.2285 -0.5274 -0.8110
  181POPC  H16R20759   3.155   2.392   4.407 -1.7859 -2.1051 -2.7459
  181POPC  H16S20760   3.054   2.519   4.483  2.1335 -0.4826  1.7056
  181POPC  C21720761   2.945   2.347   4.393  0.1988 -0.2710  0.3032
  181POPC  H17R20762   2.967   2.239   4.376 -0.9020 -0.6530  1.1829
  181POPC  H17S20763   2.929   2.404   4.299  0.0921  0.6696  0.8821
  181POPC  C21820764   2.802   2.352   4.468 -0.2364  0.1530  0.0402
  181POPC  H18R20765   2.716   2.323   4.405 -0.4809 -2.7749  1.5173
  181POPC  H18S20766   2.787   2.455   4.507 -0.8246  0.5976 -1.3066
  181POPC  H18T20767   2.798   2.289   4.560 -2.5791 -2.1430 -1.4953
  181POPC   C3320768   3.147   2.901   5.635 -0.2781 -0.1423 -0.1254
  181POPC   H3X20769   3.185   3.005   5.627  2.6168 -1.0816  0.1278
  181POPC   H3Y20770   3.047   2.911   5.683  0.2931  2.0668  0.6878
  181POPC   C3420771   3.132   2.838   5.495  0.2741 -0.2559 -0.0080
  181POPC   H4X20772   3.083   2.739   5.500 -1.4306  0.5963  1.0365
  181POPC   H4Y20773   3.234   2.824   5.453  0.7185  0.3566  0.8533
  181POPC   C3520774   3.060   2.934   5.395 -0.0532  0.5514 -0.6983
  181POPC   H5X20775   3.119   3.026   5.412  0.7058  0.1816 -1.2656
  181POPC   H5Y20776   2.959   2.959   5.434 -0.4150 -2.4279  0.5397
  181POPC   C3620777   3.059   2.874   5.255 -0.1623  0.0453  1.2031
  181POPC   H6X20778   2.992   2.786   5.242 -1.4922  1.2374 -0.5075
  181POPC   H6Y20779   3.166   2.866   5.224  0.1212 -0.5988  2.2710
  181POPC   C3720780   3.001   2.983   5.167 -0.4907 -0.1846  0.1962
  181POPC   H7X20781   3.057   3.079   5.166 -1.5714  0.4923  1.5290
  181POPC   H7Y20782   2.907   3.025   5.209 -1.1601 -0.6520 -0.7966
  181POPC   C3820783   2.972   2.934   5.024 -0.1445 -0.4246  0.4628
  181POPC   H8X20784   2.914   3.015   4.974 -2.9940 -2.9711 -0.6544
  181POPC   H8Y20785   2.900   2.850   5.026 -2.2607  1.3197  0.8606
  181POPC   C3920786   3.098   2.901   4.941 -0.6379 -0.2883 -0.0123
  181POPC   H9X20787   3.153   2.825   5.002 -1.6471 -0.2595  0.9685
  181POPC   H9Y20788   3.160   2.992   4.927 -1.3270  0.3413  0.9202
  181POPC  C31020789   3.068   2.830   4.804  0.0829  0.1791 -0.4827
  181POPC  H10X20790   2.994   2.748   4.818  2.9304 -2.1106  2.7669
  181POPC  H10Y20791   3.162   2.780   4.773 -1.4297 -2.1855 -1.5768
  181POPC  C31120792   3.009   2.929   4.706 -0.0831 -0.2198  0.5239
  181POPC  H11X20793   3.091   2.991   4.664 -2.1658  1.1621 -1.7844
  181POPC  H11Y20794   2.931   2.997   4.747 -0.0706  1.0595 -1.4447
  181POPC  C31220795   2.953   2.866   4.581 -0.0731  0.4049 -0.2059
  181POPC  H12X20796   2.847   2.836   4.592  0.5194 -1.3589  1.1884
  181POPC  H12Y20797   2.992   2.763   4.574  0.7538  0.6240  0.8672
  181POPC  C31320798   2.975   2.955   4.447  0.0454  0.7393 -0.7707
  181POPC  H13X20799   3.082   2.983   4.435 -0.3295  1.6634 -2.2471
  181POPC  H13Y20800   2.907   3.043   4.454  0.6689  1.1268  1.1498
  181POPC  C31420801   2.926   2.887   4.314 -0.9779  0.5524  0.0038
  181POPC  H14X20802   2.832   2.830   4.334 -1.3957  1.3448  0.3258
  181POPC  H14Y20803   2.991   2.807   4.273  2.4734  2.2844  1.7641
  181POPC  C31520804   2.901   2.987   4.209  0.1844 -0.6955 -0.4478
  181POPC  H15X20805   2.979   3.066   4.216 -0.3856 -0.1006 -0.7826
  181POPC  H15Y20806   2.812   3.045   4.241  0.7648 -0.4206  0.7446
  181POPC  C31620807   2.886   2.940   4.070  0.8551 -0.1286 -0.6792
  181POPC  H16X20808   2.816   2.853   4.067  2.1471 -1.1813 -3.6166
  181POPC  H16Y20809   2.980   2.900   4.028  0.9295 -1.2852  0.5082
  181POPC  H16Z20810   2.851   3.026   4.010  1.4110  0.0887 -0.6962
  182POPC     N20811   1.358   1.828   6.871  0.5547  0.9285 -0.7369
  182POPC   C1220812   1.298   1.890   6.744 -0.2518  0.2667  0.4564
  182POPC  H12A20813   1.302   1.996   6.767 -2.6284  0.2864  1.0828
  182POPC  H12B20814   1.196   1.857   6.737 -0.7299  1.6796  0.4248
  182POPC   C1320815   1.266   1.855   6.995  0.5721  0.4233  0.3626
  182POPC  H13A20816   1.174   1.800   6.984 -0.0664  1.1062  1.9776
  182POPC  H13B20817   1.308   1.813   7.084  2.3502 -1.5776 -1.3182
  182POPC  H13C20818   1.232   1.958   6.998  0.4639  0.5187 -1.9835
  182POPC   C1420819   1.370   1.678   6.866 -0.6482  0.3388  0.0979
  182POPC  H14A20820   1.416   1.647   6.958 -0.5497  2.0890  0.6805
  182POPC  H14B20821   1.276   1.625   6.857 -0.0958 -1.4068  3.1870
  182POPC  H14C20822   1.440   1.634   6.797  0.1855  0.3735  0.9002
  182POPC   C1520823   1.485   1.903   6.897 -0.2159  0.1508 -0.3609
  182POPC  H15A20824   1.528   1.865   6.989 -1.2601  2.5065  1.2023
  182POPC  H15B20825   1.476   2.011   6.900  0.7252  0.4018 -3.2798
  182POPC  H15C20826   1.564   1.873   6.830  0.0432 -1.3997  0.5785
  182POPC   C1120827   1.367   1.847   6.611  0.1621 -0.4556  0.5841
  182POPC  H11A20828   1.476   1.869   6.622  0.2352  1.6635 -2.7809
  182POPC  H11B20829   1.337   1.913   6.526  0.1258 -0.6350  0.4564
  182POPC     P20830   1.216   1.664   6.523  0.0085  0.0549  0.2029
  182POPC   O1320831   1.099   1.709   6.600  0.7741 -1.4612  0.7338
  182POPC   O1420832   1.233   1.521   6.485  0.1444  0.0393 -0.2527
  182POPC   O1220833   1.348   1.708   6.582 -0.2564  0.1613 -0.0484
  182POPC   O1120834   1.222   1.739   6.385  0.1131 -0.0632 -0.8012
  182POPC    C120835   1.337   1.745   6.300 -0.0468 -0.1085  0.1226
  182POPC    HA20836   1.410   1.664   6.319 -0.8229 -0.6231  1.0016
  182POPC    HB20837   1.383   1.846   6.315 -2.2800  0.7586  1.5772
  182POPC    C220838   1.281   1.723   6.155 -0.1539  0.3381 -0.6326
  182POPC    HS20839   1.363   1.739   6.081  0.2495  0.0416 -0.2490
  182POPC   O2120840   1.161   1.803   6.129 -0.2555 -0.2922  0.9982
  182POPC   C2120841   1.180   1.928   6.091 -0.5707  0.3924 -0.1946
  182POPC   O2220842   1.284   1.981   6.059 -0.3178  0.0124  0.3641
  182POPC   C2220843   1.052   2.002   6.079  0.3641 -0.2243 -0.5746
  182POPC   H2R20844   1.054   2.088   6.148  1.5315  1.5403 -2.7034
  182POPC   H2S20845   0.967   1.939   6.114 -0.9011  0.0549 -2.9226
  182POPC    C320846   1.251   1.568   6.128 -0.0392  0.3174  0.0841
  182POPC    HX20847   1.188   1.525   6.209  0.4311 -1.7725 -0.6095
  182POPC    HY20848   1.347   1.514   6.137 -0.6497 -0.9894 -0.9127
  182POPC   O3120849   1.197   1.541   5.991 -0.2816  0.4046 -0.5744
  182POPC   C3120850   1.298   1.536   5.899 -0.1713 -0.3360 -0.2131
  182POPC   O3220851   1.415   1.547   5.922 -0.2771 -0.5629  0.3280
  182POPC   C3220852   1.240   1.536   5.760  0.5906 -0.9328  0.6528
  182POPC   H2X20853   1.199   1.639   5.752  2.1714 -0.2699  0.6364
  182POPC   H2Y20854   1.165   1.455   5.752  0.1692 -0.5834  0.9851
  182POPC   C2320855   1.004   2.047   5.939 -0.2218  0.2394  0.3672
  182POPC   H3R20856   1.089   2.109   5.903 -0.0099 -0.4852 -0.3958
  182POPC   H3S20857   0.900   2.086   5.941 -1.3201 -2.4891  1.7003
  182POPC   C2420858   0.992   1.936   5.842 -0.0273 -0.0218 -0.2342
  182POPC   H4R20859   0.923   1.858   5.882  0.5129 -0.7896 -0.7561
  182POPC   H4S20860   1.091   1.885   5.839  0.2098  0.2763  1.6261
  182POPC   C2520861   0.938   1.989   5.701  0.5810  0.2465  0.3701
  182POPC   H5R20862   0.991   2.076   5.657 -1.1752  1.0926 -0.1908
  182POPC   H5S20863   0.840   2.033   5.733  1.3770  2.4367  0.0116
  182POPC   C2620864   0.916   1.872   5.595 -0.0363 -0.3938  0.0492
  182POPC   H6R20865   1.009   1.869   5.534  0.1656  1.2695  0.2411
  182POPC   H6S20866   0.828   1.903   5.535 -1.1765  0.9048  2.2772
  182POPC   C2720867   0.902   1.733   5.654  0.0980  0.9474  0.7494
  182POPC   H7R20868   0.833   1.740   5.741  0.0735 -2.5180  1.1530
  182POPC   H7S20869   0.994   1.704   5.710 -1.0737 -0.1251  2.1854
  182POPC   C2820870   0.864   1.632   5.547 -0.5077  0.0460 -0.2400
  182POPC   H8R20871   0.881   1.527   5.578 -1.8936 -0.4430 -1.0576
  182POPC   H8S20872   0.939   1.643   5.465  1.2895 -0.1295  1.3016
  182POPC   C2920873   0.722   1.647   5.490 -0.2194 -0.5306  0.7264
  182POPC   H9120874   0.682   1.749   5.490  0.2530 -0.3057  3.0634
  182POPC  C21020875   0.660   1.544   5.427 -0.3821  0.7035 -0.4443
  182POPC  H10120876   0.556   1.565   5.396 -0.9303  1.0198  1.4790
  182POPC  C21120877   0.708   1.396   5.418  0.2143 -0.1880 -0.3982
  182POPC  H11R20878   0.777   1.382   5.504  2.6371  2.2582 -1.7815
  182POPC  H11S20879   0.783   1.388   5.337  0.1777  1.0379 -0.5704
  182POPC  C21220880   0.599   1.285   5.423  0.1515 -0.1713  0.6617
  182POPC  H12R20881   0.525   1.305   5.502 -2.5714 -1.1486 -1.4694
  182POPC  H12S20882   0.664   1.197   5.443  1.0555  0.5728  1.0560
  182POPC  C21320883   0.530   1.283   5.285  0.4428  0.1674  0.4016
  182POPC  H13R20884   0.544   1.383   5.237 -0.6611 -1.0912 -2.8171
  182POPC  H13S20885   0.420   1.268   5.280  0.3383  0.5889  1.2964
  182POPC  C21420886   0.593   1.178   5.189 -0.2590 -0.2744 -0.6244
  182POPC  H14R20887   0.567   1.079   5.231 -1.7283  0.8381  1.2566
  182POPC  H14S20888   0.700   1.206   5.201 -1.3313  2.9706  3.4531
  182POPC  C21520889   0.546   1.201   5.040  0.3454 -0.0743 -0.2798
  182POPC  H15R20890   0.575   1.308   5.033 -0.0333  0.1442  1.1710
  182POPC  H15S20891   0.436   1.194   5.029  0.1191 -1.0833  1.9348
  182POPC  C21620892   0.621   1.118   4.942 -0.0654  0.8295  0.6439
  182POPC  H16R20893   0.730   1.129   4.959 -0.2190  0.7899  1.7255
  182POPC  H16S20894   0.607   1.139   4.834  1.6584  1.1870  0.4607
  182POPC  C21720895   0.580   0.975   4.957  0.3565 -0.0920 -0.3307
  182POPC  H17R20896   0.471   0.971   4.936 -0.6810  0.9537  3.8867
  182POPC  H17S20897   0.597   0.938   5.061  0.4772  0.4432 -0.1531
  182POPC  C21820898   0.660   0.872   4.875 -0.0528 -0.5985 -0.3819
  182POPC  H18R20899   0.611   0.773   4.884  2.7747 -2.1282 -0.8151
  182POPC  H18S20900   0.766   0.874   4.907 -0.2318 -0.2983  0.2103
  182POPC  H18T20901   0.663   0.892   4.766 -0.0142  0.4851 -0.1901
  182POPC   C3320902   1.353   1.523   5.653  0.8004 -0.5000 -0.0333
  182POPC   H3X20903   1.398   1.422   5.642 -3.0188 -2.1156 -4.4043
  182POPC   H3Y20904   1.427   1.602   5.678  0.4333  0.4218 -1.6697
  182POPC   C3420905   1.312   1.535   5.509 -0.0334 -0.8949 -0.1215
  182POPC   H4X20906   1.402   1.525   5.445  1.3377 -0.5953  1.7052
  182POPC   H4Y20907   1.281   1.640   5.490 -0.4302 -0.9646  0.1224
  182POPC   C3520908   1.212   1.435   5.459  0.7017  0.0618  0.1720
  182POPC   H5X20909   1.115   1.450   5.511  1.1852 -1.1231  1.4923
  182POPC   H5Y20910   1.247   1.336   5.497  0.0328 -0.3826 -0.3415
  182POPC   C3620911   1.193   1.430   5.309  0.4966 -0.6895  0.0687
  182POPC   H6X20912   1.131   1.343   5.281 -1.6758  0.7344  0.2345
  182POPC   H6Y20913   1.292   1.421   5.259  0.6954  1.0365  0.0849
  182POPC   C3720914   1.114   1.552   5.251 -0.2708  0.2660  0.1283
  182POPC   H7X20915   1.144   1.644   5.305 -2.1514  1.0625 -0.0880
  182POPC   H7Y20916   1.005   1.542   5.272 -0.0502 -0.8096  0.7937
  182POPC   C3820917   1.142   1.567   5.099  0.1368 -0.7192 -0.5620
  182POPC   H8X20918   1.252   1.569   5.084  0.2623 -1.1812  0.2205
  182POPC   H8Y20919   1.101   1.660   5.056 -2.2939 -1.7822 -0.6990
  182POPC   C3920920   1.071   1.458   5.022  0.6067 -0.4300  0.3052
  182POPC   H9X20921   0.963   1.473   5.045  0.7683  0.9800  0.2492
  182POPC   H9Y20922   1.106   1.363   5.069 -0.1886 -1.3265 -0.8447
  182POPC  C31020923   1.100   1.471   4.874 -0.2304  0.2015 -0.1720
  182POPC  H10X20924   1.203   1.440   4.846  0.1832  0.2822  1.1908
  182POPC  H10Y20925   1.091   1.575   4.837 -0.3885 -0.6674 -2.7570
  182POPC  C31120926   1.014   1.371   4.796  0.0218 -0.2430  0.0265
  182POPC  H11X20927   0.989   1.291   4.868 -1.0969  1.0001  1.0675
  182POPC  H11Y20928   1.078   1.320   4.721  1.6844  0.4500  0.9022
  182POPC  C31220929   0.890   1.426   4.731  0.0887  0.3968 -0.4683
  182POPC  H12X20930   0.815   1.473   4.797  2.2905  2.3005  0.7977
  182POPC  H12Y20931   0.829   1.342   4.691  0.5474  0.0007 -0.3418
  182POPC  C31320932   0.911   1.503   4.601 -0.4860 -0.0479 -0.5911
  182POPC  H13X20933   0.973   1.447   4.527 -1.1325  2.0587 -2.8355
  182POPC  H13Y20934   0.955   1.605   4.603 -1.7093  0.5664 -2.2820
  182POPC  C31420935   0.776   1.524   4.523  0.2906  0.0409  0.2328
  182POPC  H14X20936   0.731   1.615   4.569 -0.8321  0.1157 -0.9332
  182POPC  H14Y20937   0.694   1.450   4.536  0.2060 -0.7132 -3.4106
  182POPC  C31520938   0.802   1.553   4.376 -0.1653  0.5076 -0.5976
  182POPC  H15X20939   0.880   1.630   4.358 -0.3269  0.1431 -3.1864
  182POPC  H15Y20940   0.707   1.603   4.347 -0.3001 -0.1736 -1.3591
  182POPC  C31620941   0.821   1.428   4.301  0.0206 -0.0511 -0.0899
  182POPC  H16X20942   0.914   1.380   4.339  0.6992  0.4173 -1.1184
  182POPC  H16Y20943   0.833   1.447   4.192 -0.6969 -1.7504 -0.5143
  182POPC  H16Z20944   0.735   1.357   4.295  0.9054 -1.1105 -0.6098
  183POPC     N20945   2.221   5.526   7.227 -0.6514 -0.3701 -0.1951
  183POPC   C1220946   2.349   5.447   7.182  0.1690 -0.1924 -0.4947
  183POPC  H12A20947   2.361   5.364   7.250  1.2543  0.0162 -0.4114
  183POPC  H12B20948   2.439   5.507   7.183  0.3699 -0.2899 -3.6844
  183POPC   C1320949   2.104   5.443   7.247 -0.4283 -1.0156 -0.1558
  183POPC  H13A20950   2.081   5.405   7.148  0.8151 -0.6412 -0.6058
  183POPC  H13B20951   2.112   5.359   7.314 -3.4410 -2.9023 -1.9095
  183POPC  H13C20952   2.021   5.501   7.286  1.4980  0.4029  2.1017
  183POPC   C1420953   2.254   5.592   7.360  0.2731 -0.0731 -0.1407
  183POPC  H14A20954   2.262   5.517   7.438 -1.6991 -0.2683 -0.0837
  183POPC  H14B20955   2.349   5.643   7.353  0.5969 -0.7874 -1.0484
  183POPC  H14C20956   2.178   5.664   7.388 -0.4429 -1.5671  2.0449
  183POPC   C1520957   2.200   5.629   7.124  0.0925 -0.8429 -0.0602
  183POPC  H15A20958   2.192   5.599   7.020 -3.2325  1.9130 -0.7741
  183POPC  H15B20959   2.270   5.709   7.142 -0.8387 -0.5363  2.5457
  183POPC  H15C20960   2.105   5.678   7.138 -0.1043 -1.3758  0.5398
  183POPC   C1120961   2.345   5.367   7.045  0.1544  0.7345  0.2631
  183POPC  H11A20962   2.447   5.323   7.037 -0.5397 -0.7860 -0.6642
  183POPC  H11B20963   2.318   5.430   6.958  0.2708  0.0016 -0.3156
  183POPC     P20964   2.301   5.111   7.067  0.1880  0.2928 -0.2038
  183POPC   O1320965   2.192   5.039   7.134  0.0150 -0.2459  0.5001
  183POPC   O1420966   2.427   5.105   7.140  0.1920 -0.2836 -0.4109
  183POPC   O1220967   2.252   5.257   7.062 -0.4335 -0.5194 -0.3921
  183POPC   O1120968   2.308   5.073   6.920  0.3657  0.2282  0.4680
  183POPC    C120969   2.430   5.022   6.858  0.0038 -0.2733  0.2557
  183POPC    HA20970   2.406   4.933   6.796 -1.1792  0.9205 -1.0771
  183POPC    HB20971   2.509   4.994   6.930 -1.1264 -2.3960  0.7487
  183POPC    C220972   2.494   5.129   6.772  0.2383  0.1207  0.5211
  183POPC    HS20973   2.530   5.201   6.849 -0.5861  0.5152  0.5549
  183POPC   O2120974   2.397   5.208   6.695  0.2860  0.0168 -0.5872
  183POPC   C2120975   2.441   5.311   6.621 -0.2468 -0.1411 -0.7098
  183POPC   O2220976   2.551   5.361   6.638 -0.2052 -0.3681  0.0276
  183POPC   C2220977   2.328   5.353   6.531  1.2754 -0.2099 -0.0675
  183POPC   H2R20978   2.266   5.425   6.588  1.3496  0.6541 -1.0567
  183POPC   H2S20979   2.261   5.269   6.502 -0.5758  1.0241  0.4681
  183POPC    C320980   2.620   5.079   6.686 -0.0808  0.3969  0.3251
  183POPC    HX20981   2.658   4.998   6.752 -0.0255 -0.9205 -1.2560
  183POPC    HY20982   2.680   5.170   6.665  0.8476 -0.6772 -2.0843
  183POPC   O3120983   2.555   5.034   6.566 -0.0753 -0.5888 -0.2236
  183POPC   C3120984   2.622   4.977   6.470  0.2644 -0.1270  0.0158
  183POPC   O3220985   2.741   4.962   6.465 -0.1873  0.5188 -0.2718
  183POPC   C3220986   2.520   4.919   6.369 -0.0588  0.2497  0.3145
  183POPC   H2X20987   2.550   4.819   6.332  0.4677  1.4158 -2.7451
  183POPC   H2Y20988   2.506   4.978   6.275  0.2276  1.3692  0.9538
  183POPC   C2320989   2.365   5.423   6.402  0.1764  0.1931 -0.4026
  183POPC   H3R20990   2.431   5.511   6.418  1.1301 -0.6564  0.4706
  183POPC   H3S20991   2.265   5.455   6.364 -0.5698 -0.9280  0.5372
  183POPC   C2420992   2.440   5.326   6.305  0.1163  0.0869 -0.5746
  183POPC   H4R20993   2.423   5.221   6.336  1.0101  0.0973 -0.0343
  183POPC   H4S20994   2.540   5.357   6.341 -0.5386 -0.3418  1.7421
  183POPC   C2520995   2.422   5.348   6.159  0.2563 -0.0345  0.2758
  183POPC   H5R20996   2.454   5.453   6.140  0.1270 -0.0552 -0.0695
  183POPC   H5S20997   2.323   5.325   6.115 -0.3181  0.8978  1.0291
  183POPC   C2620998   2.514   5.256   6.090  0.0751 -0.0375 -0.3355
  183POPC   H6R20999   2.501   5.151   6.123  2.2955 -0.9939 -2.2167
  183POPC   H6S21000   2.622   5.274   6.108 -0.0652 -0.4490  0.9960
  183POPC   C2721001   2.503   5.261   5.932 -0.0460  0.0790 -0.4002
  183POPC   H7R21002   2.574   5.194   5.879  0.0980  1.4602 -2.0614
  183POPC   H7S21003   2.523   5.369   5.915 -3.3918  0.7237 -0.9089
  183POPC   C2821004   2.364   5.231   5.878  0.0719  0.2998  0.3623
  183POPC   H8R21005   2.283   5.298   5.914 -2.8532 -2.5699 -0.4433
  183POPC   H8S21006   2.342   5.133   5.924 -0.0791  1.0078  1.8662
  183POPC   C2921007   2.369   5.218   5.730 -0.1468 -0.3302  0.8463
  183POPC   H9121008   2.392   5.119   5.686  2.0430 -0.2527  1.6769
  183POPC  C21021009   2.354   5.322   5.646 -0.2483  0.1465  0.6834
  183POPC  H10121010   2.368   5.308   5.538  0.2957 -0.3241  0.8117
  183POPC  C21121011   2.344   5.470   5.685 -0.5350 -0.1023 -0.4984
  183POPC  H11R21012   2.334   5.484   5.795  2.2583  3.5892 -0.5228
  183POPC  H11S21013   2.253   5.512   5.636 -0.8557 -1.3172 -0.9723
  183POPC  C21221014   2.488   5.532   5.668 -0.5795  0.1109 -0.4206
  183POPC  H12R21015   2.563   5.468   5.718 -0.7964  0.6777  0.6572
  183POPC  H12S21016   2.487   5.628   5.724 -0.1974 -1.0853  1.7387
  183POPC  C21321017   2.523   5.562   5.522 -0.5906 -0.3671 -0.5362
  183POPC  H13R21018   2.538   5.460   5.479 -1.6986 -1.8574  2.3279
  183POPC  H13S21019   2.617   5.618   5.502 -0.4702 -0.8399 -1.3764
  183POPC  C21421020   2.411   5.638   5.448  0.3283 -0.1207  0.0778
  183POPC  H14R21021   2.369   5.714   5.517 -1.3858  0.8170 -1.8962
  183POPC  H14S21022   2.327   5.575   5.412 -1.0323  1.1603  0.9138
  183POPC  C21521023   2.460   5.731   5.340 -0.5816  0.5254 -0.2571
  183POPC  H15R21024   2.542   5.679   5.286  0.9279  1.1023  1.3781
  183POPC  H15S21025   2.521   5.809   5.389  1.3595 -0.4415 -1.0515
  183POPC  C21621026   2.350   5.788   5.258 -0.0273  0.6367  0.2020
  183POPC  H16R21027   2.289   5.863   5.313 -0.7449  1.8162 -2.0889
  183POPC  H16S21028   2.287   5.705   5.219  0.6826  0.0273  0.3416
  183POPC  C21721029   2.409   5.847   5.125  0.3899 -0.3851 -0.2679
  183POPC  H17R21030   2.472   5.768   5.078 -0.3553 -0.9886 -0.2633
  183POPC  H17S21031   2.480   5.927   5.155  0.4830 -0.9375  1.0487
  183POPC  C21821032   2.296   5.872   5.023  0.1779 -0.4589 -0.1430
  183POPC  H18R21033   2.238   5.963   5.050  0.2462 -0.0991 -1.1555
  183POPC  H18S21034   2.230   5.782   5.023  0.2484 -0.5343 -1.7465
  183POPC  H18T21035   2.328   5.889   4.918 -0.8524  0.7917 -0.2814
  183POPC   C3321036   2.380   4.903   6.430 -0.5359 -0.0262  0.1548
  183POPC   H3X21037   2.352   4.997   6.482 -0.6117  0.5519 -0.9092
  183POPC   H3Y21038   2.381   4.819   6.504  0.4606  0.1943  0.4083
  183POPC   C3421039   2.265   4.869   6.327 -0.3186 -0.7750  0.9358
  183POPC   H4X21040   2.180   4.818   6.376 -1.2377  0.0110  0.1958
  183POPC   H4Y21041   2.308   4.799   6.252 -1.9288 -2.2727  1.3747
  183POPC   C3521042   2.211   4.999   6.258 -0.4876  0.0096  0.0469
  183POPC   H5X21043   2.290   5.051   6.201 -0.1932  2.1457  2.2356
  183POPC   H5Y21044   2.179   5.060   6.345 -0.8278 -2.1395  1.5209
  183POPC   C3621045   2.087   4.969   6.170 -0.6395  0.3070  0.1711
  183POPC   H6X21046   2.013   4.915   6.232 -1.9590  1.4803 -0.3290
  183POPC   H6Y21047   2.126   4.902   6.090  0.5343 -0.3980  1.2929
  183POPC   C3721048   2.044   5.092   6.103 -0.3893  0.0652  0.1524
  183POPC   H7X21049   2.123   5.144   6.045 -0.3075  0.3522  0.5134
  183POPC   H7Y21050   2.020   5.173   6.176  2.3668 -1.4343  2.9135
  183POPC   C3821051   1.922   5.072   6.013  0.0682 -0.5332  0.4575
  183POPC   H8X21052   1.867   5.167   5.996  0.5307 -0.3396  0.0357
  183POPC   H8Y21053   1.861   4.992   6.060  1.3177 -2.3339 -0.8436
  183POPC   C3921054   1.969   5.029   5.872 -0.1274  0.9841 -0.3166
  183POPC   H9X21055   2.006   4.925   5.880  0.3464  0.8980 -2.7924
  183POPC   H9Y21056   2.062   5.088   5.855  0.7836  0.1978  1.6798
  183POPC  C31021057   1.864   5.046   5.759 -0.4194 -0.3049  0.0787
  183POPC  H10X21058   1.826   5.150   5.768  1.6382  0.3179  2.9118
  183POPC  H10Y21059   1.769   4.990   5.772 -0.5545  0.3029  2.0467
  183POPC  C31121060   1.931   5.020   5.627  0.9968  0.4070 -0.0570
  183POPC  H11X21061   1.954   4.913   5.608  1.2102  0.6006 -0.9515
  183POPC  H11Y21062   2.026   5.078   5.619  1.7296 -0.8767 -1.2374
  183POPC  C31221063   1.839   5.063   5.512 -0.1407  0.4579 -0.3253
  183POPC  H12X21064   1.825   5.172   5.500  3.0099  0.9687 -0.1471
  183POPC  H12Y21065   1.735   5.024   5.516  0.8453 -2.6365 -1.5176
  183POPC  C31321066   1.900   5.008   5.381  0.0125 -1.1863 -0.0614
  183POPC  H13X21067   2.010   5.000   5.384  0.7699  4.6379 -1.6207
  183POPC  H13Y21068   1.883   5.088   5.307 -1.2207  0.6445  2.0611
  183POPC  C31421069   1.832   4.877   5.331 -0.2938 -0.5357  0.0889
  183POPC  H14X21070   1.729   4.895   5.294 -0.0147 -0.3556 -0.6169
  183POPC  H14Y21071   1.840   4.798   5.408  1.2186 -0.9637 -0.4633
  183POPC  C31521072   1.900   4.837   5.201  0.9085  0.8256 -0.0703
  183POPC  H15X21073   2.007   4.828   5.229  0.8449  3.1359  1.1779
  183POPC  H15Y21074   1.887   4.906   5.114  3.5293  2.3277  0.6139
  183POPC  C31621075   1.854   4.700   5.161 -0.0038 -0.5370  0.0216
  183POPC  H16X21076   1.911   4.670   5.070 -3.3686 -0.3103 -2.3637
  183POPC  H16Y21077   1.746   4.693   5.132 -0.1301 -0.5144  0.4867
  183POPC  H16Z21078   1.862   4.626   5.244  3.2318 -0.5863 -0.2355
  184POPC     N21079   3.020   0.037   6.954 -0.6044 -0.1189 -0.2659
  184POPC   C1221080   3.002   0.185   6.980  1.0059  0.6334  0.2312
  184POPC  H12A21081   3.047   0.243   6.902 -1.9006  2.5259 -0.1730
  184POPC  H12B21082   3.051   0.203   7.075  3.4774 -3.4841 -0.0188
  184POPC   C1321083   3.169   0.024   6.937  0.2758  0.2022 -0.5299
  184POPC  H13A21084   3.230   0.093   6.993  1.7803 -0.4438 -1.3137
  184POPC  H13B21085   3.217  -0.072   6.946  1.0474  0.7845  2.1733
  184POPC  H13C21086   3.187   0.045   6.832  0.6568 -0.0305 -0.5108
  184POPC   C1421087   2.965  -0.054   7.055 -0.0138  0.0546 -0.0832
  184POPC  H14A21088   3.017  -0.048   7.149  0.7206 -2.8348 -0.2164
  184POPC  H14B21089   2.860  -0.032   7.067  0.0886  1.9459 -1.9977
  184POPC  H14C21090   2.971  -0.155   7.015 -0.0894 -0.2776  0.7235
  184POPC   C1521091   2.960   0.001   6.814  0.3029  0.0596 -0.3344
  184POPC  H15A21092   3.000   0.068   6.740  0.4300  0.0452 -0.2793
  184POPC  H15B21093   2.852  -0.002   6.815  0.3010  0.0369  0.5653
  184POPC  H15C21094   2.975  -0.102   6.788 -2.3513  0.1451 -2.5886
  184POPC   C1121095   2.848   0.225   6.984  0.0753 -0.7063 -0.6163
  184POPC  H11A21096   2.792   0.167   7.061 -0.4373 -1.2629 -1.3904
  184POPC  H11B21097   2.806   0.180   6.891  0.7314 -4.1355  0.6228
  184POPC     P21098   2.875   0.459   6.875  0.0223 -0.1052  0.7130
  184POPC   O1321099   3.023   0.467   6.874  0.5560  0.0942  0.0857
  184POPC   O1421100   2.809   0.592   6.890  0.0350 -0.6427  0.5876
  184POPC   O1221101   2.827   0.364   6.994 -0.2869 -0.0607  0.4280
  184POPC   O1121102   2.823   0.383   6.748 -0.1400  0.1903  0.7342
  184POPC    C121103   2.691   0.408   6.700 -0.4368 -0.1306  0.3349
  184POPC    HA21104   2.685   0.516   6.674 -0.0138 -0.4086 -1.0218
  184POPC    HB21105   2.625   0.397   6.789 -1.0406 -0.7155 -0.1701
  184POPC    C221106   2.633   0.304   6.593  0.4862  0.5929 -0.3864
  184POPC    HS21107   2.617   0.210   6.649 -0.1106  0.1092 -1.3355
  184POPC   O2121108   2.726   0.289   6.489  0.1155  0.7836 -0.0370
  184POPC   C2121109   2.699   0.198   6.398  0.0384  0.0893  0.0265
  184POPC   O2221110   2.613   0.112   6.409 -0.3082  0.1545  0.9775
  184POPC   C2221111   2.788   0.208   6.274  0.3249 -0.5596 -0.1832
  184POPC   H2R21112   2.898   0.210   6.296 -0.1183  1.2461  2.3692
  184POPC   H2S21113   2.771   0.309   6.231  0.6019 -0.0624  0.8407
  184POPC    C321114   2.497   0.356   6.548 -0.1342  0.8391  0.1212
  184POPC    HX21115   2.438   0.371   6.641  1.3296 -0.5160  1.3365
  184POPC    HY21116   2.444   0.276   6.492 -1.3160  0.0951  2.1887
  184POPC   O3121117   2.507   0.476   6.465 -0.0162 -0.1162 -0.5648
  184POPC   C3121118   2.390   0.541   6.441 -0.6049 -0.5284  0.1838
  184POPC   O3221119   2.280   0.497   6.470  0.2462  0.0383 -0.4881
  184POPC   C3221120   2.411   0.674   6.377 -0.3670 -0.3686 -0.0499
  184POPC   H2X21121   2.458   0.732   6.459 -2.1119 -1.8438  2.0985
  184POPC   H2Y21122   2.316   0.720   6.342 -1.0586 -1.1770  0.7343
  184POPC   C2321123   2.748   0.114   6.160  0.8686  0.6577  0.4175
  184POPC   H3R21124   2.638   0.110   6.144  0.7033 -2.2104  1.5358
  184POPC   H3S21125   2.755   0.005   6.180  0.2525  0.5111 -0.1242
  184POPC   C2421126   2.817   0.148   6.019 -0.2233 -0.1388 -0.7117
  184POPC   H4R21127   2.838   0.058   5.957 -1.7040  0.6219 -2.4404
  184POPC   H4S21128   2.909   0.201   6.049 -1.4772  2.3180 -0.9513
  184POPC   C2521129   2.731   0.242   5.925  0.2997 -0.2450  0.3676
  184POPC   H5R21130   2.702   0.325   5.993 -2.3413  0.0160 -0.9690
  184POPC   H5S21131   2.642   0.183   5.896 -0.5891  0.3194  1.8139
  184POPC   C2621132   2.807   0.310   5.809 -0.2180  0.0360  0.2554
  184POPC   H6R21133   2.916   0.314   5.829  0.9342 -0.2076 -4.6154
  184POPC   H6S21134   2.762   0.408   5.784  0.7087  0.1136 -1.2242
  184POPC   C2721135   2.815   0.219   5.682 -0.3127  0.2275  0.0898
  184POPC   H7R21136   2.708   0.198   5.657 -1.1554  1.0521  2.6444
  184POPC   H7S21137   2.864   0.123   5.709  2.4519  1.3943 -0.4963
  184POPC   C2821138   2.910   0.272   5.574  0.3088 -0.1563 -0.3521
  184POPC   H8R21139   3.012   0.257   5.615  0.1497  0.2168  0.1954
  184POPC   H8S21140   2.886   0.378   5.552 -2.0400 -0.9606 -2.0808
  184POPC   C2921141   2.884   0.197   5.447 -0.8631 -0.1340  0.0774
  184POPC   H9121142   2.898   0.089   5.463 -0.6149 -0.0879  0.1766
  184POPC  C21021143   2.830   0.251   5.333 -0.0117 -0.9129 -0.5841
  184POPC  H10121144   2.802   0.182   5.252 -3.0784 -1.3634  0.7043
  184POPC  C21121145   2.801   0.399   5.297 -0.5682  0.3744 -0.7127
  184POPC  H11R21146   2.871   0.469   5.347 -0.2756 -0.2680 -0.1921
  184POPC  H11S21147   2.698   0.418   5.333 -0.3140  2.3617 -0.9269
  184POPC  C21221148   2.817   0.423   5.149  0.2084 -0.9771 -0.3452
  184POPC  H12R21149   2.918   0.404   5.107  0.9013  2.7610 -0.7185
  184POPC  H12S21150   2.792   0.531   5.141  0.3616 -0.8071  1.1914
  184POPC  C21321151   2.709   0.348   5.068  0.4664 -0.1465  0.6433
  184POPC  H13R21152   2.612   0.363   5.121  0.8935  0.9508  1.1412
  184POPC  H13S21153   2.727   0.238   5.068 -0.0943 -0.2584 -0.6398
  184POPC  C21421154   2.694   0.403   4.924 -0.2785  0.1882  0.3633
  184POPC  H14R21155   2.707   0.514   4.922 -2.2552  0.4579  0.2496
  184POPC  H14S21156   2.596   0.378   4.879  1.7617 -3.2043 -2.6542
  184POPC  C21521157   2.788   0.327   4.827 -0.4176  0.1487 -0.0896
  184POPC  H15R21158   2.780   0.218   4.846  0.1922  0.5044  2.5715
  184POPC  H15S21159   2.888   0.374   4.838 -0.3660  0.2597 -0.9892
  184POPC  C21621160   2.760   0.346   4.677  0.2597  0.4240 -0.3374
  184POPC  H16R21161   2.671   0.289   4.640  1.4809 -1.4300 -0.5649
  184POPC  H16S21162   2.842   0.289   4.628 -0.3648 -1.1185  0.3548
  184POPC  C21721163   2.721   0.489   4.630 -0.0628  0.0644  0.1229
  184POPC  H17R21164   2.781   0.566   4.683  3.4914 -2.1890 -0.2285
  184POPC  H17S21165   2.616   0.502   4.662  0.0569  0.1941  0.4728
  184POPC  C21821166   2.721   0.522   4.484  0.3543 -0.1746  0.1583
  184POPC  H18R21167   2.827   0.523   4.451  0.1012  1.0835 -0.6894
  184POPC  H18S21168   2.693   0.628   4.469  2.9682  1.0985  3.3148
  184POPC  H18T21169   2.663   0.446   4.426  1.7828 -1.3928  0.2777
  184POPC   C3321170   2.494   0.661   6.251 -0.0438  0.0924 -0.6441
  184POPC   H3X21171   2.439   0.590   6.186  0.1134 -0.5694 -0.0604
  184POPC   H3Y21172   2.594   0.619   6.274  0.8020  1.8455 -0.9125
  184POPC   C3421173   2.514   0.796   6.185  0.1283  0.1160 -0.0210
  184POPC   H4X21174   2.570   0.858   6.257  1.2363  0.4569 -1.1353
  184POPC   H4Y21175   2.415   0.846   6.181  0.9019  1.7616  0.5066
  184POPC   C3521176   2.584   0.811   6.047  0.1195 -0.1437  0.2578
  184POPC   H5X21177   2.686   0.768   6.059 -0.5601 -1.7750  0.3222
  184POPC   H5Y21178   2.587   0.919   6.019  3.1418 -0.1684  0.1790
  184POPC   C3621179   2.512   0.736   5.941  0.0229  1.2381  0.6512
  184POPC   H6X21180   2.403   0.753   5.930  0.0828  1.0745 -0.3273
  184POPC   H6Y21181   2.530   0.628   5.960  1.9563  0.9704 -2.0509
  184POPC   C3721182   2.570   0.771   5.804 -0.2954  0.4892  0.1125
  184POPC   H7X21183   2.668   0.719   5.796 -1.0698 -0.7627 -2.1667
  184POPC   H7Y21184   2.571   0.883   5.804 -0.7008  0.4991 -0.9145
  184POPC   C3821185   2.484   0.742   5.679  0.2712  0.8813  0.6797
  184POPC   H8X21186   2.398   0.811   5.665  0.6482  1.2488  0.1307
  184POPC   H8Y21187   2.457   0.635   5.687  0.6768  0.5013 -1.9903
  184POPC   C3921188   2.569   0.740   5.549 -0.1454 -0.2075 -0.4485
  184POPC   H9X21189   2.665   0.686   5.560  0.3264  0.6770 -0.1076
  184POPC   H9Y21190   2.603   0.846   5.538 -3.6057  1.0369 -0.3070
  184POPC  C31021191   2.504   0.701   5.418 -0.9148  0.0385  0.8472
  184POPC  H10X21192   2.415   0.766   5.419 -1.0958 -0.1747 -0.2512
  184POPC  H10Y21193   2.458   0.601   5.403 -3.9572  1.4090  0.4009
  184POPC  C31121194   2.588   0.728   5.291  0.1803 -0.3945  0.9427
  184POPC  H11X21195   2.670   0.655   5.279  0.2279 -0.3144  0.7761
  184POPC  H11Y21196   2.634   0.829   5.303  0.1162 -0.4589  1.8105
  184POPC  C31221197   2.498   0.713   5.165 -0.6341 -0.1553 -0.6547
  184POPC  H12X21198   2.399   0.755   5.189 -1.2200 -0.8752 -1.7300
  184POPC  H12Y21199   2.478   0.606   5.140 -0.4504 -0.5467  0.7410
  184POPC  C31321200   2.577   0.769   5.046  0.0508  0.1703  0.5649
  184POPC  H13X21201   2.671   0.712   5.032  0.3654  0.3132  1.9523
  184POPC  H13Y21202   2.593   0.876   5.071  0.8014  0.2449 -0.1570
  184POPC  C31421203   2.494   0.758   4.917 -0.1610  0.3380 -0.0256
  184POPC  H14X21204   2.402   0.816   4.942  0.6211  1.4470  0.3725
  184POPC  H14Y21205   2.464   0.653   4.897  2.6257 -0.9680  2.0028
  184POPC  C31521206   2.564   0.822   4.796  0.8424  0.3585  0.4697
  184POPC  H15X21207   2.663   0.773   4.784  0.9344  0.5955  0.2542
  184POPC  H15Y21208   2.588   0.923   4.835  0.0362 -0.1627  2.4645
  184POPC  C31621209   2.471   0.816   4.669  0.6701  0.5661 -0.5147
  184POPC  H16X21210   2.533   0.842   4.581  3.0241 -0.8623  0.6273
  184POPC  H16Y21211   2.379   0.878   4.676 -0.9557 -1.8253  1.2682
  184POPC  H16Z21212   2.441   0.710   4.657  0.0642  0.6958 -0.2412
  185POPC     N21213   0.857   6.276   1.825 -0.2073  0.0977  0.2179
  185POPC   C1221214   0.839   6.305   1.970 -0.2278 -0.0713  0.2424
  185POPC  H12A21215   0.784   6.396   1.987 -1.3638 -0.9768  1.6922
  185POPC  H12B21216   0.933   6.336   2.012 -1.4725  2.6014  1.2825
  185POPC   C1321217   0.920   6.144   1.794 -0.2372  0.0619  0.3013
  185POPC  H13A21218   0.931   6.131   1.688 -0.1295  0.4298  0.2663
  185POPC  H13B21219   1.021   6.145   1.834 -0.2472  0.7530  0.3136
  185POPC  H13C21220   0.856   6.065   1.830  0.7873 -0.4910  0.9927
  185POPC   C1421221   0.730   6.284   1.744  0.1172 -0.4025 -0.2881
  185POPC  H14A21222   0.675   6.201   1.786 -1.6521  0.3862 -0.9376
  185POPC  H14B21223   0.665   6.369   1.754  1.3195  0.6190 -0.9042
  185POPC  H14C21224   0.753   6.270   1.639 -0.9129 -2.8721 -0.2542
  185POPC   C1521225   0.946   6.379   1.776  0.3402 -0.0704  0.2594
  185POPC  H15A21226   1.039   6.375   1.832  1.4421  1.7338 -1.2919
  185POPC  H15B21227   0.908   6.477   1.803 -1.3029 -0.8241  0.8106
  185POPC  H15C21228   0.957   6.376   1.669 -1.4430 -0.3223  0.0590
  185POPC   C1121229   0.769   6.193   2.060  0.2671 -0.0995  0.0757
  185POPC  H11A21230   0.758   6.223   2.166  0.3193  0.8787 -0.1880
  185POPC  H11B21231   0.843   6.110   2.064 -1.3740 -1.5913  3.5669
  185POPC     P21232   0.511   6.214   2.014 -0.2332 -0.3553  0.1316
  185POPC   O1321233   0.431   6.192   1.888  0.1967  0.5082  0.0154
  185POPC   O1421234   0.533   6.357   2.043  0.1905  0.4252  0.2644
  185POPC   O1221235   0.648   6.134   2.006  0.2419 -0.1255 -0.4935
  185POPC   O1121236   0.445   6.140   2.136  0.0558 -0.0170  0.1670
  185POPC    C121237   0.511   6.082   2.243 -0.8147  0.3029 -0.1660
  185POPC    HA21238   0.556   6.150   2.318 -1.0201  1.0024 -0.6692
  185POPC    HB21239   0.592   6.012   2.211 -3.4063 -2.2890 -1.5991
  185POPC    C221240   0.410   6.001   2.317 -0.9324 -0.2943 -0.1015
  185POPC    HS21241   0.342   5.957   2.242  2.6384 -0.3771 -3.6106
  185POPC   O2121242   0.341   6.079   2.417  0.6925  0.6934 -0.5285
  185POPC   C2121243   0.223   6.025   2.453 -0.2188  0.2905  0.4310
  185POPC   O2221244   0.179   5.919   2.401 -0.2741 -0.1509  0.4957
  185POPC   C2221245   0.166   6.111   2.558  0.5409  0.3335 -0.4385
  185POPC   H2R21246   0.070   6.147   2.514 -0.6109 -0.1115  1.5999
  185POPC   H2S21247   0.227   6.200   2.585  1.3949  0.1680 -1.7698
  185POPC    C321248   0.482   5.885   2.385  0.1482 -0.2774  0.4805
  185POPC    HX21249   0.542   5.841   2.302  1.5124 -0.0998  1.3496
  185POPC    HY21250   0.407   5.812   2.421  1.1522 -1.3003  0.5362
  185POPC   O3121251   0.580   5.919   2.485  0.2609  0.5353 -0.0700
  185POPC   C3121252   0.594   5.828   2.584  0.6676  0.2896  0.3142
  185POPC   O3221253   0.542   5.721   2.592 -0.0284 -0.5085 -0.2925
  185POPC   C3221254   0.676   5.893   2.699  0.3019  1.1889 -0.1095
  185POPC   H2X21255   0.722   5.987   2.663  1.8441 -0.4789 -2.7987
  185POPC   H2Y21256   0.760   5.821   2.703  0.0722  0.7711 -1.8936
  185POPC   C2321257   0.139   6.039   2.692  0.3540 -0.2265  0.2497
  185POPC   H3R21258   0.075   5.949   2.676 -0.6627  0.0974  2.1702
  185POPC   H3S21259   0.085   6.106   2.762 -1.2342  0.1405 -1.2533
  185POPC   C2421260   0.267   5.983   2.754 -0.1826  0.5313 -0.1024
  185POPC   H4R21261   0.336   6.061   2.793  1.0193 -1.5313  2.2112
  185POPC   H4S21262   0.316   5.920   2.676 -3.8460 -2.0145 -0.5919
  185POPC   C2521263   0.234   5.892   2.881  0.2544 -0.2383  0.1981
  185POPC   H5R21264   0.331   5.847   2.911 -0.5688 -2.2626 -0.0539
  185POPC   H5S21265   0.166   5.809   2.855  1.6108 -0.4950 -2.9631
  185POPC   C2621266   0.184   5.971   3.003  0.4576 -0.7143 -0.5931
  185POPC   H6R21267   0.074   5.989   3.001  0.6645  0.8976  0.6369
  185POPC   H6S21268   0.229   6.072   3.004 -2.0664  0.4802 -0.0068
  185POPC   C2721269   0.205   5.887   3.131 -0.0628  0.3050 -0.3655
  185POPC   H7R21270   0.309   5.849   3.120  2.3168  5.2235  2.1662
  185POPC   H7S21271   0.137   5.798   3.133 -1.2974  1.2150 -0.6488
  185POPC   C2821272   0.207   5.970   3.261  0.9125  1.4480  0.8949
  185POPC   H8R21273   0.232   6.078   3.258 -1.7402  2.0988 -0.8820
  185POPC   H8S21274   0.286   5.915   3.317 -0.1050 -2.8158 -1.4386
  185POPC   C2921275   0.082   5.958   3.342  0.5831  0.2067 -0.0996
  185POPC   H9121276  -0.013   5.951   3.286  0.0576 -0.1520  0.8215
  185POPC  C21021277   0.081   5.964   3.481  0.1698 -0.2810  0.5663
  185POPC  H10121278  -0.008   5.951   3.544  0.9783 -0.3888  1.7179
  185POPC  C21121279   0.209   5.980   3.570 -0.3761  0.8555 -0.3037
  185POPC  H11R21280   0.296   6.019   3.512  0.4489 -2.0618 -1.2005
  185POPC  H11S21281   0.242   5.883   3.612 -2.9971  1.4000  3.4854
  185POPC  C21221282   0.183   6.074   3.681 -0.2930 -0.7385  0.0358
  185POPC  H12R21283   0.083   6.066   3.729  0.6041  0.4487  2.2620
  185POPC  H12S21284   0.187   6.179   3.645 -1.5047 -0.3203  1.0246
  185POPC  C21321285   0.277   6.046   3.803  0.5779  0.5803 -0.2562
  185POPC  H13R21286   0.299   6.146   3.847 -0.9806  0.3116  1.1932
  185POPC  H13S21287   0.371   5.995   3.774  0.1826 -0.6268  0.5473
  185POPC  C21421288   0.204   5.964   3.914  0.2908 -0.4019 -0.4143
  185POPC  H14R21289   0.137   5.893   3.861  2.0924 -0.9456 -2.1044
  185POPC  H14S21290   0.147   6.035   3.978  1.3283 -0.3924  0.5310
  185POPC  C21521291   0.309   5.877   3.997 -0.1523  0.0380  0.3528
  185POPC  H15R21292   0.385   5.849   3.922 -0.7643  1.7609 -0.9924
  185POPC  H15S21293   0.255   5.795   4.049 -0.8884  0.1528 -0.2210
  185POPC  C21621294   0.374   5.973   4.098  0.0712  0.0404 -0.6313
  185POPC  H16R21295   0.381   6.077   4.059  0.2113  0.3674  0.2465
  185POPC  H16S21296   0.474   5.932   4.123 -0.2937 -0.6309 -0.2630
  185POPC  C21721297   0.304   5.971   4.238 -0.4390  0.0288 -0.3574
  185POPC  H17R21298   0.299   5.866   4.274 -0.6593  0.8031  1.9871
  185POPC  H17S21299   0.205   6.022   4.233 -0.2124  0.7184  1.5473
  185POPC  C21821300   0.391   6.035   4.348 -0.0635  0.3562 -0.8409
  185POPC  H18R21301   0.409   6.143   4.334 -0.7902  0.5534 -0.2888
  185POPC  H18S21302   0.487   5.979   4.362  0.6387  1.2257 -2.0148
  185POPC  H18T21303   0.321   6.027   4.434 -1.4323  2.6760 -1.6666
  185POPC   C3321304   0.610   5.891   2.842  0.2931 -1.1471 -0.1751
  185POPC   H3X21305   0.565   5.790   2.856  0.8418 -1.1568  1.9235
  185POPC   H3Y21306   0.527   5.965   2.843  0.3345 -1.0589  1.7933
  185POPC   C3421307   0.698   5.935   2.957  0.2820  0.4251  0.1284
  185POPC   H4X21308   0.748   6.032   2.938 -1.9367  1.6527  0.2502
  185POPC   H4Y21309   0.775   5.857   2.976 -0.0860  0.5357  2.4223
  185POPC   C3521310   0.609   5.939   3.086  0.1060  0.7604  0.1909
  185POPC   H5X21311   0.589   5.834   3.118  0.3925  0.5712 -0.2383
  185POPC   H5Y21312   0.506   5.971   3.062 -1.6786 -1.2210  4.2422
  185POPC   C3621313   0.662   6.022   3.200 -0.0525  0.2370 -0.1425
  185POPC   H6X21314   0.686   6.128   3.181 -1.5564  0.7035  0.3818
  185POPC   H6Y21315   0.759   5.971   3.220 -0.2405  0.9465  3.3444
  185POPC   C3721316   0.584   6.016   3.327  0.2366 -0.8235 -0.0550
  185POPC   H7X21317   0.547   5.913   3.347  1.3451 -1.1360  0.5201
  185POPC   H7Y21318   0.492   6.070   3.297 -0.6226 -2.8871 -1.3485
  185POPC   C3821319   0.664   6.077   3.450  0.9107  0.7630  0.4616
  185POPC   H8X21320   0.713   6.172   3.419 -0.1683  1.0561 -0.3882
  185POPC   H8Y21321   0.743   5.999   3.458 -0.5095 -0.6101  1.8168
  185POPC   C3921322   0.593   6.089   3.583  0.4630  0.0246 -0.1663
  185POPC   H9X21323   0.566   5.987   3.619  1.0534 -0.4048 -0.9174
  185POPC   H9Y21324   0.498   6.147   3.581 -0.8208 -1.9454  0.4554
  185POPC  C31021325   0.687   6.146   3.683 -0.3817 -0.3470  0.7218
  185POPC  H10X21326   0.695   6.256   3.676  2.2871 -0.3053  2.7798
  185POPC  H10Y21327   0.791   6.112   3.664 -0.8509 -0.7225 -1.3487
  185POPC  C31121328   0.640   6.134   3.832 -0.5753 -0.5559 -0.0006
  185POPC  H11X21329   0.630   6.026   3.855 -0.2391 -0.4771  0.5307
  185POPC  H11Y21330   0.545   6.189   3.846  0.1272  0.2116  2.2481
  185POPC  C31221331   0.748   6.199   3.921  0.0896  0.6693  0.4426
  185POPC  H12X21332   0.763   6.305   3.892 -0.1143  0.4871 -0.3463
  185POPC  H12Y21333   0.848   6.152   3.906  0.0671  0.7550  0.0288
  185POPC  C31321334   0.709   6.198   4.075 -0.2369 -0.4241  0.4646
  185POPC  H13X21335   0.688   6.092   4.102 -1.1244 -0.0506  1.3026
  185POPC  H13Y21336   0.610   6.244   4.093 -0.6277 -1.3449  0.7364
  185POPC  C31421337   0.822   6.253   4.165  0.3812 -0.1003  0.4610
  185POPC  H14X21338   0.819   6.361   4.140  0.0341 -0.6210 -1.9887
  185POPC  H14Y21339   0.921   6.205   4.151 -0.3381 -2.5386  2.8105
  185POPC  C31521340   0.787   6.254   4.312 -0.2466  0.1259  0.4140
  185POPC  H15X21341   0.783   6.147   4.343 -0.2605  0.4161  1.4460
  185POPC  H15Y21342   0.684   6.290   4.332  0.7610  0.9733  5.0395
  185POPC  C31621343   0.873   6.335   4.409 -0.1721  0.2409  0.1897
  185POPC  H16X21344   0.862   6.445   4.392  1.0100  0.1148 -1.6110
  185POPC  H16Y21345   0.980   6.309   4.412  0.0052  0.9675  0.5403
  185POPC  H16Z21346   0.843   6.310   4.513  2.8746 -2.6045  0.5259
  186POPC     N21347   3.903   5.178   2.033  0.1931  0.4790  0.5377
  186POPC   C1221348   3.803   5.266   2.097 -0.2838 -0.1137 -0.0289
  186POPC  H12A21349   3.769   5.211   2.184  2.4969 -1.4573  0.3399
  186POPC  H12B21350   3.716   5.282   2.036 -0.7386  0.6023  0.7744
  186POPC   C1321351   3.843   5.045   1.998  0.2473  0.2736  0.2822
  186POPC  H13A21352   3.772   5.069   1.921  1.4402  0.0428 -0.9137
  186POPC  H13B21353   3.916   4.971   1.970  0.7607  0.1884  1.7350
  186POPC  H13C21354   3.794   5.009   2.088  0.4645 -1.4976 -0.2704
  186POPC   C1421355   3.943   5.245   1.909  0.4294 -0.2189  0.4165
  186POPC  H14A21356   3.850   5.270   1.860 -0.2881  2.5529  2.9273
  186POPC  H14B21357   3.999   5.334   1.936  0.4905 -0.1588  0.0963
  186POPC  H14C21358   4.003   5.181   1.845 -0.1081 -2.1671  1.7710
  186POPC   C1521359   4.025   5.144   2.122 -0.1221 -0.1256  0.4109
  186POPC  H15A21360   4.079   5.062   2.077 -0.0204  0.3327 -0.3242
  186POPC  H15B21361   3.990   5.112   2.219 -0.0704  0.7654  0.7294
  186POPC  H15C21362   4.094   5.227   2.131  1.9249 -1.4392 -1.9087
  186POPC   C1121363   3.841   5.408   2.149  0.1541  0.7745  0.2485
  186POPC  H11A21364   3.911   5.400   2.236  1.1386 -1.8777 -0.7117
  186POPC  H11B21365   3.749   5.443   2.200  1.0655 -0.4909  3.0018
  186POPC     P21366   4.029   5.565   2.051  0.1239 -0.1788 -0.0169
  186POPC   O1321367   4.033   5.683   1.960 -0.1017  0.1829  0.3191
  186POPC   O1421368   4.129   5.463   2.022  0.6516  0.5055 -0.1214
  186POPC   O1221369   3.883   5.497   2.043 -0.2991  0.0096 -0.1516
  186POPC   O1121370   4.035   5.618   2.201 -0.4415 -0.3773  0.5954
  186POPC    C121371   3.945   5.722   2.237  0.4774  0.1887  0.6694
  186POPC    HA21372   3.845   5.703   2.192  0.2052 -2.5243  2.2658
  186POPC    HB21373   3.973   5.823   2.199 -1.2311  0.1982 -0.7328
  186POPC    C221374   3.922   5.723   2.389  0.0457  1.4884  0.4833
  186POPC    HS21375   4.024   5.741   2.429  0.1148 -0.4648  1.2971
  186POPC   O2121376   3.857   5.603   2.431 -0.2862  0.6476  0.2285
  186POPC   C2121377   3.881   5.556   2.544 -0.1057  0.1958 -0.2953
  186POPC   O2221378   3.945   5.615   2.635  0.2166  0.5191  0.2377
  186POPC   C2221379   3.818   5.414   2.556 -0.1509  0.4042 -0.1272
  186POPC   H2R21380   3.841   5.372   2.455  1.7768  1.2380 -0.0737
  186POPC   H2S21381   3.709   5.431   2.564 -0.1397 -0.1601  1.4396
  186POPC    C321382   3.834   5.839   2.426 -0.1056 -0.3702 -0.1868
  186POPC    HX21383   3.728   5.825   2.396 -0.0488  0.2906 -0.7208
  186POPC    HY21384   3.873   5.931   2.376 -0.9800 -0.1488 -0.4765
  186POPC   O3121385   3.825   5.866   2.562  0.1943 -0.3146 -0.6566
  186POPC   C3121386   3.928   5.906   2.622 -0.4699  0.0749  0.4733
  186POPC   O3221387   4.038   5.933   2.579  0.2362 -0.1077 -0.2455
  186POPC   C3221388   3.882   5.934   2.764 -0.0003 -0.2786 -1.3923
  186POPC   H2X21389   3.840   5.837   2.797  0.7580 -0.6931 -1.6300
  186POPC   H2Y21390   3.794   6.002   2.763  1.6540  1.9496 -1.2682
  186POPC   C2321391   3.868   5.343   2.676  0.3818  0.3982  0.5928
  186POPC   H3R21392   3.889   5.400   2.769  3.3799 -0.3185  0.4680
  186POPC   H3S21393   3.975   5.317   2.659  0.0876 -0.4158 -0.0782
  186POPC   C2421394   3.776   5.223   2.712 -0.5581 -1.3586  1.0176
  186POPC   H4R21395   3.774   5.156   2.624 -0.3876  0.1948 -0.2202
  186POPC   H4S21396   3.671   5.260   2.721  0.3964  1.9649 -0.1237
  186POPC   C2521397   3.828   5.134   2.824 -0.1823 -0.0052 -0.6982
  186POPC   H5R21398   3.939   5.143   2.830 -0.2872  1.1760 -0.3551
  186POPC   H5S21399   3.803   5.028   2.802 -1.9513 -0.0120  1.1228
  186POPC   C2621400   3.777   5.167   2.968  0.1851 -0.5645  0.2163
  186POPC   H6R21401   3.799   5.275   2.982 -0.6978 -0.5561  1.7737
  186POPC   H6S21402   3.831   5.111   3.047  2.9240  1.2642 -0.2191
  186POPC   C2721403   3.632   5.137   3.008  0.6706 -0.3204  0.0554
  186POPC   H7R21404   3.605   5.040   2.961 -0.7859  0.5761 -1.0518
  186POPC   H7S21405   3.573   5.222   2.967 -1.3996 -0.4489  2.5450
  186POPC   C2821406   3.607   5.134   3.159  0.4906  0.5758 -0.1519
  186POPC   H8R21407   3.496   5.130   3.166  0.2750 -4.1347 -2.3422
  186POPC   H8S21408   3.656   5.222   3.206  2.6699 -0.0679 -1.1165
  186POPC   C2921409   3.666   5.010   3.215  0.1485  0.8878  0.5349
  186POPC   H9121410   3.714   4.943   3.142 -0.2212  0.9164  0.2677
  186POPC  C21021411   3.663   4.983   3.348  0.2879  0.5095 -1.2780
  186POPC  H10121412   3.716   4.898   3.393  2.6301  0.6347 -3.5230
  186POPC  C21121413   3.594   5.071   3.443  0.0947 -0.1178  0.2132
  186POPC  H11R21414   3.483   5.066   3.434  0.1856  0.7439 -1.8828
  186POPC  H11S21415   3.612   5.176   3.413 -0.1779 -0.5293 -1.4667
  186POPC  C21221416   3.630   5.025   3.583 -0.3992  0.1080 -0.1743
  186POPC  H12R21417   3.576   5.104   3.640  0.1254  0.5006 -0.2188
  186POPC  H12S21418   3.738   5.037   3.604 -0.2314 -0.5113 -0.6525
  186POPC  C21321419   3.582   4.891   3.641 -0.2849 -0.3913  0.2129
  186POPC  H13R21420   3.594   4.886   3.751 -1.3600 -2.4072  0.3004
  186POPC  H13S21421   3.643   4.812   3.592 -3.0595 -0.5521 -3.4755
  186POPC  C21421422   3.430   4.860   3.622  0.3896 -0.0390 -0.0514
  186POPC  H14R21423   3.431   4.760   3.671  0.9409 -0.8939 -1.7223
  186POPC  H14S21424   3.404   4.849   3.515  0.9986  0.7017 -0.2867
  186POPC  C21521425   3.337   4.953   3.692 -1.0496  0.0814  0.1926
  186POPC  H15R21426   3.325   5.046   3.633  1.2770  0.6830  0.5798
  186POPC  H15S21427   3.377   4.978   3.793  0.4479 -3.0534  0.5105
  186POPC  C21621428   3.197   4.892   3.701  0.1884 -0.7697  0.2383
  186POPC  H16R21429   3.123   4.973   3.721  1.2983  0.3113  0.0922
  186POPC  H16S21430   3.199   4.830   3.793  0.1762 -3.0115 -1.2129
  186POPC  C21721431   3.144   4.800   3.584  0.1361 -0.3406  0.6783
  186POPC  H17R21432   3.194   4.701   3.583  0.8970  0.0238 -1.6843
  186POPC  H17S21433   3.167   4.861   3.494  0.5866 -1.1572  0.2372
  186POPC  C21821434   2.997   4.773   3.578 -0.3698 -0.2232  0.3424
  186POPC  H18R21435   2.945   4.870   3.570  1.5227  0.7080 -2.4810
  186POPC  H18S21436   2.956   4.701   3.503 -2.0823  0.7417  0.3014
  186POPC  H18T21437   2.962   4.737   3.677  0.8753 -0.6878  0.6426
  186POPC   C3321438   3.987   5.998   2.860  0.2332 -0.6491  0.1660
  186POPC   H3X21439   4.008   6.103   2.833  1.0121 -0.5438  1.1477
  186POPC   H3Y21440   4.077   5.933   2.861  1.5330  1.0859  0.3492
  186POPC   C3421441   3.933   6.012   3.002  0.3166 -0.1284 -0.1169
  186POPC   H4X21442   3.825   6.041   2.996  0.5114  0.8040  0.5719
  186POPC   H4Y21443   3.984   6.095   3.055 -0.4435  1.1969 -1.3769
  186POPC   C3521444   3.936   5.883   3.087 -0.0761  0.1580  0.7251
  186POPC   H5X21445   4.037   5.839   3.082  0.4819  0.6127  4.9181
  186POPC   H5Y21446   3.852   5.817   3.056 -0.2957  0.2946  1.0194
  186POPC   C3621447   3.912   5.915   3.237 -0.6397  0.2562 -0.9180
  186POPC   H6X21448   3.810   5.957   3.249 -0.8980 -0.9004  1.4486
  186POPC   H6Y21449   3.989   5.987   3.270 -0.8336 -1.0979  2.9546
  186POPC   C3721450   3.928   5.787   3.322 -0.1431 -0.0241  0.8305
  186POPC   H7X21451   4.031   5.746   3.327  0.7391  0.9757 -3.9930
  186POPC   H7Y21452   3.877   5.706   3.265  0.4628  0.1180  0.0754
  186POPC   C3821453   3.880   5.813   3.465 -0.2460  0.0288  0.1307
  186POPC   H8X21454   3.775   5.843   3.484  0.6185  1.5068  3.2552
  186POPC   H8Y21455   3.936   5.903   3.499 -0.5421  0.2226  0.1088
  186POPC   C3921456   3.908   5.689   3.553 -0.4975 -0.6540 -0.6136
  186POPC   H9X21457   4.019   5.679   3.547 -0.2829  0.7417  0.4615
  186POPC   H9Y21458   3.857   5.598   3.516 -1.3328  0.1703 -1.5314
  186POPC  C31021459   3.881   5.720   3.700  0.1321  0.0950 -0.5574
  186POPC  H10X21460   3.772   5.740   3.710 -0.0701 -1.4628  0.5860
  186POPC  H10Y21461   3.949   5.798   3.741  0.3528 -0.4658  0.1544
  186POPC  C31121462   3.890   5.598   3.786  0.0275  0.1679 -0.7392
  186POPC  H11X21463   3.989   5.552   3.766  0.8371  0.8480  1.4323
  186POPC  H11Y21464   3.818   5.527   3.740 -0.9243  0.8465 -0.3318
  186POPC  C31221465   3.877   5.617   3.944 -0.6216 -0.4370  0.1837
  186POPC  H12X21466   3.791   5.679   3.977 -0.8492 -1.2130  1.1002
  186POPC  H12Y21467   3.963   5.682   3.972 -1.2184  1.3292 -1.8690
  186POPC  C31321468   3.879   5.483   4.017 -0.4131 -0.5274 -0.0080
  186POPC  H13X21469   3.892   5.510   4.124 -1.9474  0.3534 -0.0228
  186POPC  H13Y21470   3.976   5.433   3.994  0.0462  1.5244 -3.3476
  186POPC  C31421471   3.756   5.396   3.990  0.2321  0.2288 -0.1372
  186POPC  H14X21472   3.748   5.366   3.883 -0.9492 -0.4777  0.1298
  186POPC  H14Y21473   3.660   5.447   4.013 -1.3201 -1.8433 -1.6533
  186POPC  C31521474   3.762   5.268   4.076  0.0542  0.5813  1.3168
  186POPC  H15X21475   3.796   5.291   4.179  0.1534  2.2909  0.9407
  186POPC  H15Y21476   3.842   5.206   4.029 -1.6908 -0.3307 -0.6076
  186POPC  C31621477   3.630   5.190   4.068 -0.4519  0.6364  0.3872
  186POPC  H16X21478   3.633   5.118   3.983 -1.8739  2.8663 -1.7007
  186POPC  H16Y21479   3.540   5.250   4.042 -0.2095 -0.0248 -2.2736
  186POPC  H16Z21480   3.612   5.138   4.165 -0.2197  0.6375  0.4311
  187POPC     N21481   0.206   4.949   1.651  0.2768 -0.0883  0.2033
  187POPC   C1221482   0.259   4.891   1.779 -0.4288  0.4521 -0.2366
  187POPC  H12A21483   0.337   4.949   1.826 -0.1400 -0.7301  0.8059
  187POPC  H12B21484   0.309   4.796   1.768 -1.7852 -0.7176  2.6402
  187POPC   C1321485   0.097   4.874   1.586 -0.2275 -0.0089 -0.2434
  187POPC  H13A21486   0.016   4.868   1.658  1.1608 -0.6876  1.3350
  187POPC  H13B21487   0.063   4.928   1.499 -0.3881  0.5435  0.1574
  187POPC  H13C21488   0.122   4.774   1.555 -0.6318 -0.8144  1.8735
  187POPC   C1421489   0.159   5.088   1.683  0.4912 -0.0435  0.2654
  187POPC  H14A21490   0.249   5.143   1.707  2.3580 -1.8706 -2.0073
  187POPC  H14B21491   0.112   5.135   1.598  2.0647  2.9767  0.9310
  187POPC  H14C21492   0.090   5.088   1.766 -1.5200 -0.1150 -1.3233
  187POPC   C1521493   0.320   4.978   1.557 -0.2794  0.0472 -0.3770
  187POPC  H15A21494   0.318   5.085   1.542 -2.0299  0.0901 -0.0828
  187POPC  H15B21495   0.312   4.918   1.467 -1.5820 -1.2378  0.5491
  187POPC  H15C21496   0.416   4.949   1.595 -0.3053  0.8831  0.3588
  187POPC   C1121497   0.164   4.869   1.892  0.1673  0.6079 -0.9611
  187POPC  H11A21498   0.072   4.827   1.845  2.1034 -1.9216 -2.7315
  187POPC  H11B21499   0.137   4.963   1.945  0.0274  0.6173 -1.0491
  187POPC     P21500   0.324   4.828   2.085  0.5068 -0.0940  0.1534
  187POPC   O1321501   0.368   4.961   2.034 -0.4141  0.6983  0.1683
  187POPC   O1421502   0.423   4.726   2.110  0.3069 -0.0293  0.2122
  187POPC   O1221503   0.215   4.770   1.985  0.2058 -0.1760 -0.0834
  187POPC   O1121504   0.236   4.846   2.215  0.2857  1.0213  0.3802
  187POPC    C121505   0.096   4.823   2.217 -0.9646 -0.1278 -0.3618
  187POPC    HA21506   0.072   4.721   2.181  0.0583 -0.3548 -0.4349
  187POPC    HB21507   0.042   4.893   2.150 -0.6362 -0.3011 -0.8094
  187POPC    C221508   0.039   4.844   2.356  0.0386 -0.4383 -0.2912
  187POPC    HS21509   0.076   4.941   2.397 -0.9521 -0.5864  1.0440
  187POPC   O2121510   0.092   4.732   2.434 -0.4824  0.3079  0.6242
  187POPC   C2121511   0.145   4.761   2.550  0.0566 -0.1253 -0.5452
  187POPC   O2221512   0.150   4.866   2.605 -0.0608  0.5657 -0.0351
  187POPC   C2221513   0.208   4.631   2.610 -0.5999  0.5073 -0.4736
  187POPC   H2R21514   0.292   4.666   2.673  1.3978  0.6747 -3.0705
  187POPC   H2S21515   0.241   4.567   2.526 -1.8371 -0.1306 -0.5090
  187POPC    C321516  -0.116   4.841   2.361 -0.6509  0.3316  0.7868
  187POPC    HX21517  -0.148   4.742   2.322 -0.5727  0.8627 -0.6688
  187POPC    HY21518  -0.145   4.917   2.286  1.9171 -0.4066 -1.1064
  187POPC   O3121519  -0.160   4.881   2.490 -0.6675  0.6676 -0.3398
  187POPC   C3121520  -0.241   4.797   2.555 -0.1519 -0.4390  0.1519
  187POPC   O3221521  -0.272   4.683   2.520 -1.0340  0.0038  0.5281
  187POPC   C3221522  -0.304   4.879   2.670  0.3203 -0.5810 -0.4127
  187POPC   H2X21523  -0.396   4.935   2.642  0.9845  0.6700 -0.1618
  187POPC   H2Y21524  -0.227   4.952   2.704 -0.8828  0.9440 -0.8541
  187POPC   C2321525   0.112   4.555   2.693  0.1673 -0.0899  0.9054
  187POPC   H3R21526   0.159   4.455   2.708  3.4170  0.7879 -1.9653
  187POPC   H3S21527   0.013   4.537   2.647  0.5255  2.2324 -1.0194
  187POPC   C2421528   0.091   4.624   2.829 -0.4389 -0.8204  0.5052
  187POPC   H4R21529   0.045   4.725   2.825 -0.3894 -0.8268 -0.4193
  187POPC   H4S21530   0.188   4.651   2.875 -0.9222  1.9855  0.0872
  187POPC   C2521531   0.007   4.541   2.921  0.6442  0.1547  0.2794
  187POPC   H5R21532   0.064   4.450   2.949 -0.7529 -0.3703  1.5221
  187POPC   H5S21533  -0.089   4.502   2.880  1.4767 -0.5872 -1.0395
  187POPC   C2621534  -0.029   4.620   3.050 -0.1557  0.2208  0.1416
  187POPC   H6R21535  -0.088   4.710   3.021 -1.3563 -0.9468 -1.1473
  187POPC   H6S21536   0.069   4.643   3.098 -0.3546  0.3031  0.5084
  187POPC   C2721537  -0.097   4.522   3.150 -0.0961 -0.5682  0.0191
  187POPC   H7R21538  -0.024   4.450   3.191  1.3247  0.4423 -0.6472
  187POPC   H7S21539  -0.181   4.476   3.094  0.9591 -0.9118 -1.3219
  187POPC   C2821540  -0.147   4.592   3.278  0.3217 -0.1031  0.9220
  187POPC   H8R21541  -0.203   4.683   3.248  0.1632  0.0525  1.6741
  187POPC   H8S21542  -0.060   4.636   3.331  0.4098  1.0882 -0.1534
  187POPC   C2921543  -0.222   4.507   3.377  0.0508  0.2046  0.1386
  187POPC   H9121544  -0.315   4.466   3.335 -0.0124 -1.9004  2.1035
  187POPC  C21021545  -0.180   4.452   3.492 -0.5176 -0.2452  0.9055
  187POPC  H10121546  -0.256   4.399   3.552 -1.0475  2.0556  2.4267
  187POPC  C21121547  -0.044   4.480   3.551  0.1992 -0.4493 -0.2306
  187POPC  H11R21548  -0.011   4.581   3.518 -0.5258 -0.1189  0.0402
  187POPC  H11S21549   0.031   4.400   3.532  0.0567 -0.4169 -0.9795
  187POPC  C21221550  -0.047   4.488   3.706  0.7316 -0.3133  0.2590
  187POPC  H12R21551  -0.109   4.407   3.749 -2.4642  1.4093 -0.8265
  187POPC  H12S21552  -0.095   4.585   3.727  0.9538 -0.2284  0.3794
  187POPC  C21321553   0.085   4.491   3.774 -0.1101  0.2469 -0.9074
  187POPC  H13R21554   0.110   4.596   3.750  0.1608  0.2077 -0.8013
  187POPC  H13S21555   0.161   4.422   3.731 -0.1645 -0.3864 -0.0222
  187POPC  C21421556   0.067   4.477   3.923 -0.2466 -0.2731 -0.8214
  187POPC  H14R21557  -0.014   4.401   3.935 -1.4000  1.1238  0.7007
  187POPC  H14S21558   0.032   4.569   3.973 -1.3910 -0.2140 -1.6827
  187POPC  C21521559   0.186   4.420   3.999 -0.1252 -0.3601 -0.0053
  187POPC  H15R21560   0.266   4.496   4.009  0.1344 -0.7196  0.6871
  187POPC  H15S21561   0.228   4.337   3.938 -0.0196 -1.0607  0.9974
  187POPC  C21621562   0.160   4.362   4.141 -0.6480 -0.2458 -0.3866
  187POPC  H16R21563   0.167   4.446   4.213 -0.9859 -1.6544  1.3662
  187POPC  H16S21564   0.244   4.293   4.161 -2.3249 -2.2944 -0.0736
  187POPC  C21721565   0.020   4.311   4.169  0.3773  0.0089  0.7263
  187POPC  H17R21566   0.005   4.234   4.091 -0.6583  0.4429  0.4752
  187POPC  H17S21567  -0.052   4.395   4.156 -0.7481 -0.5083  3.0553
  187POPC  C21821568  -0.001   4.266   4.311 -0.1237  0.2823  0.0104
  187POPC  H18R21569  -0.034   4.341   4.387 -2.6593  0.6160 -1.3150
  187POPC  H18S21570   0.086   4.208   4.347 -0.6657 -0.4625  0.1365
  187POPC  H18T21571  -0.077   4.186   4.324  0.6502 -0.6747 -1.2085
  187POPC   C3321572  -0.330   4.780   2.789  0.1781  0.2884 -0.3163
  187POPC   H3X21573  -0.259   4.694   2.790 -0.7028 -0.4944 -1.8268
  187POPC   H3Y21574  -0.424   4.728   2.762  0.8040 -0.1207 -1.8517
  187POPC   C3421575  -0.326   4.848   2.930 -0.5111  0.2266  0.7685
  187POPC   H4X21576  -0.387   4.940   2.921 -0.0071  0.6225  1.3151
  187POPC   H4Y21577  -0.223   4.885   2.948  0.3071  0.1914 -3.0633
  187POPC   C3521578  -0.390   4.767   3.040 -0.7640  0.1700 -0.0263
  187POPC   H5X21579  -0.333   4.672   3.050  0.7497  0.8384 -1.8476
  187POPC   H5Y21580  -0.492   4.747   3.002 -1.5841  0.6644  1.7739
  187POPC   C3621581  -0.410   4.835   3.176 -0.1066 -0.2857  0.3151
  187POPC   H6X21582  -0.463   4.931   3.158  1.1442  0.2869 -0.4374
  187POPC   H6Y21583  -0.310   4.858   3.218  0.2124 -0.9801 -0.0643
  187POPC   C3721584  -0.479   4.738   3.269 -0.2974 -0.1722 -0.3000
  187POPC   H7X21585  -0.430   4.639   3.259 -0.8515 -0.7325  1.9115
  187POPC   H7Y21586  -0.590   4.732   3.262 -0.2236 -1.0988 -0.8269
  187POPC   C3821587  -0.455   4.781   3.417 -0.2044  0.2534 -0.2637
  187POPC   H8X21588  -0.496   4.883   3.435 -4.1985 -1.2823  0.2190
  187POPC   H8Y21589  -0.344   4.791   3.425 -0.2315  0.4978 -0.1677
  187POPC   C3921590  -0.528   4.703   3.524  0.3235  0.0427 -1.0267
  187POPC   H9X21591  -0.518   4.594   3.507 -0.7365 -0.4866  1.3405
  187POPC   H9Y21592  -0.634   4.734   3.515  0.1127  1.5129  3.6829
  187POPC  C31021593  -0.479   4.719   3.666 -0.0158  0.1610  0.0679
  187POPC  H10X21594  -0.496   4.822   3.704 -0.4347  0.9397 -2.1075
  187POPC  H10Y21595  -0.369   4.704   3.662  0.0229 -0.1073  1.5106
  187POPC  C31121596  -0.541   4.625   3.770  0.4164  0.6407  0.1194
  187POPC  H11X21597  -0.500   4.523   3.753  0.4874  0.6222  0.3917
  187POPC  H11Y21598  -0.649   4.614   3.749  0.4930  1.1151 -0.5665
  187POPC  C31221599  -0.521   4.658   3.921 -0.0097 -0.3950 -0.7612
  187POPC  H12X21600  -0.579   4.750   3.944 -1.0299 -0.8043 -1.6082
  187POPC  H12Y21601  -0.417   4.685   3.949 -0.1216 -0.3103 -0.4201
  187POPC  C31321602  -0.560   4.541   4.018  0.7824 -0.4457  0.1151
  187POPC  H13X21603  -0.516   4.443   3.993  0.4495 -0.8214  0.9628
  187POPC  H13Y21604  -0.671   4.536   4.011  0.7753  0.7448 -1.3853
  187POPC  C31421605  -0.523   4.569   4.159  0.6419  0.4025  0.1956
  187POPC  H14X21606  -0.540   4.678   4.174  1.4153  0.8954 -2.0639
  187POPC  H14Y21607  -0.413   4.558   4.173  0.2623 -0.5085  3.2211
  187POPC  C31521608  -0.587   4.491   4.274 -0.2081  0.6804  0.3346
  187POPC  H15X21609  -0.537   4.522   4.369  1.2234 -0.4100 -0.0297
  187POPC  H15Y21610  -0.562   4.385   4.253 -1.2161  0.5948 -0.5017
  187POPC  C31621611  -0.734   4.528   4.284 -0.7235  0.3363 -0.0768
  187POPC  H16X21612  -0.739   4.636   4.310  0.6956  0.0570  1.5269
  187POPC  H16Y21613  -0.785   4.474   4.367  0.0046  0.8154  0.7005
  187POPC  H16Z21614  -0.796   4.510   4.194 -3.2450 -0.6827  1.7231
  188POPC     N21615   3.598   3.800   2.273  0.5071  0.4077 -1.0376
  188POPC   C1221616   3.691   3.917   2.265 -0.0756  0.1353 -0.4177
  188POPC  H12A21617   3.792   3.899   2.231  0.4729  1.1117  0.5977
  188POPC  H12B21618   3.706   3.950   2.367  0.1997  0.5193 -0.5797
  188POPC   C1321619   3.665   3.683   2.341  0.5934 -0.0600  0.4454
  188POPC  H13A21620   3.592   3.605   2.356 -0.1518  0.3884 -0.7102
  188POPC  H13B21621   3.757   3.662   2.288 -0.2495  0.1373 -1.1718
  188POPC  H13C21622   3.699   3.719   2.437  2.1004  1.4594 -0.6089
  188POPC   C1421623   3.467   3.833   2.342 -0.0390  0.2061 -0.6579
  188POPC  H14A21624   3.385   3.763   2.333 -0.7535  1.1116 -1.4328
  188POPC  H14B21625   3.482   3.875   2.441 -1.0896  2.8743 -1.5309
  188POPC  H14C21626   3.418   3.911   2.286  0.6782  2.0655  1.1618
  188POPC   C1521627   3.577   3.754   2.135  0.5760 -0.1741 -0.6138
  188POPC  H15A21628   3.670   3.716   2.095  0.5410 -3.5332  2.0176
  188POPC  H15B21629   3.541   3.839   2.080  2.6529  1.4814  0.4440
  188POPC  H15C21630   3.511   3.668   2.138  0.7939 -0.3120  1.3557
  188POPC   C1121631   3.646   4.032   2.174  0.2064 -0.3419 -0.6640
  188POPC  H11A21632   3.543   4.063   2.203  0.3878 -0.3198 -0.0176
  188POPC  H11B21633   3.650   3.999   2.068  0.4881 -0.7937 -0.5137
  188POPC     P21634   3.736   4.235   2.308 -0.0011 -0.1375  0.1964
  188POPC   O1321635   3.608   4.307   2.331 -0.0114 -0.0641 -0.4875
  188POPC   O1421636   3.857   4.323   2.300  0.1668  0.0288  0.3165
  188POPC   O1221637   3.736   4.142   2.182 -0.0213  0.1286  0.3022
  188POPC   O1121638   3.769   4.133   2.427 -0.5055  0.4904  0.4228
  188POPC    C121639   3.904   4.091   2.433 -0.4352  0.2651 -1.1767
  188POPC    HA21640   3.964   4.170   2.482  0.1068 -2.2655  2.6855
  188POPC    HB21641   3.945   4.054   2.337 -0.7651  0.5170 -1.4199
  188POPC    C221642   3.912   3.966   2.543 -0.0013 -1.0511  0.9806
  188POPC    HS21643   3.877   3.883   2.478  0.9682 -0.6361 -0.1040
  188POPC   O2121644   3.817   3.995   2.654 -0.4387  0.6486 -0.0488
  188POPC   C2121645   3.750   3.893   2.711 -0.2696 -0.2755  0.3022
  188POPC   O2221646   3.740   3.779   2.665  0.1786 -0.0934  0.1250
  188POPC   C2221647   3.686   3.944   2.841  0.1443  0.1098  0.0652
  188POPC   H2R21648   3.588   3.995   2.831 -0.0767  0.1117  1.9367
  188POPC   H2S21649   3.758   4.022   2.875 -0.5782  0.9037 -0.2060
  188POPC    C321650   4.047   3.943   2.602  0.3841  0.7382  0.3377
  188POPC    HX21651   4.083   4.034   2.655  0.5798  0.6712  0.3204
  188POPC    HY21652   4.124   3.931   2.524 -2.0014  1.0015 -2.2060
  188POPC   O3121653   4.044   3.841   2.701  0.5825  0.3452  0.0169
  188POPC   C3121654   4.093   3.723   2.671  0.2078 -0.1303  0.6448
  188POPC   O3221655   4.131   3.689   2.561  0.5551  0.3490  0.0052
  188POPC   C3221656   4.097   3.645   2.805 -0.0685 -0.0089  0.0766
  188POPC   H2X21657   4.204   3.618   2.815  0.0819 -0.5060 -2.3056
  188POPC   H2Y21658   4.041   3.552   2.782 -0.8290  0.2329  0.8648
  188POPC   C2321659   3.669   3.834   2.954  0.0067 -0.5418  0.5390
  188POPC   H3R21660   3.768   3.784   2.964  1.6753  2.4803  0.4916
  188POPC   H3S21661   3.591   3.761   2.926  2.1881 -2.3486 -1.2285
  188POPC   C2421662   3.641   3.888   3.090 -0.5576  0.4028 -0.2030
  188POPC   H4R21663   3.645   3.999   3.090 -1.4699  0.5291  2.5200
  188POPC   H4S21664   3.736   3.860   3.141 -0.9334 -2.1705 -0.7863
  188POPC   C2521665   3.523   3.838   3.169  0.6021 -0.2438 -0.1504
  188POPC   H5R21666   3.548   3.731   3.184  0.4867 -0.3941 -0.9931
  188POPC   H5S21667   3.423   3.835   3.121 -0.6051 -1.2249  2.2395
  188POPC   C2621668   3.496   3.927   3.302 -0.3165  0.8282  0.4623
  188POPC   H6R21669   3.401   3.892   3.346 -0.3727 -0.9157 -0.8987
  188POPC   H6S21670   3.480   4.032   3.271 -0.1760  0.3860 -1.2664
  188POPC   C2721671   3.600   3.908   3.410  0.0945 -0.6879 -0.3602
  188POPC   H7R21672   3.700   3.930   3.366 -0.6073 -2.0635 -2.7694
  188POPC   H7S21673   3.597   3.805   3.449  0.4347 -0.1921  1.0311
  188POPC   C2821674   3.569   4.007   3.527 -0.3730 -0.2647 -0.2315
  188POPC   H8R21675   3.564   4.106   3.478  0.8947 -0.0005  0.1415
  188POPC   H8S21676   3.658   4.010   3.593 -1.9237  0.8596  1.9500
  188POPC   C2921677   3.448   3.965   3.614 -0.2634  0.2243 -0.1666
  188POPC   H9121678   3.351   3.965   3.561 -0.2344  1.3952 -0.2483
  188POPC  C21021679   3.437   3.913   3.734 -0.0372 -0.1564 -0.3829
  188POPC  H10121680   3.335   3.887   3.766 -0.5012 -0.6868 -2.1907
  188POPC  C21121681   3.554   3.888   3.824  0.6759  0.8365  0.2297
  188POPC  H11R21682   3.653   3.904   3.777  0.9825 -1.9221 -0.2222
  188POPC  H11S21683   3.539   3.787   3.867 -1.2868  1.1992  0.4905
  188POPC  C21221684   3.543   3.999   3.932 -0.1278  0.8239  0.1145
  188POPC  H12R21685   3.436   3.989   3.960 -0.7449 -0.5375 -2.3746
  188POPC  H12S21686   3.555   4.097   3.881  0.9108  0.7870  0.2710
  188POPC  C21321687   3.644   3.986   4.037 -0.1740 -1.0384 -0.3197
  188POPC  H13R21688   3.747   4.004   4.000 -0.1394  0.4156  0.4079
  188POPC  H13S21689   3.627   3.896   4.099 -4.7500 -1.2558 -1.5552
  188POPC  C21421690   3.628   4.107   4.135  0.0686  0.1117  1.0749
  188POPC  H14R21691   3.532   4.106   4.192 -0.9481  3.1238 -0.3748
  188POPC  H14S21692   3.614   4.193   4.067 -1.1338 -1.9977 -1.5377
  188POPC  C21521693   3.745   4.141   4.225 -0.1779 -0.4801 -0.2023
  188POPC  H15R21694   3.822   4.181   4.156  2.3716  0.3187  2.8695
  188POPC  H15S21695   3.779   4.047   4.274 -0.1197 -0.9443 -1.1008
  188POPC  C21621696   3.712   4.243   4.344  0.2107 -0.1151  0.9813
  188POPC  H16R21697   3.642   4.188   4.410 -1.7155  2.4678  1.2838
  188POPC  H16S21698   3.660   4.337   4.313  1.4674 -0.0290 -1.1338
  188POPC  C21721699   3.824   4.289   4.430 -0.1345  0.4245 -0.1282
  188POPC  H17R21700   3.878   4.202   4.474  1.2358  1.9238  1.3157
  188POPC  H17S21701   3.771   4.330   4.519  0.6159  1.5825 -0.1905
  188POPC  C21821702   3.915   4.396   4.375  0.0755 -0.3054 -0.3562
  188POPC  H18R21703   3.852   4.481   4.341  0.0411 -0.8378 -1.6971
  188POPC  H18S21704   3.963   4.354   4.284 -0.0152 -2.4299  0.5261
  188POPC  H18T21705   3.985   4.430   4.454 -0.1634  0.3783 -0.4343
  188POPC   C3321706   4.038   3.725   2.929  0.2395 -0.6000  0.5261
  188POPC   H3X21707   3.936   3.760   2.900  0.5533 -0.9392 -1.0922
  188POPC   H3Y21708   4.110   3.809   2.938  1.6898 -1.8516  1.0029
  188POPC   C3421709   4.042   3.638   3.053  0.3426 -0.1209  0.7710
  188POPC   H4X21710   4.020   3.706   3.138 -1.2683  1.9590 -1.1967
  188POPC   H4Y21711   4.147   3.605   3.068  0.8618 -0.4105 -2.7937
  188POPC   C3521712   3.939   3.529   3.052 -0.1925 -0.8254 -0.0746
  188POPC   H5X21713   3.962   3.462   2.966 -0.9579 -0.5254 -0.5255
  188POPC   H5Y21714   3.843   3.580   3.028  1.6506  2.3491 -1.2979
  188POPC   C3621715   3.919   3.455   3.185 -0.2677 -0.3485  1.6711
  188POPC   H6X21716   4.021   3.413   3.198 -0.5817 -1.4716  0.7192
  188POPC   H6Y21717   3.844   3.374   3.171  0.8702 -1.1671 -0.1327
  188POPC   C3721718   3.879   3.548   3.302  0.9907  0.1969  0.5015
  188POPC   H7X21719   3.782   3.593   3.270  0.9588 -0.8488 -1.0076
  188POPC   H7Y21720   3.945   3.637   3.311 -0.4617  1.6015 -1.6043
  188POPC   C3821721   3.858   3.476   3.429 -0.5732 -0.4369  0.4821
  188POPC   H8X21722   3.957   3.446   3.469  0.9380  3.2971 -0.0643
  188POPC   H8Y21723   3.797   3.387   3.401 -1.4236  1.0266 -2.7939
  188POPC   C3921724   3.783   3.551   3.540  0.4517 -0.2365  0.7693
  188POPC   H9X21725   3.766   3.482   3.625  1.0720 -3.3756 -1.4644
  188POPC   H9Y21726   3.690   3.596   3.499  1.6008 -0.1279 -1.9820
  188POPC  C31021727   3.854   3.683   3.591 -0.5248 -0.8593  0.5214
  188POPC  H10X21728   3.797   3.727   3.676 -0.0492  0.8859 -0.0361
  188POPC  H10Y21729   3.853   3.755   3.507 -1.2739 -0.5795  0.7602
  188POPC  C31121730   3.996   3.665   3.621 -0.5743  0.5000 -0.1098
  188POPC  H11X21731   4.044   3.765   3.626 -0.9343  0.6900 -0.4131
  188POPC  H11Y21732   4.051   3.603   3.547 -1.0646 -0.5389  0.3850
  188POPC  C31221733   4.014   3.601   3.761 -0.0929  0.6668 -0.0218
  188POPC  H12X21734   3.965   3.502   3.768  0.5838  0.4540  2.4024
  188POPC  H12Y21735   3.967   3.661   3.841  0.2480  0.0525  0.6490
  188POPC  C31321736   4.157   3.590   3.813 -0.4834  0.1453  0.2490
  188POPC  H13X21737   4.197   3.694   3.814  0.2499 -0.0270 -2.2809
  188POPC  H13Y21738   4.209   3.537   3.730 -0.4993  1.1164 -0.3972
  188POPC  C31421739   4.178   3.530   3.950  0.3664 -0.0177 -0.8880
  188POPC  H14X21740   4.125   3.436   3.974  0.8705  0.2124  1.2902
  188POPC  H14Y21741   4.136   3.606   4.019  1.5147  0.5443 -0.7802
  188POPC  C31521742   4.329   3.510   3.980 -0.4982  0.5843  0.6152
  188POPC  H15X21743   4.382   3.589   3.924 -2.0769  2.2371  1.3613
  188POPC  H15Y21744   4.368   3.421   3.927 -0.3670  2.2798 -2.3337
  188POPC  C31621745   4.383   3.502   4.128  0.2509 -0.6721  0.4908
  188POPC  H16X21746   4.492   3.515   4.140  0.2254  1.7536 -1.1746
  188POPC  H16Y21747   4.352   3.401   4.165 -0.1440  0.0028  2.1109
  188POPC  H16Z21748   4.338   3.586   4.186 -0.4522  0.7399 -1.9730
  189SAPI   C1221749   2.405   2.936   6.486 -0.4820  0.2690  0.2879
  189SAPI    H221750   2.407   2.991   6.390  0.0827 -0.9673 -0.4333
  189SAPI    O221751   2.391   3.022   6.592  0.1175 -0.3982 -0.6196
  189SAPI   HO221752   2.298   3.046   6.592 -0.2766 -1.7259  0.6030
  189SAPI   C1321753   2.287   2.836   6.478 -0.0452  0.3416  0.7688
  189SAPI    H321754   2.312   2.766   6.396 -0.6591 -0.7320  1.4697
  189SAPI    O321755   2.164   2.901   6.442  0.1915  0.2599 -0.5760
  189SAPI   HO321756   2.109   2.844   6.387 -0.0154  0.6666 -0.7926
  189SAPI   C1421757   2.273   2.752   6.597 -0.2632 -0.4346 -0.2089
  189SAPI    H421758   2.224   2.819   6.671 -0.9198 -0.8221 -0.2827
  189SAPI    O421759   2.172   2.651   6.592  0.0027 -0.1927 -0.6720
  189SAPI   HO421760   2.104   2.659   6.659 -0.9581 -3.9427 -0.9279
  189SAPI   C1521761   2.400   2.697   6.644 -0.7301  0.2170  0.2399
  189SAPI    H521762   2.412   2.599   6.593 -0.5671 -0.3922  1.3978
  189SAPI    O521763   2.391   2.651   6.780 -0.3105 -0.4408  0.0569
  189SAPI   HO521764   2.411   2.557   6.785 -1.8967 -0.8818 -1.1529
  189SAPI   C1621765   2.533   2.767   6.611 -0.0521  0.1644 -0.5272
  189SAPI    H621766   2.556   2.833   6.697  0.5020  0.6101 -1.0095
  189SAPI    O621767   2.638   2.671   6.616  0.0220 -0.0132 -0.0725
  189SAPI   HO621768   2.714   2.706   6.569  0.5265 -2.8532 -1.6172
  189SAPI   C1121769   2.533   2.860   6.493 -0.2450 -0.0843  0.4984
  189SAPI    H121770   2.530   2.806   6.397  0.1508  2.9413 -1.3547
  189SAPI     P21771   2.784   2.914   6.410  0.0808  0.1117  0.7251
  189SAPI   O1321772   2.837   2.798   6.489  0.1960  0.5292 -0.2571
  189SAPI   O1421773   2.868   3.032   6.391 -0.3142 -0.0042 -0.0383
  189SAPI   O1221774   2.638   2.957   6.478  0.5383  0.1884  0.1246
  189SAPI   O1121775   2.749   2.857   6.270  0.4985  0.0079  0.5637
  189SAPI    C121776   2.735   2.945   6.153  0.1475  0.4849  0.2003
  189SAPI    HA21777   2.793   3.039   6.161 -0.6980  1.3108 -2.2965
  189SAPI    HB21778   2.783   2.889   6.070 -0.4847  0.4822 -0.1707
  189SAPI    C221779   2.592   2.968   6.128 -0.2679  0.0974  0.5308
  189SAPI    HS21780   2.531   3.006   6.212 -2.6745 -2.9457  0.3408
  189SAPI   O2121781   2.538   2.853   6.077  0.2337 -0.3252 -0.3701
  189SAPI   C2121782   2.402   2.850   6.087 -0.1846  0.5582  0.0492
  189SAPI   O2221783   2.329   2.930   6.136 -0.8992  0.5992  0.3440
  189SAPI   C2221784   2.353   2.712   6.029  0.6343 -0.8266 -0.0962
  189SAPI   H2R21785   2.368   2.721   5.919 -2.8904  0.0962 -0.6119
  189SAPI   H2S21786   2.426   2.636   6.063 -0.1706 -2.3630 -1.6646
  189SAPI    C321787   2.559   3.080   6.016 -0.5256 -0.0896 -0.0875
  189SAPI    HX21788   2.604   3.171   6.062 -0.3629  0.2851 -0.9725
  189SAPI    HY21789   2.452   3.096   5.990 -1.3558 -0.4250  2.7743
  189SAPI   O3121790   2.638   3.040   5.896 -0.1251  0.5934 -0.4238
  189SAPI   C3121791   2.582   2.989   5.788 -0.0692  0.4475 -0.4621
  189SAPI   O3221792   2.462   2.960   5.776 -0.8570  0.0097  0.1208
  189SAPI   C3221793   2.688   2.953   5.685 -0.7590 -0.5591 -0.4223
  189SAPI   H2X21794   2.695   2.842   5.677  2.3282 -0.4162 -0.9819
  189SAPI   H2Y21795   2.793   2.976   5.714 -0.5071 -2.1264  0.0259
  189SAPI   C2321796   2.204   2.690   6.048 -0.5831 -0.4341 -0.8153
  189SAPI   H3R21797   2.159   2.788   6.021  3.6699  1.4588 -2.0417
  189SAPI   H3S21798   2.182   2.669   6.155  3.0726 -4.1446 -0.5461
  189SAPI   C2421799   2.137   2.576   5.966 -0.2497 -0.1670 -0.3965
  189SAPI   H4R21800   2.033   2.615   5.958 -0.2207  0.2600  1.0024
  189SAPI   H4S21801   2.141   2.479   6.020  2.0676 -1.4693 -2.6642
  189SAPI   C2521802   2.192   2.548   5.831 -0.0331 -0.3019  0.5812
  189SAPI   H5R21803   2.302   2.543   5.826  0.0383 -1.1746  2.3946
  189SAPI   C2621804   2.128   2.529   5.716  0.1398  0.2611  0.6826
  189SAPI   H6R21805   2.185   2.518   5.623  0.9279  1.5548  0.9940
  189SAPI   C2721806   1.975   2.523   5.688  0.1072 -0.0906 -0.3081
  189SAPI   H7R21807   1.940   2.627   5.705  1.3175  0.1458  0.9740
  189SAPI   H7S21808   1.935   2.476   5.780  0.1727 -0.0529 -0.2598
  189SAPI   C2821809   1.926   2.462   5.564  0.3744 -0.8779  0.1725
  189SAPI   H8R21810   1.866   2.373   5.590 -1.7080  0.2228 -0.6171
  189SAPI   C2921811   1.960   2.476   5.439 -0.6052 -0.9444 -0.0987
  189SAPI   H9R21812   1.904   2.426   5.358 -1.6964  0.5349 -0.3096
  189SAPI  C21021813   2.068   2.569   5.381  0.1298 -0.4043  0.0205
  189SAPI  H10R21814   2.132   2.623   5.455 -0.2835  1.5990 -0.9953
  189SAPI  H10S21815   2.020   2.645   5.316 -1.6039 -0.9860  0.5822
  189SAPI  C21121816   2.153   2.489   5.289  0.3973  0.6279 -0.2995
  189SAPI  H11R21817   2.231   2.432   5.341 -0.2457  0.7650  0.8418
  189SAPI  C21221818   2.143   2.459   5.163 -0.0101 -0.4898 -0.5921
  189SAPI  H12R21819   2.225   2.395   5.128  0.7337  0.2297 -0.2072
  189SAPI  C21321820   2.045   2.516   5.065  0.7888  0.1749  0.4089
  189SAPI  H13R21821   2.104   2.566   4.985 -1.0482  1.9308  0.0533
  189SAPI  H13S21822   1.986   2.601   5.107 -1.8476 -1.4898  0.3036
  189SAPI  C21421823   1.949   2.412   5.010  0.6533  0.5143  0.8572
  189SAPI  H14R21824   1.844   2.430   5.040  0.6437  0.5089  0.8271
  189SAPI  C21521825   1.974   2.319   4.918  0.2259 -0.0795 -0.2823
  189SAPI  H15R21826   1.898   2.242   4.899 -1.1966  1.5142 -1.3266
  189SAPI  C21621827   2.111   2.298   4.856  0.1852 -0.2650  0.3556
  189SAPI  H16R21828   2.143   2.196   4.887  0.3366 -0.2063  0.3962
  189SAPI  H16S21829   2.190   2.364   4.897 -2.2565  0.7930  3.8268
  189SAPI  C21721830   2.113   2.294   4.702 -0.3108  0.4004 -0.1554
  189SAPI  H17R21831   2.021   2.240   4.669 -0.1596 -0.1819  0.3581
  189SAPI  H17S21832   2.198   2.237   4.658  0.4211  0.6021  0.9741
  189SAPI  C21821833   2.110   2.428   4.650  0.2303 -0.2453  0.6432
  189SAPI  H18R21834   2.215   2.464   4.650 -0.2484  1.3987 -1.4355
  189SAPI  H18S21835   2.058   2.505   4.712  1.6480  0.9656  0.3784
  189SAPI  C21921836   2.068   2.426   4.504  0.4134  0.1210 -0.3659
  189SAPI  H19R21837   1.966   2.392   4.477 -0.1941  0.7272  1.0414
  189SAPI  H19S21838   2.145   2.360   4.459 -0.7520 -1.3920 -0.1973
  189SAPI  C22021839   2.086   2.572   4.446 -0.5333  0.4330 -1.0632
  189SAPI  H20R21840   2.053   2.576   4.340 -1.7731  0.3490 -0.7064
  189SAPI  H20S21841   2.191   2.607   4.450 -0.5370  0.3641  1.7292
  189SAPI  H20T21842   2.014   2.629   4.508 -0.3354 -0.9217  0.4903
  189SAPI   C3321843   2.655   3.009   5.549  0.2518 -0.1018 -0.3865
  189SAPI   H3X21844   2.545   2.998   5.547  0.3250 -1.0995  0.1253
  189SAPI   H3Y21845   2.709   2.950   5.472 -1.2888 -0.5889 -1.1305
  189SAPI   C3421846   2.707   3.154   5.536 -0.0205 -0.3655  1.4268
  189SAPI   H4X21847   2.792   3.159   5.607  0.9463 -0.7440  0.3357
  189SAPI   H4Y21848   2.636   3.232   5.571  0.3081 -0.5825  2.6328
  189SAPI   C3521849   2.752   3.202   5.389 -0.1764  0.3437 -0.2714
  189SAPI   H5X21850   2.846   3.146   5.370 -0.4453  0.1078 -0.9424
  189SAPI   H5Y21851   2.762   3.312   5.388 -0.3395  0.3593 -1.5095
  189SAPI   C3621852   2.638   3.163   5.299 -0.5495  0.3404 -0.8515
  189SAPI   H6X21853   2.545   3.214   5.330 -0.4307  0.0789 -0.0381
  189SAPI   H6Y21854   2.636   3.052   5.299 -1.0274  0.3390 -0.2158
  189SAPI   C3721855   2.675   3.216   5.161 -1.1129  0.1556  0.4241
  189SAPI   H7X21856   2.778   3.179   5.139 -1.1861  0.6159 -0.7193
  189SAPI   H7Y21857   2.676   3.326   5.171  1.5919  0.1048  1.7502
  189SAPI   C3821858   2.573   3.179   5.050  0.5654  0.6178 -0.2375
  189SAPI   H8X21859   2.477   3.226   5.082  1.3634  1.3836  1.1334
  189SAPI   H8Y21860   2.552   3.071   5.039  2.4692  0.4254 -2.6724
  189SAPI   C3921861   2.612   3.242   4.919 -0.1627  0.7092 -0.4157
  189SAPI   H9X21862   2.702   3.181   4.893  1.6363  2.3123  1.6559
  189SAPI   H9Y21863   2.645   3.348   4.924  1.2046  0.4436 -2.3903
  189SAPI  C31021864   2.510   3.223   4.804 -0.1369  0.1573 -0.5458
  189SAPI  H10X21865   2.440   3.308   4.819  2.5125  2.3961 -0.0777
  189SAPI  H10Y21866   2.451   3.130   4.820  1.0478 -0.6335 -0.6688
  189SAPI  C31121867   2.574   3.214   4.663  0.1451 -0.1338  0.2028
  189SAPI  H11X21868   2.629   3.120   4.643 -1.4032 -0.6289 -2.0309
  189SAPI  H11Y21869   2.646   3.299   4.653  1.5284 -1.2531  0.3962
  189SAPI  C31221870   2.464   3.229   4.554 -0.0360  0.3256  0.1397
  189SAPI  H12X21871   2.428   3.333   4.544  0.1114  0.2939 -0.8231
  189SAPI  H12Y21872   2.374   3.169   4.581 -1.4254  1.1023 -2.3960
  189SAPI  C31321873   2.520   3.199   4.417  0.2512  0.4013  0.0033
  189SAPI  H13X21874   2.532   3.090   4.403  0.6045 -0.1652  3.7733
  189SAPI  H13Y21875   2.629   3.222   4.412 -0.0720  1.8765 -1.1088
  189SAPI  C31421876   2.444   3.276   4.300 -0.0459  0.4033 -0.0487
  189SAPI  H14X21877   2.441   3.384   4.327 -0.9909  0.5068 -0.5068
  189SAPI  H14Y21878   2.336   3.255   4.282 -0.5241  2.8579 -0.3643
  189SAPI  C31521879   2.527   3.260   4.176  0.0931  0.0215 -0.1320
  189SAPI  H15X21880   2.538   3.150   4.161  0.7172 -0.4460  3.0574
  189SAPI  H15Y21881   2.632   3.292   4.191 -0.2008  0.1545  2.0021
  189SAPI  C31621882   2.468   3.345   4.060  0.1120 -0.7519 -0.5139
  189SAPI  H16X21883   2.546   3.346   3.980  1.9585  0.2611  1.2090
  189SAPI  H16Y21884   2.453   3.453   4.080  3.3570 -0.1859 -0.6236
  189SAPI  C31721885   2.343   3.288   4.000 -0.0590 -0.4178 -0.2484
  189SAPI  H17X21886   2.264   3.263   4.074 -1.9468 -1.9807 -2.6244
  189SAPI  H17Y21887   2.375   3.188   3.964  1.5532 -0.3280  0.8758
  189SAPI  C31821888   2.281   3.372   3.885 -0.2890  0.5025 -0.1676
  189SAPI  H18X21889   2.339   3.357   3.792  0.8902  0.7353  0.5108
  189SAPI  H18Y21890   2.259   3.475   3.918  0.3298  0.8092 -0.6994
  189SAPI  H18Z21891   2.180   3.339   3.852 -0.4244  1.8362 -1.1520
  190SAPI   C1221892   2.534   6.722   7.106  0.7037 -0.5969  0.2547
  190SAPI    H221893   2.576   6.807   7.048 -0.7197 -0.0836 -0.0595
  190SAPI    O221894   2.636   6.635   7.130 -0.0146 -0.0968  0.3238
  190SAPI   HO221895   2.684   6.642   7.212 -0.0757 -3.2563  0.7848
  190SAPI   C1321896   2.482   6.797   7.224  0.0410 -0.1478 -0.3669
  190SAPI    H321897   2.396   6.860   7.189  1.4274  1.5334 -0.9007
  190SAPI    O321898   2.578   6.888   7.278  0.3287  0.2862  0.6009
  190SAPI   HO321899   2.562   6.977   7.246 -2.3013 -0.4104 -0.2387
  190SAPI   C1421900   2.412   6.698   7.317 -0.4278 -0.1343  0.2167
  190SAPI    H421901   2.495   6.656   7.378 -1.5932  0.0821  2.0183
  190SAPI    O421902   2.336   6.771   7.411 -0.5399  0.3559 -0.5751
  190SAPI   HO421903   2.287   6.713   7.470  0.0952  1.1186  0.7407
  190SAPI   C1521904   2.331   6.589   7.248  0.2095  0.8202  0.6468
  190SAPI    H521905   2.237   6.647   7.237  0.5799  1.3811  0.3803
  190SAPI    O521906   2.307   6.473   7.332 -0.0326 -0.3227 -0.3285
  190SAPI   HO521907   2.382   6.413   7.334  0.6869  0.5258  2.4773
  190SAPI   C1621908   2.365   6.545   7.108 -0.2678  0.4204  0.2512
  190SAPI    H621909   2.433   6.457   7.116 -0.0364  0.6516  0.8798
  190SAPI    O621910   2.260   6.478   7.046 -0.0589  0.3789 -0.4867
  190SAPI   HO621911   2.292   6.448   6.960  0.6875  1.0122 -0.4375
  190SAPI   C1121912   2.426   6.649   7.025 -0.0798 -0.7974  0.2777
  190SAPI    H121913   2.354   6.732   7.009  1.5595  0.5246 -0.5887
  190SAPI     P21914   2.527   6.707   6.776  0.1687  0.1566  0.0130
  190SAPI   O1321915   2.674   6.682   6.746  0.4190  0.3065  0.0142
  190SAPI   O1421916   2.486   6.842   6.813 -0.2225  0.7864 -0.2245
  190SAPI   O1221917   2.477   6.600   6.894 -0.2917 -0.1758 -0.1130
  190SAPI   O1121918   2.431   6.654   6.664 -0.2039 -0.1449 -0.1291
  190SAPI    C121919   2.302   6.706   6.648 -0.2242  0.2013  0.4890
  190SAPI    HA21920   2.243   6.689   6.740 -0.1461 -0.0450  0.4952
  190SAPI    HB21921   2.299   6.816   6.632  0.0264  0.2895  1.0278
  190SAPI    C221922   2.220   6.632   6.541  0.7142  0.0750 -0.6530
  190SAPI    HS21923   2.242   6.530   6.578 -1.9812 -0.6375 -0.8727
  190SAPI   O2121924   2.280   6.659   6.416 -0.4549 -0.3846 -0.6093
  190SAPI   C2121925   2.283   6.544   6.338 -0.2355 -0.3009 -0.4191
  190SAPI   O2221926   2.293   6.431   6.382 -0.2037 -0.8061 -0.0016
  190SAPI   C2221927   2.270   6.593   6.191  0.7379  0.1444  0.3890
  190SAPI   H2R21928   2.208   6.515   6.142 -0.6046 -0.3451  2.7248
  190SAPI   H2S21929   2.221   6.693   6.185  0.1350 -0.0637  1.5187
  190SAPI    C321930   2.069   6.659   6.539 -0.3028  0.1377  0.1210
  190SAPI    HX21931   2.037   6.630   6.641  1.4739 -0.6005  0.5074
  190SAPI    HY21932   2.007   6.595   6.474  2.2044 -2.1221 -0.2211
  190SAPI   O3121933   2.043   6.800   6.530  0.3370 -0.5476  0.0735
  190SAPI   C3121934   2.018   6.846   6.406  0.4018  0.2347  0.2027
  190SAPI   O3221935   1.982   6.776   6.315  0.3737  0.3374  0.9454
  190SAPI   C3221936   2.028   6.997   6.392 -0.0303 -0.3777 -0.0695
  190SAPI   H2X21937   2.101   7.041   6.465  1.3653 -0.8324 -1.1475
  190SAPI   H2Y21938   1.926   7.036   6.414 -0.7876 -0.7800 -2.5496
  190SAPI   C2321939   2.407   6.592   6.124  0.5287 -0.0398  0.6176
  190SAPI   H3R21940   2.472   6.506   6.150  1.2262  0.8611  1.9968
  190SAPI   H3S21941   2.447   6.687   6.166 -0.3080 -0.0152  1.3952
  190SAPI   C2421942   2.388   6.607   5.970  0.0001  0.0057 -0.1501
  190SAPI   H4R21943   2.281   6.623   5.945  0.1109 -1.0313 -1.3902
  190SAPI   H4S21944   2.415   6.507   5.930  0.7274  0.3828 -0.6105
  190SAPI   C2521945   2.468   6.713   5.907 -0.2893 -0.1370 -0.3551
  190SAPI   H5R21946   2.499   6.799   5.967  1.2276  0.3500 -1.7463
  190SAPI   C2621947   2.501   6.712   5.779  0.5508  0.1017  0.6781
  190SAPI   H6R21948   2.577   6.780   5.739 -0.9387  0.3962 -1.9220
  190SAPI   C2721949   2.462   6.603   5.682 -0.7549 -0.3048 -0.3284
  190SAPI   H7R21950   2.413   6.514   5.727 -0.4936 -0.4891 -0.4101
  190SAPI   H7S21951   2.553   6.549   5.649 -1.0567 -0.3314 -1.1515
  190SAPI   C2821952   2.384   6.653   5.562  0.8535  0.3037 -0.6014
  190SAPI   H8R21953   2.292   6.707   5.588  0.8819 -0.8607  2.2235
  190SAPI   C2921954   2.417   6.657   5.433  0.3819 -0.1606  0.3994
  190SAPI   H9R21955   2.354   6.718   5.366 -0.8216 -0.2666  1.3981
  190SAPI  C21021956   2.534   6.605   5.367 -0.1725  0.4019 -0.1252
  190SAPI  H10R21957   2.507   6.532   5.288 -1.3590  2.1967 -1.4783
  190SAPI  H10S21958   2.605   6.553   5.434  0.7681  0.3572 -1.1221
  190SAPI  C21121959   2.607   6.719   5.295 -0.3426  1.0637 -0.8682
  190SAPI  H11R21960   2.665   6.783   5.363  1.7740 -1.3787 -0.2029
  190SAPI  C21221961   2.600   6.743   5.162 -0.7156 -0.3814 -0.5646
  190SAPI  H12R21962   2.654   6.829   5.119 -0.3247 -0.9561 -1.2592
  190SAPI  C21321963   2.523   6.670   5.055 -0.0179 -0.3858 -0.1895
  190SAPI  H13R21964   2.461   6.594   5.106  0.4918  0.0157  1.0711
  190SAPI  H13S21965   2.599   6.616   4.994  0.1811  0.0767 -0.3601
  190SAPI  C21421966   2.443   6.754   4.962  0.2127 -0.5792 -1.0416
  190SAPI  H14R21967   2.346   6.790   4.999  0.1968  0.2099 -1.8150
  190SAPI  C21521968   2.482   6.790   4.840  0.1075 -0.0986 -0.0471
  190SAPI  H15R21969   2.418   6.860   4.786 -3.2712 -2.3836  0.6987
  190SAPI  C21621970   2.613   6.754   4.766 -0.3050  0.8264  0.2301
  190SAPI  H16R21971   2.692   6.705   4.826  1.8307  1.6912 -1.7394
  190SAPI  H16S21972   2.663   6.843   4.722  1.1227 -0.7144 -1.4394
  190SAPI  C21721973   2.577   6.675   4.641 -0.7621  0.4416 -0.1237
  190SAPI  H17R21974   2.481   6.699   4.590 -1.3718 -0.3166  0.6400
  190SAPI  H17S21975   2.566   6.572   4.681  1.8074 -0.9312 -2.5830
  190SAPI  C21821976   2.698   6.653   4.548  1.1449  0.8512 -0.5124
  190SAPI  H18R21977   2.782   6.606   4.602  0.4810 -1.1547 -1.1244
  190SAPI  H18S21978   2.742   6.750   4.516  1.8747  1.6174  2.5376
  190SAPI  C21921979   2.655   6.576   4.424 -0.5187  0.3298 -0.4680
  190SAPI  H19R21980   2.601   6.483   4.455  0.9070 -0.5992 -0.7016
  190SAPI  H19S21981   2.744   6.545   4.367 -0.6683  0.2604 -0.6651
  190SAPI  C22021982   2.572   6.657   4.325  0.5187 -0.2058  0.2710
  190SAPI  H20R21983   2.477   6.697   4.367  0.4409 -1.0576  0.9421
  190SAPI  H20S21984   2.545   6.592   4.239 -0.3421 -0.6167  0.8323
  190SAPI  H20T21985   2.631   6.740   4.283 -1.0329 -0.2685 -2.2410
  190SAPI   C3321986   2.082   7.016   6.244 -0.0907 -0.0623 -0.1577
  190SAPI   H3X21987   2.055   7.122   6.225 -0.0079  0.4320  2.1882
  190SAPI   H3Y21988   2.036   6.958   6.161  2.8489 -1.1362 -1.1492
  190SAPI   C3421989   2.234   7.007   6.236 -0.6293 -0.7911 -0.0612
  190SAPI   H4X21990   2.274   6.904   6.226 -2.1098 -1.2755 -1.4779
  190SAPI   H4Y21991   2.271   7.046   6.333 -2.3430  2.0261 -0.4183
  190SAPI   C3521992   2.294   7.105   6.136 -0.3360  0.5951 -0.5189
  190SAPI   H5X21993   2.404   7.095   6.146 -0.4613  1.1000  1.7719
  190SAPI   H5Y21994   2.258   7.205   6.168 -0.2416 -0.1996  2.2805
  190SAPI   C3621995   2.252   7.060   5.997  0.0866 -0.6663 -0.4383
  190SAPI   H6X21996   2.146   7.086   5.973 -0.3299  0.5204  2.3481
  190SAPI   H6Y21997   2.264   6.951   5.986 -1.2452 -0.8426 -0.3339
  190SAPI   C3721998   2.327   7.142   5.892 -0.1529  0.1693  0.6007
  190SAPI   H7X21999   2.436   7.122   5.882 -0.0872  0.8595 -0.2133
  190SAPI   H7Y22000   2.321   7.252   5.907 -1.0470 -0.1016  2.4382
  190SAPI   C3822001   2.264   7.137   5.756 -0.3528  0.5288  0.5970
  190SAPI   H8X22002   2.211   7.231   5.731 -1.8443 -0.6576 -0.9453
  190SAPI   H8Y22003   2.189   7.056   5.744 -1.3414  1.1954  1.9811
  190SAPI   C3922004   2.363   7.110   5.642 -0.0789 -0.0058  0.6221
  190SAPI   H9X22005   2.408   7.008   5.647  0.5777  0.1713 -1.1164
  190SAPI   H9Y22006   2.445   7.183   5.632 -0.8490  0.7704 -0.2383
  190SAPI  C31022007   2.297   7.105   5.499  0.5646 -0.6755 -0.2073
  190SAPI  H10X22008   2.258   7.203   5.464  2.3217  0.3889  0.6793
  190SAPI  H10Y22009   2.207   7.040   5.505  0.4247 -0.6999 -2.0865
  190SAPI  C31122010   2.391   7.042   5.400  0.3486 -0.8694 -0.0801
  190SAPI  H11X22011   2.435   6.942   5.421 -0.6356 -1.4472 -0.6982
  190SAPI  H11Y22012   2.479   7.108   5.386  1.3988 -2.5499 -2.0039
  190SAPI  C31222013   2.330   7.028   5.260 -0.2592 -0.1448 -0.2199
  190SAPI  H12X22014   2.250   6.951   5.272  0.0058 -0.3928 -0.0355
  190SAPI  H12Y22015   2.404   6.977   5.196 -1.0782 -1.5582 -0.0887
  190SAPI  C31322016   2.277   7.158   5.189  0.3881 -0.4039  0.5450
  190SAPI  H13X22017   2.355   7.236   5.180 -0.8676  1.3050  3.2199
  190SAPI  H13Y22018   2.192   7.208   5.240  0.7528  1.4269 -0.5462
  190SAPI  C31422019   2.206   7.135   5.045  0.4464  1.3375 -0.1938
  190SAPI  H14X22020   2.127   7.213   5.046  2.3610  3.3649  1.4806
  190SAPI  H14Y22021   2.168   7.030   5.036  0.6945  1.3256 -1.2625
  190SAPI  C31522022   2.308   7.148   4.935 -0.3040 -0.5317 -0.0192
  190SAPI  H15X22023   2.376   7.060   4.947  0.9036  0.6249  2.0908
  190SAPI  H15Y22024   2.377   7.232   4.955 -0.9933  0.2916 -1.0293
  190SAPI  C31622025   2.250   7.141   4.788  0.8622 -0.7165 -1.0180
  190SAPI  H16X22026   2.174   7.222   4.786  1.1435 -0.4107 -0.1212
  190SAPI  H16Y22027   2.200   7.042   4.785  1.2682 -1.1355  1.9892
  190SAPI  C31722028   2.359   7.167   4.683  0.3868  0.7076  0.7212
  190SAPI  H17X22029   2.438   7.090   4.701 -0.7597 -0.5215  0.6859
  190SAPI  H17Y22030   2.400   7.269   4.688 -0.8439  1.1910  1.5634
  190SAPI  C31822031   2.319   7.135   4.537 -0.6196 -0.3838  0.7687
  190SAPI  H18X22032   2.402   7.156   4.466 -1.1540  0.4827  0.3882
  190SAPI  H18Y22033   2.240   7.202   4.498 -0.5627 -0.8436 -0.1853
  190SAPI  H18Z22034   2.287   7.028   4.531 -3.2284  0.2856  1.7292
  191SAPI   C1222035   2.135   1.744   2.108  0.1337  0.4152 -0.5514
  191SAPI    H222036   2.176   1.713   2.009  1.3905 -2.2469  0.7109
  191SAPI    O222037   2.238   1.741   2.203 -0.1631 -0.1889 -0.5537
  191SAPI   HO222038   2.266   1.649   2.206 -1.5152 -0.6025  1.2367
  191SAPI   C1322039   2.073   1.878   2.084 -0.2326  0.3637 -0.0713
  191SAPI    H322040   1.982   1.868   2.021 -0.2503 -0.8144  0.1330
  191SAPI    O322041   2.151   1.965   2.005 -0.6039 -0.2396 -0.6098
  191SAPI   HO322042   2.098   1.987   1.927  0.1936 -0.8466 -1.3393
  191SAPI   C1422043   2.021   1.942   2.215  0.0354 -0.1636 -0.6409
  191SAPI    H422044   2.110   1.966   2.276 -0.4955  1.1971 -0.3702
  191SAPI    O422045   1.952   2.063   2.195 -0.2141  0.0340  0.2087
  191SAPI   HO422046   1.927   2.080   2.286  1.4761 -0.7422  0.8452
  191SAPI   C1522047   1.942   1.847   2.306 -0.4566  0.3469 -0.1459
  191SAPI    H522048   1.833   1.869   2.297 -0.4146  0.4248 -0.5051
  191SAPI    O522049   1.959   1.887   2.445 -0.1322  0.0515  0.1617
  191SAPI   HO522050   1.876   1.929   2.469  0.2511  0.8067  0.1811
  191SAPI   C1622051   1.961   1.697   2.283  0.1792  0.5062  0.7912
  191SAPI    H622052   2.034   1.672   2.363  1.1224 -1.5642 -0.6326
  191SAPI    O622053   1.834   1.629   2.305  0.5375 -0.1833  0.4711
  191SAPI   HO622054   1.843   1.534   2.302  1.5969 -0.1349  1.3947
  191SAPI   C1122055   2.025   1.655   2.147 -0.1454  0.0941  0.3777
  191SAPI    H122056   1.940   1.660   2.076  0.4057  2.6309 -0.1822
  191SAPI     P22057   1.986   1.387   2.125 -0.0320  0.1521  0.1526
  191SAPI   O1322058   2.069   1.267   2.119 -0.4040  0.0976 -0.5727
  191SAPI   O1422059   1.904   1.403   2.005  0.1324  0.6880  0.1772
  191SAPI   O1222060   2.079   1.518   2.157 -0.3228 -0.1441 -0.0015
  191SAPI   O1122061   1.892   1.375   2.249 -0.1446 -0.1696  0.2479
  191SAPI    C122062   1.952   1.355   2.382  0.2598  0.1572  0.2525
  191SAPI    HA22063   2.042   1.291   2.368 -1.6033 -2.7563  0.6976
  191SAPI    HB22064   1.993   1.448   2.427  1.2498 -0.3619  0.4529
  191SAPI    C222065   1.854   1.293   2.495 -0.8990  0.1742 -0.0160
  191SAPI    HS22066   1.830   1.188   2.466  3.1396 -0.9486  0.0556
  191SAPI   O2122067   1.739   1.378   2.503 -0.1978  0.5382 -0.3397
  191SAPI   C2122068   1.642   1.325   2.566  0.0755  0.9120 -0.9007
  191SAPI   O2222069   1.647   1.211   2.614  0.5294  0.6993 -0.7866
  191SAPI   C2222070   1.524   1.418   2.585  0.0679 -0.6012  0.0196
  191SAPI   H2R22071   1.445   1.351   2.623  0.5388 -1.8400 -1.1149
  191SAPI   H2S22072   1.555   1.494   2.659 -0.0718 -0.7889  0.2691
  191SAPI    C322073   1.937   1.287   2.625 -0.0797 -0.6550 -0.7643
  191SAPI    HX22074   1.871   1.254   2.708 -2.5079 -1.3023 -2.8394
  191SAPI    HY22075   1.966   1.389   2.657 -0.2243 -1.1843  1.1740
  191SAPI   O3122076   2.054   1.207   2.623 -0.2097  0.3169 -0.4370
  191SAPI   C3122077   2.041   1.075   2.651 -0.8700  0.1090 -0.2465
  191SAPI   O3222078   1.938   1.012   2.658 -0.5632  0.0788 -0.0793
  191SAPI   C3222079   2.188   1.027   2.625  0.0994 -0.1536  0.2315
  191SAPI   H2X22080   2.262   1.102   2.660 -2.3750  2.6721 -0.1075
  191SAPI   H2Y22081   2.198   1.006   2.517 -0.5622  2.7161 -0.4774
  191SAPI   C2322082   1.461   1.476   2.453  0.1865  0.0223 -0.6401
  191SAPI   H3R22083   1.416   1.393   2.394  0.8026 -1.1250  0.4655
  191SAPI   H3S22084   1.541   1.505   2.382 -0.4090  1.4554 -0.7611
  191SAPI   C2422085   1.363   1.590   2.489 -0.2022 -0.2779  0.3936
  191SAPI   H4R22086   1.337   1.640   2.393 -2.1249 -0.7705  0.6103
  191SAPI   H4S22087   1.427   1.657   2.549  0.8049  0.6931 -1.6611
  191SAPI   C2522088   1.252   1.521   2.555  0.6706  0.1240 -0.0245
  191SAPI   H5R22089   1.223   1.424   2.513 -1.2557  0.2421  0.8935
  191SAPI   C2622090   1.180   1.572   2.659 -0.4073 -0.1403  0.3065
  191SAPI   H6R22091   1.099   1.503   2.688  0.7152 -2.7009 -2.2036
  191SAPI   C2722092   1.205   1.705   2.735  0.0696  0.0102  0.5675
  191SAPI   H7R22093   1.109   1.741   2.777  1.1620  3.6588  0.2436
  191SAPI   H7S22094   1.228   1.797   2.677 -3.2662 -0.4734 -1.8413
  191SAPI   C2822095   1.297   1.705   2.852  0.4715  0.3729  0.1739
  191SAPI   H8R22096   1.359   1.614   2.855  1.1254  0.8527  2.2577
  191SAPI   C2922097   1.312   1.803   2.945  0.5090  0.4228 -0.2859
  191SAPI   H9R22098   1.366   1.768   3.035  2.5787  1.9121 -0.8554
  191SAPI  C21022099   1.240   1.933   2.956 -0.9952 -0.4590  0.1661
  191SAPI  H10R22100   1.219   1.967   3.059 -0.7004  0.9940 -0.2333
  191SAPI  H10S22101   1.132   1.921   2.929 -1.1221 -0.4496  0.6596
  191SAPI  C21122102   1.314   2.032   2.865  0.4382 -0.3844 -0.3942
  191SAPI  H11R22103   1.314   1.994   2.762 -1.0804 -0.5824 -0.3450
  191SAPI  C21222104   1.379   2.143   2.914 -0.8388  0.2061  0.2600
  191SAPI  H12R22105   1.434   2.206   2.842 -1.7039 -0.3103 -0.8848
  191SAPI  C21322106   1.376   2.196   3.050  0.2165 -0.2060 -0.3438
  191SAPI  H13R22107   1.280   2.181   3.104 -0.3770  1.0692 -0.9969
  191SAPI  H13S22108   1.386   2.305   3.032  2.1194 -0.3228 -0.1629
  191SAPI  C21422109   1.480   2.137   3.140 -0.4262  0.5676  1.1636
  191SAPI  H14R22110   1.558   2.086   3.082 -0.6573  0.8883  0.5671
  191SAPI  C21522111   1.478   2.122   3.274 -0.3548  0.2470 -0.6694
  191SAPI  H15R22112   1.562   2.073   3.325 -1.2760  2.9058  4.0039
  191SAPI  C21622113   1.383   2.175   3.371  0.5887 -0.0407 -0.6011
  191SAPI  H16R22114   1.300   2.229   3.320 -1.5407 -2.4869  0.0812
  191SAPI  H16S22115   1.432   2.259   3.426  1.1330  0.6582 -2.1182
  191SAPI  C21722116   1.321   2.071   3.474 -0.1423 -0.6673  0.3511
  191SAPI  H17R22117   1.285   1.983   3.417 -0.1926 -1.6827  1.8924
  191SAPI  H17S22118   1.234   2.129   3.513 -1.1587  0.0536 -2.7008
  191SAPI  C21822119   1.408   2.031   3.590  0.3512 -0.1595 -0.1959
  191SAPI  H18R22120   1.508   2.034   3.542  1.4182 -0.6140  1.8826
  191SAPI  H18S22121   1.401   1.923   3.615 -0.6705  0.0982  0.7378
  191SAPI  C21922122   1.398   2.125   3.716  0.2900  0.2809 -0.5877
  191SAPI  H19R22123   1.291   2.134   3.742 -0.0106 -2.2415 -0.7011
  191SAPI  H19S22124   1.437   2.225   3.686  1.2740  0.3254  0.7086
  191SAPI  C22022125   1.472   2.072   3.840 -0.4624 -0.1369 -0.2150
  191SAPI  H20R22126   1.568   2.027   3.807  0.2525 -1.3779  3.0800
  191SAPI  H20S22127   1.420   1.987   3.891  0.3290 -1.6463 -1.8116
  191SAPI  H20T22128   1.490   2.152   3.915  0.5447 -1.0314  0.5467
  191SAPI   C3322129   2.218   0.893   2.695 -0.3623 -0.9528  0.2972
  191SAPI   H3X22130   2.317   0.860   2.656  0.1330  0.6598  0.1298
  191SAPI   H3Y22131   2.135   0.823   2.672 -1.1071 -0.1431  0.4839
  191SAPI   C3422132   2.256   0.905   2.839  0.0756  0.5565 -0.3561
  191SAPI   H4X22133   2.361   0.939   2.853  0.1026  0.4252 -0.2353
  191SAPI   H4Y22134   2.250   0.803   2.883 -1.9021  0.1660 -1.3951
  191SAPI   C3522135   2.163   0.987   2.924  0.1207 -0.0500  1.0697
  191SAPI   H5X22136   2.057   0.960   2.905  0.3151 -0.7021  0.8674
  191SAPI   H5Y22137   2.165   1.090   2.882 -0.7731  0.1963  1.6030
  191SAPI   C3622138   2.191   0.986   3.071  0.6502 -0.3935  0.3485
  191SAPI   H6X22139   2.197   0.880   3.103  1.0244 -0.2158  0.8734
  191SAPI   H6Y22140   2.104   1.029   3.126  0.0623  0.6472 -1.3101
  191SAPI   C3722141   2.318   1.066   3.112  0.4071 -0.3149  0.0117
  191SAPI   H7X22142   2.300   1.167   3.071 -0.2437 -0.3719  0.1432
  191SAPI   H7Y22143   2.408   1.024   3.063  1.6343  1.8508  0.2811
  191SAPI   C3822144   2.345   1.059   3.267  0.4129 -0.1592  0.4615
  191SAPI   H8X22145   2.262   1.116   3.312  0.3544  0.8143 -0.8331
  191SAPI   H8Y22146   2.434   1.125   3.282 -1.0148  2.0139 -0.1841
  191SAPI   C3922147   2.359   0.921   3.336 -0.8639 -0.2523 -0.2571
  191SAPI   H9X22148   2.461   0.889   3.306 -1.2115 -0.2208 -1.5650
  191SAPI   H9Y22149   2.286   0.857   3.281 -2.6156  0.5550  1.0574
  191SAPI  C31022150   2.328   0.923   3.489 -0.6037 -0.3619  0.6673
  191SAPI  H10X22151   2.232   0.978   3.495 -0.4365  0.3796 -1.9775
  191SAPI  H10Y22152   2.411   0.984   3.529  1.1269 -1.4241 -1.0751
  191SAPI  C31122153   2.310   0.780   3.541 -0.4887  0.2445  0.1676
  191SAPI  H11X22154   2.405   0.723   3.537 -1.0446 -0.6717 -0.3669
  191SAPI  H11Y22155   2.230   0.724   3.488 -2.3532  2.7555  0.1777
  191SAPI  C31222156   2.276   0.779   3.688  0.8860  0.0196 -1.4673
  191SAPI  H12X22157   2.183   0.835   3.713 -0.4975 -2.0317 -1.7808
  191SAPI  H12Y22158   2.367   0.819   3.738  1.3280  0.1186 -2.3254
  191SAPI  C31322159   2.249   0.632   3.734  0.3487 -0.8087 -0.3017
  191SAPI  H13X22160   2.337   0.571   3.704  2.4088  2.3260 -1.1491
  191SAPI  H13Y22161   2.156   0.598   3.683  1.8737 -0.6064 -3.4848
  191SAPI  C31422162   2.212   0.623   3.884 -0.3301 -0.2262 -0.4207
  191SAPI  H14X22163   2.140   0.705   3.902  0.8548  0.7948 -0.2009
  191SAPI  H14Y22164   2.309   0.641   3.934  0.0209 -2.5735 -0.1330
  191SAPI  C31522165   2.158   0.484   3.927 -0.5330  0.0325 -0.0400
  191SAPI  H15X22166   2.243   0.415   3.908 -1.1566 -1.0328  0.9251
  191SAPI  H15Y22167   2.080   0.453   3.854 -0.9050  0.4119  0.1908
  191SAPI  C31622168   2.115   0.483   4.074  0.6003  0.1540 -0.0475
  191SAPI  H16X22169   2.015   0.530   4.086  1.6474  1.9988  2.0369
  191SAPI  H16Y22170   2.178   0.550   4.136  0.1291 -0.9188  1.6598
  191SAPI  C31722171   2.097   0.338   4.119 -0.2638 -1.3834 -0.4716
  191SAPI  H17X22172   2.205   0.314   4.125  0.4130  1.4033 -0.2415
  191SAPI  H17Y22173   2.048   0.285   4.035 -1.4403 -0.4609 -0.3922
  191SAPI  C31822174   2.020   0.319   4.257 -0.0212  0.0743  0.1522
  191SAPI  H18X22175   2.007   0.212   4.283  2.3545  0.0627  1.6069
  191SAPI  H18Y22176   1.917   0.361   4.257 -0.0416  0.0238 -0.3712
  191SAPI  H18Z22177   2.079   0.351   4.346 -0.8780 -0.6480  1.0088
  192SAPI   C1222178   1.750   4.833   2.078  0.2818  0.3645  0.1960
  192SAPI    H222179   1.774   4.879   2.177  1.3703  0.1082  0.0653
  192SAPI    O222180   1.710   4.700   2.096 -0.5242 -0.2469 -0.4591
  192SAPI   HO222181   1.658   4.684   2.175 -1.2341 -1.4135 -1.1420
  192SAPI   C1322182   1.651   4.918   2.004 -0.2368  0.1753  0.0696
  192SAPI    H322183   1.707   5.013   1.987  2.8284 -1.6334 -0.7423
  192SAPI    O322184   1.529   4.940   2.075 -0.4167 -0.4607 -0.0647
  192SAPI   HO322185   1.488   4.860   2.108 -0.5260 -0.4036 -0.0620
  192SAPI   C1422186   1.629   4.861   1.867 -0.2121 -0.2149  0.0640
  192SAPI    H422187   1.587   4.762   1.893 -0.3696  0.2391  1.6340
  192SAPI    O422188   1.539   4.938   1.793  0.2618 -0.1585 -0.6691
  192SAPI   HO422189   1.515   4.895   1.711 -1.6048  1.0516 -0.8299
  192SAPI   C1522190   1.758   4.830   1.787  0.1800 -0.0368 -0.0494
  192SAPI    H522191   1.794   4.929   1.750 -0.6804  0.0477 -0.6984
  192SAPI    O522192   1.725   4.760   1.669 -0.0508 -0.0822  0.9302
  192SAPI   HO522193   1.723   4.828   1.601 -0.3736  0.5763  1.5785
  192SAPI   C1622194   1.873   4.762   1.862  0.7108  0.9247  0.3415
  192SAPI    H622195   1.839   4.657   1.868 -0.0677  1.1657  0.2539
  192SAPI    O622196   1.995   4.752   1.795 -0.3508  0.1180  0.3744
  192SAPI   HO622197   2.057   4.698   1.845  2.5633  1.0117 -1.9808
  192SAPI   C1122198   1.884   4.829   2.000 -0.0353 -0.1701 -0.0469
  192SAPI    H122199   1.908   4.935   1.976 -0.7752 -0.3981 -1.9397
  192SAPI     P22200   2.091   4.846   2.185 -0.0356  0.4666 -0.0493
  192SAPI   O1322201   2.102   4.984   2.137 -0.2365  0.5528  0.6450
  192SAPI   O1422202   2.219   4.773   2.193  0.9361  0.0687 -0.7670
  192SAPI   O1222203   1.992   4.772   2.079  0.1365 -0.3432 -0.7443
  192SAPI   O1122204   2.005   4.825   2.318  0.1070  0.4059 -0.3542
  192SAPI    C122205   2.039   4.706   2.397  0.4871 -0.1082  0.4002
  192SAPI    HA22206   2.043   4.619   2.328 -1.3878  1.2505 -1.5537
  192SAPI    HB22207   2.135   4.715   2.453  0.1096 -0.1331  1.0675
  192SAPI    C222208   1.927   4.677   2.501  0.3012  0.2595 -0.3746
  192SAPI    HS22209   1.834   4.643   2.451 -0.0988  2.1787 -0.9977
  192SAPI   O2122210   1.914   4.796   2.581  0.3503  0.3512  0.3377
  192SAPI   C2122211   1.794   4.816   2.628  0.7202  0.7030 -0.2368
  192SAPI   O2222212   1.691   4.750   2.604 -0.0806  0.1921  0.0429
  192SAPI   C2222213   1.793   4.925   2.736  0.3858  0.1222  0.7782
  192SAPI   H2R22214   1.899   4.937   2.768  1.2181 -3.1275 -0.3764
  192SAPI   H2S22215   1.746   5.021   2.705 -1.0161 -0.8221 -0.1319
  192SAPI    C322216   1.962   4.556   2.585  0.7948 -0.4914 -1.1865
  192SAPI    HX22217   2.056   4.586   2.635  1.2196  0.0944 -2.3025
  192SAPI    HY22218   1.982   4.468   2.520  0.4059  0.0037 -1.9930
  192SAPI   O3122219   1.861   4.538   2.689 -0.5952  0.2009  0.7065
  192SAPI   C3122220   1.784   4.424   2.684 -0.2704 -0.1887  1.2689
  192SAPI   O3222221   1.804   4.332   2.604  0.6321 -0.4695 -0.3438
  192SAPI   C3222222   1.674   4.437   2.785 -0.1654  1.1130 -0.4387
  192SAPI   H2X22223   1.591   4.367   2.765 -0.2582  0.4959  1.8086
  192SAPI   H2Y22224   1.639   4.542   2.778  0.0717  1.2606  0.4051
  192SAPI   C2322225   1.729   4.868   2.872  0.5557 -0.3625  0.1643
  192SAPI   H3R22226   1.729   4.758   2.856 -1.2405 -0.4905  0.8305
  192SAPI   H3S22227   1.619   4.883   2.874  0.2403 -2.3344 -0.4875
  192SAPI   C2422228   1.801   4.908   3.003 -0.4008  0.8258 -0.3831
  192SAPI   H4R22229   1.912   4.898   2.996 -0.3877  0.6940 -0.0169
  192SAPI   H4S22230   1.781   4.843   3.091 -3.2630  1.2211 -0.6644
  192SAPI   C2522231   1.774   5.041   3.050 -0.1599 -0.6686  0.4752
  192SAPI   H5R22232   1.756   5.119   2.975  0.5515 -1.2678 -0.3382
  192SAPI   C2622233   1.764   5.088   3.176  0.6066 -0.0024 -0.5448
  192SAPI   H6R22234   1.733   5.193   3.191  0.2743 -0.2674  0.7535
  192SAPI   C2722235   1.769   5.016   3.306  0.5027 -0.1462 -0.0973
  192SAPI   H7R22236   1.838   5.079   3.367  1.6042 -1.4421  0.0344
  192SAPI   H7S22237   1.813   4.916   3.290  0.8233  0.2563 -2.0483
  192SAPI   C2822238   1.631   5.021   3.375  0.0302 -0.8141 -0.2653
  192SAPI   H8R22239   1.547   5.012   3.304 -0.9029  0.3763  0.6336
  192SAPI   C2922240   1.611   5.041   3.508  0.5097 -0.2191  0.1998
  192SAPI   H9R22241   1.506   5.045   3.537  0.6189  2.6682  0.4743
  192SAPI  C21022242   1.710   5.042   3.620 -0.0316  0.4281  0.3433
  192SAPI  H10R22243   1.819   5.038   3.598  0.2482  1.3431  1.4614
  192SAPI  H10S22244   1.697   4.961   3.695  0.0465  2.8866  3.2408
  192SAPI  C21122245   1.689   5.171   3.698  0.2650  0.5340  0.1285
  192SAPI  H11R22246   1.708   5.265   3.645 -1.7148 -0.6563 -2.9733
  192SAPI  C21222247   1.665   5.183   3.833  0.3249 -0.2683  0.1244
  192SAPI  H12R22248   1.663   5.286   3.873  0.9510  0.0187 -0.5501
  192SAPI  C21322249   1.635   5.070   3.934  0.3630 -0.8019 -0.2075
  192SAPI  H13R22250   1.708   4.996   3.896 -0.2532 -0.6322 -1.7963
  192SAPI  H13S22251   1.533   5.030   3.916  0.6384 -2.0088  0.7848
  192SAPI  C21422252   1.646   5.085   4.085 -0.8008 -0.5420 -0.1292
  192SAPI  H14R22253   1.713   5.169   4.111  3.9305 -3.5496 -1.3078
  192SAPI  C21522254   1.613   4.997   4.183  0.2167 -0.1135 -0.0794
  192SAPI  H15R22255   1.660   5.017   4.280  3.8226  1.1359 -1.8756
  192SAPI  C21622256   1.533   4.869   4.162 -0.2953 -0.3436 -0.2122
  192SAPI  H16R22257   1.478   4.865   4.066  0.0900  1.2246 -0.5205
  192SAPI  H16S22258   1.459   4.854   4.244  0.1966  0.4393  0.3864
  192SAPI  C21722259   1.616   4.736   4.155 -0.2932  0.0082 -0.2079
  192SAPI  H17R22260   1.549   4.649   4.144  0.4875 -0.4708 -1.3097
  192SAPI  H17S22261   1.692   4.725   4.236  0.8834  0.1350 -1.2584
  192SAPI  C21822262   1.705   4.735   4.029 -0.5967  0.2632  0.5171
  192SAPI  H18R22263   1.770   4.825   4.017 -2.6914  1.8364  0.4770
  192SAPI  H18S22264   1.639   4.737   3.939  0.9285 -0.7335 -0.6916
  192SAPI  C21922265   1.799   4.611   4.024 -0.7045  0.5471  0.1903
  192SAPI  H19R22266   1.753   4.522   4.071  2.3590 -1.8520 -0.9460
  192SAPI  H19S22267   1.881   4.631   4.096 -0.8653 -2.2200  1.2506
  192SAPI  C22022268   1.845   4.574   3.881  0.4790 -0.4296 -0.2140
  192SAPI  H20R22269   1.901   4.478   3.882  0.9802 -0.1392  0.3890
  192SAPI  H20S22270   1.897   4.662   3.838 -1.2294 -0.1726 -1.8919
  192SAPI  H20T22271   1.750   4.561   3.824 -1.2514  1.5380  2.0093
  192SAPI   C3322272   1.716   4.409   2.932  0.4023 -0.4867 -0.0434
  192SAPI   H3X22273   1.781   4.494   2.965  1.1124 -0.5314 -1.2661
  192SAPI   H3Y22274   1.776   4.316   2.943  0.8357 -0.6314 -2.9511
  192SAPI   C3422275   1.597   4.402   3.023  0.2105  0.4272 -0.1553
  192SAPI   H4X22276   1.505   4.369   2.971 -0.2727  0.9031  0.3786
  192SAPI   H4Y22277   1.579   4.506   3.060 -0.5130 -0.0791  0.9628
  192SAPI   C3522278   1.612   4.300   3.142  0.0402 -0.5948  0.1809
  192SAPI   H5X22279   1.712   4.317   3.187 -1.0850  2.4674  1.8531
  192SAPI   H5Y22280   1.604   4.197   3.103  1.2313 -1.9452  3.2532
  192SAPI   C3622281   1.498   4.313   3.237 -0.3450  0.0265  0.0987
  192SAPI   H6X22282   1.415   4.258   3.188 -0.5768 -1.6276  2.2059
  192SAPI   H6Y22283   1.468   4.419   3.252  0.1386  0.3462 -1.0083
  192SAPI   C3722284   1.545   4.249   3.368  0.2126 -0.6256  0.4993
  192SAPI   H7X22285   1.607   4.323   3.423  2.2527 -2.2698  0.5553
  192SAPI   H7Y22286   1.598   4.153   3.350  1.6278  0.3872 -1.0212
  192SAPI   C3822287   1.416   4.240   3.451 -0.3684 -0.8385  0.3174
  192SAPI   H8X22288   1.339   4.182   3.394 -0.2322 -1.3042  0.5997
  192SAPI   H8Y22289   1.372   4.338   3.481 -1.8833 -1.2504 -0.4681
  192SAPI   C3922290   1.457   4.162   3.576 -1.5067  0.1722 -0.4942
  192SAPI   H9X22291   1.546   4.098   3.555  0.1360  1.8451  1.0157
  192SAPI   H9Y22292   1.374   4.092   3.601  1.4581 -3.2338  0.6902
  192SAPI  C31022293   1.489   4.246   3.700  0.5146 -0.0144 -0.0403
  192SAPI  H10X22294   1.397   4.274   3.755  0.4081 -0.1343 -0.1564
  192SAPI  H10Y22295   1.549   4.337   3.675  0.4755  0.5423  1.7661
  192SAPI  C31122296   1.583   4.173   3.789 -0.2125  0.3109 -0.4306
  192SAPI  H11X22297   1.668   4.142   3.726 -0.0759 -3.3240  1.2848
  192SAPI  H11Y22298   1.527   4.087   3.833 -0.2431  0.8397  0.5996
  192SAPI  C31222299   1.629   4.246   3.907 -0.2305 -0.6244 -0.3589
  192SAPI  H12X22300   1.548   4.295   3.965  0.1428 -0.6003  0.1493
  192SAPI  H12Y22301   1.699   4.328   3.881 -0.0305 -0.8975 -0.6863
  192SAPI  C31322302   1.703   4.156   4.008  0.4103 -1.1225 -0.5276
  192SAPI  H13X22303   1.766   4.079   3.959  1.0074 -0.6117 -0.5625
  192SAPI  H13Y22304   1.630   4.087   4.056 -0.8601  0.8316  0.4489
  192SAPI  C31422305   1.793   4.235   4.110 -0.2850 -0.6876 -0.3772
  192SAPI  H14X22306   1.735   4.320   4.151 -0.5830 -0.9089 -0.3346
  192SAPI  H14Y22307   1.863   4.288   4.042 -2.6291  1.1405 -1.5349
  192SAPI  C31522308   1.864   4.160   4.220  0.7435 -0.3163 -0.8445
  192SAPI  H15X22309   1.904   4.067   4.174  0.8825 -0.4302 -0.4931
  192SAPI  H15Y22310   1.783   4.138   4.292  1.0918  1.0251 -0.0074
  192SAPI  C31622311   1.980   4.248   4.283 -0.4183 -0.0749  0.3430
  192SAPI  H16X22312   2.059   4.256   4.206 -0.5178 -1.9020  0.0129
  192SAPI  H16Y22313   2.014   4.186   4.369  0.0479  1.8810  1.6422
  192SAPI  C31722314   1.947   4.390   4.325 -0.7497  0.2875  0.0415
  192SAPI  H17X22315   1.842   4.390   4.362 -1.2711  1.1478 -1.3634
  192SAPI  H17Y22316   1.947   4.450   4.232 -1.3001  1.2526  0.6499
  192SAPI  C31822317   2.049   4.442   4.422 -0.5797 -0.0133  0.2572
  192SAPI  H18X22318   2.045   4.379   4.513  1.9851 -1.2382 -0.3900
  192SAPI  H18Y22319   2.038   4.548   4.454  2.2008  0.1873  0.7603
  192SAPI  H18Z22320   2.151   4.426   4.381 -0.2176 -3.1416  2.0829
  193SOD    SOD22321   2.219   6.362   8.472  0.4658  0.2154 -0.6418
  194SOD    SOD22322   4.105   6.761   7.056 -0.1314 -0.2172 -0.3723
  195SOD    SOD22323   4.736   5.076   0.484  0.5818  0.1530 -0.0743
  196SOD    SOD22324   2.521   1.003   2.256  0.6563  0.1642  0.1492
  197SOD    SOD22325   0.294   5.715   8.021 -0.1699  0.9058  0.0752
  198SOD    SOD22326   4.692   2.792   2.142  0.1034  0.2351 -0.4438
  199SOD    SOD22327   0.333   3.938   0.602 -0.0490 -0.2981  0.5242
  200SOD    SOD22328   5.946   5.390   1.347  0.2410  0.4541  0.6721
  201SOD    SOD22329   1.513   2.905   6.960  0.1656 -0.8412  0.1830
  202SOD    SOD22330   6.381   1.405   7.405  0.3626  0.4513  0.1665
  203SOD    SOD22331   1.787   3.014   1.043  0.2371  0.4094 -0.3730
  204SOD    SOD22332   2.655   3.479   7.079  0.0998  0.2785  0.0841
  205SOD    SOD22333   1.663   0.526   0.668  0.1393  0.6494 -0.1920
  206SOD    SOD22334   3.903   0.966   7.339 -0.0634 -0.6131  0.3235
  207SOD    SOD22335   5.012   5.835   2.187 -0.0748  0.0829 -0.0892
  208SOD    SOD22336   1.025   0.475   1.524  0.1670  0.2348  0.0091
  209SOD    SOD22337   0.835   5.931   6.847  0.0248 -0.0825 -0.0562
  210SOD    SOD22338   3.717   0.227   6.581  0.1711 -0.0528 -0.3149
  211SOD    SOD22339   5.921   3.358   2.000  0.2581  0.8373  0.7799
  212SOD    SOD22340   0.172   4.953   7.393 -0.1319 -0.3061  0.1280
  213SOD    SOD22341   3.343   1.996   0.252 -0.4296 -0.0435  0.3016
  214SOD    SOD22342   5.755   2.168   6.473 -0.6052 -0.1584 -0.0557
  215SOD    SOD22343   0.941   3.643   7.193  0.0117  0.4679  0.0973
  216SOD    SOD22344   5.984   2.152   7.088  0.5602 -0.0386  0.0925
  217SOD    SOD22345   2.114   0.649   7.579  0.6585 -0.3060  0.0111
  218SOD    SOD22346   3.190   2.915   7.910 -0.3003 -0.4372 -0.0505
  219SOD    SOD22347   6.343   5.618   2.127  0.2476  0.1773 -0.0046
  220SOD    SOD22348   1.494   5.724   1.760  0.3192 -0.0905 -0.1441
  221SOD    SOD22349   0.583   1.218   8.108  0.3845 -0.7021  0.4802
  222SOD    SOD22350   0.482   1.139   6.314 -0.0236 -0.2240  0.1000
  223SOD    SOD22351   6.174   4.498   8.397  0.0606  1.0346  0.1257
  224SOD    SOD22352   3.665   4.985   7.003  0.0306  0.0348 -0.3108
  225SOD    SOD22353   4.199   4.054   0.799 -0.1067  0.1298 -0.3221
  226SOD    SOD22354   1.522   5.546   6.832  0.1567 -0.2885 -0.5375
  227SOD    SOD22355   4.398   5.933   1.921  0.5603  0.3821  0.1158
  228SOD    SOD22356   5.187   1.774   7.881  0.6345  0.3412 -0.7012
  229SOD    SOD22357   5.457   5.961   6.978 -0.3059  0.5814 -0.2436
  230CLA    CLA22358   1.545   4.957   7.349  0.0457 -0.1858 -0.4915
  231CLA    CLA22359   0.322   0.473   8.935  0.3338  0.0795  0.0338
  232CLA    CLA22360   0.188   2.530   1.341  0.1536 -0.0860 -0.4333
  233CLA    CLA22361   6.358   6.018   1.475 -0.3150 -0.1942  0.0790
  234CLA    CLA22362   3.953   0.659   1.491 -0.1380  0.4307 -0.0054
  235CLA    CLA22363   5.634   4.428   8.378 -0.2311  0.4457  0.1603
  236CLA    CLA22364   3.269   2.105   7.553  0.4061  0.4157  0.0605
  237CLA    CLA22365   2.893   3.379   8.894  0.5569  0.0471 -0.0716
  238CLA    CLA22366   6.048   1.810   7.418 -0.1322 -0.1209 -0.3440
  239CLA    CLA22367   4.853   2.148   7.055 -0.0581 -0.5650 -0.2612
  240CLA    CLA22368   0.411   0.716   7.558  0.2414 -0.3215  0.5391
  241CLA    CLA22369   6.452   3.644   0.525 -0.2055  0.1168 -0.0752
  242CLA    CLA22370   3.771   4.164   0.881 -0.4403 -0.4317  0.0643
  243CLA    CLA22371   0.818   4.138   7.110 -0.1037 -0.1853  0.0990
  244CLA    CLA22372   2.620   6.203   8.269 -0.2530  0.1866 -0.1676
  245CLA    CLA22373   3.988   0.909   7.870 -0.2071 -0.3213 -0.3993
  246CLA    CLA22374   6.469   4.023   0.098  0.2429 -0.6163  0.1968
  247TIP3   OH222375   6.081   6.369   7.409 -0.1876  0.0293  0.5488
  247TIP3    H122376   6.092   6.433   7.339  0.0845  0.1430  0.6957
  247TIP3    H222377   6.161   6.318   7.407 -0.8576 -1.0419 -0.3050
  248TIP3   OH222378   5.840   3.194   0.400  0.1840 -0.3919 -0.0477
  248TIP3    H122379   5.766   3.137   0.377  0.9469 -0.6015 -2.2027
  248TIP3    H222380   5.807   3.248   0.472 -2.0019 -0.6314 -0.8013
  249TIP3   OH222381   0.842   0.781   0.783  0.5115 -0.3925  0.1568
  249TIP3    H122382   0.905   0.724   0.739  0.2724 -0.3576 -0.2386
  249TIP3    H222383   0.757   0.746   0.758  0.3684 -0.4950  0.7617
  250TIP3   OH222384   0.995   3.063   7.217  0.2674  0.1873  0.3392
  250TIP3    H122385   1.046   3.109   7.284 -0.4101  0.0488  0.9690
  250TIP3    H222386   0.963   3.131   7.159  1.0894  0.2842 -0.0102
  251TIP3   OH222387   6.257   2.332   8.594 -0.1196  0.2501 -0.7682
  251TIP3    H122388   6.286   2.264   8.655  1.0885  0.4362 -1.0896
  251TIP3    H222389   6.169   2.354   8.621  0.5883  0.7311  1.2736
  252TIP3   OH222390   6.125   2.912   1.227 -0.6672  0.3635  0.0515
  252TIP3    H122391   6.045   2.923   1.174 -1.0119  0.2621  0.5412
  252TIP3    H222392   6.176   2.991   1.210 -0.5657  0.1312 -0.7747
  253TIP3   OH222393   1.925   0.294   7.361  0.4640  0.1121 -0.0319
  253TIP3    H122394   1.862   0.365   7.372  0.2637 -0.0324 -0.2561
  253TIP3    H222395   1.899   0.251   7.280  2.0990  1.3462 -1.3002
  254TIP3   OH222396   4.005   4.142   6.441  0.4188 -0.4447  0.1721
  254TIP3    H122397   3.981   4.166   6.352 -1.5256 -2.4536  0.0554
  254TIP3    H222398   4.100   4.151   6.444  0.4652  0.2115 -1.9160
  255TIP3   OH222399   6.181   3.746   0.906 -0.2157 -0.2996 -0.0876
  255TIP3    H122400   6.191   3.774   0.815 -0.3910 -0.2835 -0.1024
  255TIP3    H222401   6.183   3.827   0.956 -0.6032 -0.2692 -0.1198
  256TIP3   OH222402   0.628   2.344   0.738  0.6382  0.2985 -0.3769
  256TIP3    H122403   0.592   2.422   0.695 -1.5152  0.0675  0.8480
  256TIP3    H222404   0.658   2.289   0.666  1.2118  1.7699 -1.3217
  257TIP3   OH222405   0.910   3.457   7.667  0.0006 -0.1124  0.2162
  257TIP3    H122406   0.908   3.468   7.572 -0.1708 -1.8706 -0.0120
  257TIP3    H222407   0.818   3.462   7.694  0.1314  1.5473  0.4769
  258TIP3   OH222408   5.328   1.924   0.229 -0.3029  0.4102 -0.2154
  258TIP3    H122409   5.347   1.866   0.303  0.6920  0.9339 -0.0390
  258TIP3    H222410   5.388   1.895   0.160  0.3202  1.3166 -0.0711
  259TIP3   OH222411   4.310   6.033   1.727  0.0642 -0.2846  0.2941
  259TIP3    H122412   4.242   5.968   1.711  0.0198  0.1966 -1.7223
  259TIP3    H222413   4.293   6.102   1.662  1.6495  0.5000  0.6667
  260TIP3   OH222414   5.488   3.004   6.979  0.0621 -0.1175 -0.2318
  260TIP3    H122415   5.569   3.047   6.952 -0.2931  1.2046  0.7098
  260TIP3    H222416   5.485   2.924   6.927  1.6574  0.1107 -0.7253
  261TIP3   OH222417   4.690   4.549   8.610 -0.0673 -0.3050  0.3420
  261TIP3    H122418   4.647   4.635   8.608  1.1379  0.3164  0.2814
  261TIP3    H222419   4.736   4.547   8.694 -0.4446 -1.0769  0.5356
  262TIP3   OH222420   0.200   6.262   7.285  0.0903 -0.5640 -0.8681
  262TIP3    H122421   0.199   6.167   7.295 -1.8304 -0.4374  0.6977
  262TIP3    H222422   0.136   6.294   7.349  1.3629  1.8591 -0.6787
  263TIP3   OH222423   1.390   6.633   0.388  0.3631  0.1557 -0.5845
  263TIP3    H122424   1.301   6.667   0.396  0.3728 -0.1590  1.2923
  263TIP3    H222425   1.385   6.544   0.423  1.0461 -0.5884 -2.2547
  264TIP3   OH222426   5.674   0.578   6.894 -0.1318  0.0536 -0.0693
  264TIP3    H122427   5.719   0.613   6.817 -0.6921  0.3190 -0.2845
  264TIP3    H222428   5.585   0.560   6.863  0.1934 -1.7495 -0.0156
  265TIP3   OH222429   2.395   3.853   0.272  0.0482  0.1086 -0.6146
  265TIP3    H122430   2.444   3.933   0.256  0.7074  0.1453  1.3112
  265TIP3    H222431   2.458   3.783   0.255  1.1808  0.1695  2.6485
  266TIP3   OH222432   2.410   4.292   2.023  0.3195  0.0127 -0.0891
  266TIP3    H122433   2.459   4.364   2.063  0.1698 -0.4057  0.8820
  266TIP3    H222434   2.380   4.240   2.097 -0.6715 -0.3407 -0.7160
  267TIP3   OH222435   0.272   5.611   2.366  1.0672  0.3821 -0.4396
  267TIP3    H122436   0.269   5.646   2.277 -2.3800  0.2611 -0.5236
  267TIP3    H222437   0.257   5.688   2.422  0.6548  0.0995 -0.1572
  268TIP3   OH222438   4.724   3.670   0.024 -0.2519  0.3299  0.0527
  268TIP3    H122439   4.718   3.717   0.107 -1.2143  2.5467 -1.1772
  268TIP3    H222440   4.742   3.738  -0.041 -0.1429 -1.2438 -1.6477
  269TIP3   OH222441   5.423   4.914   0.756 -0.4353  0.4709  0.2412
  269TIP3    H122442   5.447   4.850   0.689 -0.1258 -0.0663  0.8606
  269TIP3    H222443   5.346   4.876   0.799  0.5563 -0.1577  1.5198
  270TIP3   OH222444   6.437   6.657   0.098 -0.1730 -0.2950  0.7107
  270TIP3    H122445   6.499   6.727   0.116  0.3964 -1.0681  1.8515
  270TIP3    H222446   6.441   6.647   0.002  0.5961  0.4409  0.6465
  271TIP3   OH222447   1.958   1.301   6.902 -0.3671 -0.0372 -0.0126
  271TIP3    H122448   2.026   1.290   6.836 -1.1018 -0.7582 -0.6764
  271TIP3    H222449   1.997   1.358   6.967  0.0839  1.4576 -1.5165
  272TIP3   OH222450   6.271   0.440   1.379  0.2701 -0.1193 -0.2204
  272TIP3    H122451   6.320   0.520   1.397 -0.7194  0.2785  0.8625
  272TIP3    H222452   6.312   0.373   1.434  0.7753 -0.2649 -0.7508
  273TIP3   OH222453   2.052   0.680   7.813  0.8842  0.0385  0.0278
  273TIP3    H122454   2.015   0.612   7.870  0.3972  0.7871  0.6188
  273TIP3    H222455   2.060   0.757   7.869 -2.0004  1.6090 -1.4804
  274TIP3   OH222456   2.941   6.362   1.774 -0.2998 -0.0762  0.0569
  274TIP3    H122457   2.949   6.456   1.793 -2.4484 -0.0576  1.2439
  274TIP3    H222458   2.995   6.320   1.841 -0.8784  0.2795  0.7664
  275TIP3   OH222459   4.956   3.015   0.279  0.0857 -0.1438  0.6142
  275TIP3    H122460   4.999   2.946   0.328 -1.1283  0.0420  2.0100
  275TIP3    H222461   4.879   3.037   0.331  0.4921  2.3381  0.2741
  276TIP3   OH222462   1.672   0.042   8.251  0.4178 -0.3119  1.0977
  276TIP3    H122463   1.695  -0.036   8.201  0.4592 -0.3420  1.1636
  276TIP3    H222464   1.659   0.110   8.185 -0.4463 -0.5791  0.9746
  277TIP3   OH222465   1.977   4.895   7.519  0.1736 -0.0287  0.3605
  277TIP3    H122466   2.048   4.851   7.472  0.7479  2.3972 -1.2264
  277TIP3    H222467   1.917   4.825   7.542  0.7609 -1.6154 -2.4541
  278TIP3   OH222468   3.308   0.857   0.424  0.3143  0.0114 -0.0760
  278TIP3    H122469   3.239   0.808   0.378 -0.7050 -0.2783  1.6788
  278TIP3    H222470   3.379   0.794   0.434  0.4672  0.0112 -1.0233
  279TIP3   OH222471   0.422   0.140   0.673 -0.1568 -0.6853  0.0517
  279TIP3    H122472   0.470   0.201   0.617 -0.9002  0.0573  0.1926
  279TIP3    H222473   0.412   0.187   0.756  0.3379 -1.5011  0.5822
  280TIP3   OH222474   1.589   4.310   6.623  0.0530  0.1357 -0.0538
  280TIP3    H122475   1.676   4.277   6.644  0.3805  0.6654 -0.5542
  280TIP3    H222476   1.604   4.393   6.579 -0.7525  0.7653  0.8129
  281TIP3   OH222477   2.866   4.809   7.360 -0.6281 -0.2976  0.5420
  281TIP3    H122478   2.823   4.875   7.305  1.8927  0.0540 -1.1551
  281TIP3    H222479   2.843   4.726   7.319 -1.9865 -0.3640  1.3720
  282TIP3   OH222480   4.435   3.877   6.710 -0.0099  0.7378  0.4289
  282TIP3    H122481   4.417   3.788   6.741  1.0620  0.6587  0.8692
  282TIP3    H222482   4.469   3.865   6.621  0.3212  0.6840  0.5603
  283TIP3   OH222483   4.950   1.929   1.385  0.0487 -0.6280  0.0249
  283TIP3    H122484   5.042   1.957   1.382 -0.3355  0.8239  0.8133
  283TIP3    H222485   4.903   1.999   1.341 -0.8484 -0.5050  1.1301
  284TIP3   OH222486   2.383   4.661   7.273 -0.1747 -0.3025 -0.2916
  284TIP3    H122487   2.436   4.741   7.270 -0.3498 -0.1823 -0.2189
  284TIP3    H222488   2.428   4.600   7.216  1.1287 -0.8725  1.2742
  285TIP3   OH222489   4.139   1.944   1.942 -0.5555 -0.1447  0.4561
  285TIP3    H122490   4.193   1.866   1.929  1.4299  0.9653  1.5021
  285TIP3    H222491   4.059   1.912   1.984 -0.1790 -1.6991  0.0429
  286TIP3   OH222492   4.501   5.972   8.462 -0.0329 -0.1401 -0.1507
  286TIP3    H122493   4.500   5.887   8.506 -0.1486  1.2168  2.6781
  286TIP3    H222494   4.488   5.951   8.369  2.0019 -3.3378  0.1126
  287TIP3   OH222495   0.374   4.448   0.058  0.1396 -0.4132  0.3504
  287TIP3    H122496   0.413   4.430   0.143  0.6233 -0.4604  0.1235
  287TIP3    H222497   0.280   4.439   0.072  0.1390  0.7288  1.1413
  288TIP3   OH222498   0.681   0.919   1.840  0.0377  0.4005  0.0550
  288TIP3    H122499   0.704   0.836   1.797  1.3297  1.8127 -2.2055
  288TIP3    H222500   0.734   0.920   1.919  1.6394 -0.0288 -0.9676
  289TIP3   OH222501   3.359   1.823   8.776  0.4512  0.4268 -0.2512
  289TIP3    H122502   3.366   1.729   8.758 -0.0043  0.0365  1.3903
  289TIP3    H222503   3.401   1.865   8.701  0.4955 -1.0760 -1.1129
  290TIP3   OH222504   2.789   1.148   6.852 -0.5981  1.3344 -1.1484
  290TIP3    H122505   2.787   1.243   6.866 -0.0419  1.4120 -1.5939
  290TIP3    H222506   2.879   1.122   6.871 -1.5086  0.2956  2.7125
  291TIP3   OH222507   4.502   1.237   6.736  0.3264 -0.4630 -0.2974
  291TIP3    H122508   4.476   1.289   6.660  0.0950 -0.1840 -0.0281
  291TIP3    H222509   4.551   1.163   6.699 -1.4729 -1.4232 -0.9026
  292TIP3   OH222510   5.958   2.933   8.300 -0.7563 -0.0921 -0.3212
  292TIP3    H122511   6.008   2.941   8.381 -0.6266  1.8983 -0.5571
  292TIP3    H222512   6.021   2.952   8.231 -1.0786 -0.8863 -0.8509
  293TIP3   OH222513   3.937   1.190   7.156 -0.2267 -0.2636 -0.0222
  293TIP3    H122514   3.919   1.269   7.104 -0.7576  0.1576  0.7722
  293TIP3    H222515   3.915   1.117   7.098  0.4710  0.1653 -0.8418
  294TIP3   OH222516   0.038   0.478   1.577  0.2473 -0.5043  0.5613
  294TIP3    H122517   0.093   0.469   1.654 -0.3414  0.3481  1.0951
  294TIP3    H222518  -0.036   0.531   1.606  1.5967  2.6873 -1.3646
  295TIP3   OH222519   0.337   2.049   7.878 -0.3291  0.4111 -0.4487
  295TIP3    H122520   0.274   2.096   7.933 -1.0662 -0.9809 -0.0816
  295TIP3    H222521   0.290   1.972   7.848 -0.3945  1.7212 -4.1356
  296TIP3   OH222522   4.507   6.697   8.112 -0.8166 -0.6292 -0.5360
  296TIP3    H122523   4.422   6.653   8.102 -2.6554  2.3636  0.5218
  296TIP3    H222524   4.519   6.744   8.030 -1.5889  1.0773  0.2835
  297TIP3   OH222525   2.926   0.860   1.317 -0.3846  0.4215 -0.6367
  297TIP3    H122526   2.969   0.776   1.337  1.0525  1.4673  0.9224
  297TIP3    H222527   2.876   0.881   1.395  0.5762  1.7749 -0.3629
  298TIP3   OH222528   1.853   1.728   1.688 -0.7160  0.8616 -0.1146
  298TIP3    H122529   1.808   1.792   1.744 -0.4114  0.3504  0.7345
  298TIP3    H222530   1.805   1.732   1.605 -1.2637  1.5414  0.2156
  299TIP3   OH222531   3.057   5.454   7.977  0.7662  0.5571 -0.0563
  299TIP3    H122532   3.126   5.520   7.986  1.2857  0.1118 -0.7250
  299TIP3    H222533   3.102   5.371   7.988 -0.0647  0.3097  1.9319
  300TIP3   OH222534   3.342   4.431   0.174 -0.4913 -0.5230  0.1522
  300TIP3    H122535   3.310   4.342   0.189 -0.7439 -0.2722  1.1780
  300TIP3    H222536   3.422   4.419   0.122 -1.5559 -1.2233 -1.4381
  301TIP3   OH222537   4.291   3.935   0.598 -0.1264 -0.4828  0.1838
  301TIP3    H122538   4.224   4.001   0.587  0.5125 -0.2021 -2.7493
  301TIP3    H222539   4.249   3.853   0.570  0.4494 -0.4655 -0.7619
  302TIP3   OH222540   4.555   2.782   7.038  0.0084 -0.4788 -0.3088
  302TIP3    H122541   4.521   2.838   6.968 -0.5904  1.0085  1.1155
  302TIP3    H222542   4.640   2.752   7.005  0.7815  1.9880 -0.8093
  303TIP3   OH222543   5.106   6.101   0.567  0.4605 -0.1707 -0.0300
  303TIP3    H122544   5.013   6.109   0.544  0.1651  1.6587  1.4748
  303TIP3    H222545   5.150   6.085   0.484 -1.0011  1.0130 -1.0976
  304TIP3   OH222546   0.919   3.165   7.543 -0.2078  0.3433 -0.4932
  304TIP3    H122547   0.997   3.212   7.570  0.0130 -0.1061 -0.3380
  304TIP3    H222548   0.908   3.097   7.610  0.8665 -1.3793 -1.9828
  305TIP3   OH222549   3.589   6.696   0.080 -0.6655 -0.6421  0.2503
  305TIP3    H122550   3.584   6.629   0.011  0.5847 -0.4796 -0.0388
  305TIP3    H222551   3.567   6.777   0.035 -0.2894 -0.5982  0.1412
  306TIP3   OH222552   6.167   4.043   0.192  0.4052 -0.1270  0.4386
  306TIP3    H122553   6.263   4.041   0.190  0.3871 -0.3960 -0.7417
  306TIP3    H222554   6.141   4.001   0.110 -0.7156  0.9257  0.2395
  307TIP3   OH222555   1.317   0.380   7.480  0.3310 -0.2256 -0.0598
  307TIP3    H122556   1.371   0.376   7.559  0.5674 -1.0669 -0.2557
  307TIP3    H222557   1.313   0.474   7.458 -0.3909  0.1083  1.3832
  308TIP3   OH222558   6.033   4.886   0.509  0.4481  0.3193 -0.2962
  308TIP3    H122559   6.050   4.939   0.587 -0.1158 -0.0862  0.1035
  308TIP3    H222560   6.111   4.830   0.502  0.2130 -0.1047  0.3609
  309TIP3   OH222561   0.377   2.908   6.931 -0.0234 -0.1290  0.3713
  309TIP3    H122562   0.431   2.932   6.856  1.7592 -0.8653  1.3698
  309TIP3    H222563   0.333   2.989   6.956  0.4172  0.4366 -0.6249
  310TIP3   OH222564   1.090   2.514   8.309 -0.6283 -0.3982  0.2859
  310TIP3    H122565   1.139   2.590   8.278 -2.1411  0.8764  0.9000
  310TIP3    H222566   1.135   2.439   8.269 -0.9615  0.9637 -2.9574
  311TIP3   OH222567   1.430   2.284   0.797  0.3254  0.0259  0.1525
  311TIP3    H122568   1.493   2.252   0.733  0.0268  1.3666 -0.8418
  311TIP3    H222569   1.392   2.204   0.835  0.9171 -0.7905 -0.9219
  312TIP3   OH222570   2.771   0.578   1.562 -0.0079  0.2078 -0.6069
  312TIP3    H122571   2.865   0.576   1.578  0.2245 -1.8660 -1.8563
  312TIP3    H222572   2.759   0.645   1.495  0.7206 -0.1404 -1.0999
  313TIP3   OH222573   3.625   5.103   1.058  0.6647  0.0794  0.2256
  313TIP3    H122574   3.589   5.015   1.054  0.0493  0.3684 -0.8450
  313TIP3    H222575   3.622   5.136   0.968  2.7463  0.4784  0.2407
  314TIP3   OH222576   6.131   6.140   0.737 -0.6319  0.2930 -0.4356
  314TIP3    H122577   6.072   6.081   0.689 -2.1498  1.9123 -0.6396
  314TIP3    H222578   6.169   6.196   0.669 -0.2013  0.4061 -0.1033
  315TIP3   OH222579   4.142   3.506   8.464 -0.2236 -0.5423 -0.1529
  315TIP3    H122580   4.201   3.449   8.416  0.5741 -1.4253  1.7552
  315TIP3    H222581   4.055   3.466   8.455  0.3282 -2.1178  1.1752
  316TIP3   OH222582   3.400   2.844   2.075  0.1028  0.0573  0.3777
  316TIP3    H122583   3.484   2.886   2.094  1.4640 -1.3212 -2.0294
  316TIP3    H222584   3.423   2.754   2.051 -1.8710  0.0327 -1.7501
  317TIP3   OH222585   3.749   2.320   1.509 -0.5821 -0.3779  0.5174
  317TIP3    H122586   3.826   2.350   1.557 -0.5864 -0.0229  0.3024
  317TIP3    H222587   3.763   2.351   1.419 -0.5626 -1.0509  0.2785
  318TIP3   OH222588   4.527   1.382   0.028  0.2308  0.7749  0.1074
  318TIP3    H122589   4.585   1.309   0.003 -0.0471 -0.0130  1.6454
  318TIP3    H222590   4.446   1.365  -0.020  0.3652  0.4074  0.0031
  319TIP3   OH222591   5.917   1.921   7.158 -0.1505  0.4570 -0.4036
  319TIP3    H122592   5.941   1.864   7.230 -0.4205  0.8227 -0.0170
  319TIP3    H222593   5.837   1.882   7.122  0.8021 -0.5613 -1.4670
  320TIP3   OH222594   6.365   1.815   6.577  0.1203  0.3024  0.3197
  320TIP3    H122595   6.432   1.780   6.635 -0.1003 -1.0338 -0.1992
  320TIP3    H222596   6.295   1.749   6.578 -1.0975  1.5484  0.6710
  321TIP3   OH222597   0.658   1.370   1.641 -0.0030  0.6321 -0.1785
  321TIP3    H122598   0.728   1.343   1.700  0.2140 -1.7724 -1.4183
  321TIP3    H222599   0.699   1.430   1.580  0.1788  1.7767  1.0331
  322TIP3   OH222600   4.273   4.929   2.062  0.1918  0.0076  0.4865
  322TIP3    H122601   4.226   4.849   2.084  1.8098 -1.1700 -0.1179
  322TIP3    H222602   4.304   4.962   2.146  2.7358 -2.1482  0.5364
  323TIP3   OH222603   6.081   1.941   6.622 -0.0529  0.5295 -0.5813
  323TIP3    H122604   6.127   1.857   6.628 -1.2529 -0.0717  0.7884
  323TIP3    H222605   6.082   1.963   6.529  0.7866 -0.7072 -0.8860
  324TIP3   OH222606   0.592   5.752   7.102  0.3410 -0.4103  0.1371
  324TIP3    H122607   0.618   5.661   7.086  1.7397  0.1207 -0.8096
  324TIP3    H222608   0.625   5.800   7.026  2.1896  1.3366  1.9282
  325TIP3   OH222609   2.630   3.162   7.880  0.2676 -0.1976  0.0985
  325TIP3    H122610   2.586   3.246   7.893 -0.4594 -0.6568  0.6887
  325TIP3    H222611   2.634   3.123   7.967  2.6926  0.1976  0.2386
  326TIP3   OH222612   2.808   1.705   1.142  0.1841 -0.4770 -0.0656
  326TIP3    H122613   2.900   1.683   1.124  0.6008 -0.8372  2.2354
  326TIP3    H222614   2.797   1.792   1.103  1.1392 -0.9153 -1.4037
  327TIP3   OH222615   0.275   3.032   8.206 -0.3716 -0.2984 -0.2378
  327TIP3    H122616   0.216   3.097   8.245  0.6993  2.1252 -2.3186
  327TIP3    H222617   0.300   2.976   8.279 -1.0512  1.9007  1.8362
  328TIP3   OH222618   5.225   4.063   0.277 -0.4903 -0.1104  0.0505
  328TIP3    H122619   5.138   4.055   0.318 -1.0529  0.4965 -0.9720
  328TIP3    H222620   5.276   4.115   0.339 -0.8653 -0.4460  0.6497
  329TIP3   OH222621   5.161   2.963   2.373  0.3807  0.5749  0.4084
  329TIP3    H122622   5.149   2.932   2.463 -1.4591  1.4175  0.5013
  329TIP3    H222623   5.077   3.002   2.350  0.7761  0.2658 -1.7451
  330TIP3   OH222624   5.804   2.775   1.682  0.0686 -0.5062  0.6577
  330TIP3    H122625   5.765   2.783   1.769 -0.3853 -0.6123  0.4622
  330TIP3    H222626   5.818   2.681   1.671 -1.4757 -0.6690 -0.0871
  331TIP3   OH222627   4.051   3.639   8.861 -0.5357 -0.1271 -0.4565
  331TIP3    H122628   4.111   3.662   8.790  0.6579 -0.6659  0.3279
  331TIP3    H222629   4.049   3.717   8.917  2.0628 -1.1135  1.2272
  332TIP3   OH222630   0.045   5.154   0.455  0.1109  0.0962  1.2549
  332TIP3    H122631   0.107   5.203   0.402 -0.5873 -0.9637 -0.6581
  332TIP3    H222632   0.021   5.213   0.526  0.2220  2.0248 -0.2522
  333TIP3   OH222633   5.053   4.048   0.512  0.2709 -0.4966  0.5067
  333TIP3    H122634   5.032   4.128   0.560 -2.5199  0.4585 -1.9715
  333TIP3    H222635   4.983   3.987   0.535  0.9062 -1.3060  0.3497
  334TIP3   OH222636   4.004   0.359   1.472 -0.5770  0.1918 -0.4403
  334TIP3    H122637   4.069   0.337   1.539  0.2440 -0.7987 -1.5247
  334TIP3    H222638   3.990   0.453   1.482  0.5733  0.3121  0.2084
  335TIP3   OH222639   4.741   3.231   7.026 -0.6786  0.1425  0.0947
  335TIP3    H122640   4.688   3.152   7.017 -1.6301  0.7974 -0.2683
  335TIP3    H222641   4.731   3.276   6.942  1.3116 -0.2092 -0.3798
  336TIP3   OH222642   5.906   2.783   7.625 -0.4338  1.1010  0.3439
  336TIP3    H122643   5.915   2.803   7.718  0.9401  1.3489  0.1803
  336TIP3    H222644   5.823   2.737   7.618  0.3339 -0.6933  1.9976
  337TIP3   OH222645   6.191   1.985   7.041 -0.8581  0.3053  0.1171
  337TIP3    H122646   6.134   1.945   6.976 -0.4782  0.5460 -0.3754
  337TIP3    H222647   6.212   1.914   7.102 -2.7894  0.5310  1.1235
  338TIP3   OH222648   3.361   4.002   0.096 -0.0328  0.1542 -0.2349
  338TIP3    H122649   3.320   4.065   0.037  1.8860  0.1325 -1.6954
  338TIP3    H222650   3.304   3.925   0.092 -0.7929  0.7321 -0.8039
  339TIP3   OH222651   6.037   6.415   0.315  0.1815  0.1008  0.0189
  339TIP3    H122652   6.087   6.455   0.244  0.4740 -0.3646 -0.0437
  339TIP3    H222653   5.956   6.466   0.319 -0.1563 -0.3057 -1.1400
  340TIP3   OH222654   1.923   6.524   7.690  0.7429  0.8171 -0.5618
  340TIP3    H122655   1.837   6.486   7.669  1.3382 -0.6383 -0.4791
  340TIP3    H222656   1.982   6.449   7.694  1.3958  1.3711  2.7979
  341TIP3   OH222657   5.883   0.284   0.516 -0.5418  0.4280 -0.6305
  341TIP3    H122658   5.831   0.362   0.532  0.1376  0.6045  0.9003
  341TIP3    H222659   5.821   0.221   0.478 -1.5021  1.1378 -0.2789
  342TIP3   OH222660   5.935   5.022   1.045 -0.2849 -0.7528  0.0753
  342TIP3    H122661   5.860   5.013   0.986 -1.2197 -1.2615  1.2762
  342TIP3    H222662   6.007   4.978   1.000 -0.0673  1.6149 -2.0932
  343TIP3   OH222663   2.426   3.574   7.128 -0.3323 -0.2257 -0.2176
  343TIP3    H122664   2.414   3.666   7.153 -0.2020 -0.7113  1.8022
  343TIP3    H222665   2.337   3.539   7.122 -0.3613 -0.1412 -0.2853
  344TIP3   OH222666   1.222   2.384   2.655  0.4606  0.0273  0.9821
  344TIP3    H122667   1.160   2.355   2.721  0.4308  0.2853  1.0687
  344TIP3    H222668   1.209   2.325   2.581 -1.4034  1.3884  0.1468
  345TIP3   OH222669   4.646   2.396   7.350 -0.4478 -0.4693  0.4613
  345TIP3    H122670   4.612   2.310   7.375  1.2234 -1.1546  0.5296
  345TIP3    H222671   4.683   2.382   7.262  1.6398 -0.3907  1.2717
  346TIP3   OH222672   6.414   1.260   0.290 -0.5237  0.2122 -0.5374
  346TIP3    H122673   6.336   1.232   0.338 -0.8452  0.1638 -1.0703
  346TIP3    H222674   6.386   1.341   0.246 -0.6512 -0.4459 -1.6899
  347TIP3   OH222675   5.354   3.357   1.759  0.1890 -0.2212 -0.3497
  347TIP3    H122676   5.449   3.368   1.762  0.3740 -0.9109 -2.3781
  347TIP3    H222677   5.321   3.441   1.727  0.2147 -0.3418 -0.6942
  348TIP3   OH222678   1.181   4.044   8.960 -0.1547 -0.3392  0.6374
  348TIP3    H122679   1.223   4.021   8.877 -1.1066 -1.8268  0.5173
  348TIP3    H222680   1.195   3.967   9.015 -1.2640 -0.1835  1.1584
  349TIP3   OH222681   6.623   4.216   6.485 -0.1422  0.2112  0.3531
  349TIP3    H122682   6.677   4.136   6.488  0.4915  0.5045 -1.5406
  349TIP3    H222683   6.676   4.282   6.531 -0.0694 -0.1455  0.7838
  350TIP3   OH222684   4.936   1.452   1.706  0.3725 -0.1334  0.0979
  350TIP3    H122685   4.937   1.543   1.678  0.6301  1.1347  3.7286
  350TIP3    H222686   5.026   1.421   1.691  1.2647  1.3792  2.0150
  351TIP3   OH222687   6.648   2.574   1.832 -0.6001 -0.2349  0.3523
  351TIP3    H122688   6.579   2.557   1.768 -0.2054  0.6186 -0.3169
  351TIP3    H222689   6.631   2.663   1.863  0.6029  0.2727 -0.3625
  352TIP3   OH222690   4.210   0.969   2.914  0.4865  0.5139  1.1184
  352TIP3    H122691   4.300   0.984   2.886  0.7939  0.4615  2.0450
  352TIP3    H222692   4.177   1.057   2.935  0.0918  0.6145  0.1624
  353TIP3   OH222693   2.766   2.412   8.282 -0.5068  0.1043 -0.1276
  353TIP3    H122694   2.739   2.502   8.263 -1.1307  0.5360  2.4859
  353TIP3    H222695   2.695   2.376   8.333  0.2500 -1.5373 -0.1707
  354TIP3   OH222696   5.301   2.427   7.797  0.3349  0.2002  0.3232
  354TIP3    H122697   5.388   2.387   7.803 -0.3167 -1.1911  1.0232
  354TIP3    H222698   5.240   2.354   7.808 -0.9302  1.3598  1.3966
  355TIP3   OH222699   2.454   4.534   8.076  0.6148 -0.4474  0.3278
  355TIP3    H122700   2.525   4.510   8.136  0.3982 -0.3947  0.6070
  355TIP3    H222701   2.409   4.606   8.119  1.8829  1.1945 -0.9601
  356TIP3   OH222702   1.860   2.012   1.125 -0.2554 -0.0020 -0.3526
  356TIP3    H122703   1.945   2.039   1.158 -0.8613  0.3773  0.9524
  356TIP3    H222704   1.810   2.093   1.116 -1.3057 -0.4154  1.3304
  357TIP3   OH222705   3.887   5.799   1.541 -0.2443  0.2920  0.6594
  357TIP3    H122706   3.905   5.795   1.447  0.2637 -0.0009  0.7628
  357TIP3    H222707   3.974   5.806   1.581 -0.4589  0.3831  1.1043
  358TIP3   OH222708   1.099   0.255   7.994  0.3629  0.0652  0.3908
  358TIP3    H122709   1.099   0.308   7.914 -2.2345  0.9422  0.8730
  358TIP3    H222710   1.142   0.311   8.059  0.9458  0.0555  0.0199
  359TIP3   OH222711   4.366   4.908   8.095 -0.8649  0.4611  0.1586
  359TIP3    H122712   4.305   4.850   8.048 -2.4833  2.7950 -0.8366
  359TIP3    H222713   4.437   4.923   8.032  0.4004 -1.5652  0.9968
  360TIP3   OH222714   4.971   3.031   7.337 -0.0094 -0.4739 -0.1184
  360TIP3    H122715   4.997   2.963   7.274  0.0379  0.3675 -1.0474
  360TIP3    H222716   4.882   3.053   7.312 -0.3286 -0.7761  0.7216
  361TIP3   OH222717   0.197   1.465   8.071 -0.0587 -0.9943  0.2565
  361TIP3    H122718   0.144   1.515   8.009  0.7358 -0.2081  0.2084
  361TIP3    H222719   0.159   1.377   8.068 -0.4232 -0.8174 -0.8857
  362TIP3   OH222720   3.924   2.087   6.619  0.5127  0.4596  0.5795
  362TIP3    H122721   3.924   2.020   6.551  0.0805  0.7438  0.2958
  362TIP3    H222722   3.943   2.169   6.572 -0.9803  0.8475  0.5991
  363TIP3   OH222723   3.494   1.719   8.055  0.2983  0.3904 -0.0817
  363TIP3    H122724   3.514   1.701   7.963 -0.3827 -1.2467  0.0517
  363TIP3    H222725   3.411   1.767   8.052 -0.5732 -1.0645 -0.3002
  364TIP3   OH222726   3.679   5.251   0.663 -0.1958  0.4687  0.6494
  364TIP3    H122727   3.651   5.283   0.749 -2.2450  1.2611 -0.2764
  364TIP3    H222728   3.599   5.239   0.613  0.9168 -0.4330 -1.0421
  365TIP3   OH222729   0.664   6.129   7.984 -0.2472  0.1676  0.3736
  365TIP3    H122730   0.621   6.147   7.900 -1.4994  3.4342  1.5559
  365TIP3    H222731   0.652   6.209   8.035  2.3745 -0.8746  2.9207
  366TIP3   OH222732   0.285   1.112   6.422 -0.0816  0.2671  0.8659
  366TIP3    H122733   0.249   1.189   6.467 -1.8299 -1.0293  1.8054
  366TIP3    H222734   0.247   1.037   6.468 -1.2072 -1.1715 -2.1469
  367TIP3   OH222735   4.654   5.019   7.631  0.6851 -0.5099 -0.2480
  367TIP3    H122736   4.729   5.078   7.621 -0.0371  0.4212 -0.3356
  367TIP3    H222737   4.666   4.953   7.563  1.1443 -0.0585 -0.6165
  368TIP3   OH222738   5.456   2.046   8.536 -0.0929 -0.1990 -0.2204
  368TIP3    H122739   5.446   2.139   8.556  1.0315 -0.2843  0.8143
  368TIP3    H222740   5.369   2.009   8.554 -0.0385  0.3274  1.2792
  369TIP3   OH222741   6.259   5.582   7.241 -0.4671 -0.5314 -0.0004
  369TIP3    H122742   6.309   5.508   7.276 -0.0381 -0.2190  0.0511
  369TIP3    H222743   6.245   5.559   7.149  1.2993  0.1622 -0.4891
  370TIP3   OH222744   3.935   3.811   2.084  0.0011 -0.0455  0.3915
  370TIP3    H122745   3.900   3.730   2.047  0.9253 -0.6924  0.8707
  370TIP3    H222746   3.970   3.785   2.170 -0.7846  1.1215  1.0831
  371TIP3   OH222747   5.351   3.332   8.302 -0.3014  0.6460 -0.0147
  371TIP3    H122748   5.377   3.260   8.360  0.1057  1.3017  0.6415
  371TIP3    H222749   5.389   3.309   8.217 -3.4549 -1.8661 -0.9148
  372TIP3   OH222750   0.675   1.672   1.197  0.4392 -0.2256 -0.0214
  372TIP3    H122751   0.609   1.732   1.160  1.2133  1.5653  1.3744
  372TIP3    H222752   0.627   1.591   1.215 -0.5695 -0.1990 -2.2667
  373TIP3   OH222753   5.231   2.102   7.165  0.5601  0.5012  0.0033
  373TIP3    H122754   5.247   2.136   7.253  0.0598 -0.2632  0.4020
  373TIP3    H222755   5.139   2.074   7.166  0.3367  1.1358 -0.9886
  374TIP3   OH222756   5.451   2.219   6.845  0.6782 -0.4225  0.0068
  374TIP3    H122757   5.431   2.127   6.831  1.4378 -0.3343 -1.9380
  374TIP3    H222758   5.437   2.260   6.760 -0.9001  1.5357  1.1249
  375TIP3   OH222759   2.051   2.201   8.140  0.2595  0.2067 -0.1181
  375TIP3    H122760   2.046   2.162   8.052  2.7702 -0.8700  0.1206
  375TIP3    H222761   2.134   2.169   8.175 -0.7416  0.4577  2.7478
  376TIP3   OH222762   3.845   5.738   0.688  0.5937  0.1590  0.2719
  376TIP3    H122763   3.839   5.741   0.783  0.1794 -0.7869  0.2876
  376TIP3    H222764   3.757   5.716   0.659  1.0024 -0.8784 -0.2498
  377TIP3   OH222765   0.131   4.214   1.237 -0.1687 -0.0041  0.2899
  377TIP3    H122766   0.133   4.142   1.299 -0.1531  0.6784  1.0998
  377TIP3    H222767   0.197   4.276   1.270  1.7976 -0.7883 -1.8758
  378TIP3   OH222768   4.814   1.032   8.254 -0.1895 -0.1273 -0.0067
  378TIP3    H122769   4.757   0.990   8.318  1.0149 -2.3583 -0.3005
  378TIP3    H222770   4.889   1.062   8.305 -0.6565  0.9292  0.0716
  379TIP3   OH222771   6.253   0.736   7.410 -0.1668  0.5045 -0.0617
  379TIP3    H122772   6.196   0.663   7.388  1.0719 -1.1194  1.7411
  379TIP3    H222773   6.268   0.727   7.504  1.4563  2.0292 -0.1120
  380TIP3   OH222774   6.670   1.911   6.325  0.0206 -0.0657 -0.3846
  380TIP3    H122775   6.739   1.977   6.318 -0.3129  0.1275 -2.1504
  380TIP3    H222776   6.628   1.910   6.239 -1.9262 -0.4658  0.5206
  381TIP3   OH222777   0.723   3.132   0.609  0.5794 -0.2617 -0.0291
  381TIP3    H122778   0.702   3.050   0.652 -0.6293 -0.2268 -0.5040
  381TIP3    H222779   0.799   3.166   0.657  1.8297 -2.1721 -0.5313
  382TIP3   OH222780   1.623   0.838   7.026  0.2522  0.0868 -0.1125
  382TIP3    H122781   1.549   0.844   7.086  0.0171  0.5691 -0.4417
  382TIP3    H222782   1.597   0.769   6.964 -0.4612  1.0679 -0.9417
  383TIP3   OH222783   0.507   2.039   8.504  0.2373  0.1316 -0.3161
  383TIP3    H122784   0.430   1.997   8.543  0.2758 -0.3210 -0.7159
  383TIP3    H222785   0.473   2.118   8.463 -0.4879 -1.2808 -2.6452
  384TIP3   OH222786   4.561   6.537   7.788  0.1341 -0.2869  0.2876
  384TIP3    H122787   4.560   6.458   7.843  0.3119 -1.4860 -1.3485
  384TIP3    H222788   4.639   6.527   7.734  1.0935  1.8723  1.1667
  385TIP3   OH222789   6.729   1.816   8.953  0.4303  0.0442 -0.3163
  385TIP3    H122790   6.748   1.828   9.046 -0.5932  0.9734 -0.2042
  385TIP3    H222791   6.674   1.738   8.950 -1.4592  1.2911  0.1560
  386TIP3   OH222792   1.695   2.978   6.826 -0.3136  0.4334 -0.4906
  386TIP3    H122793   1.771   3.036   6.828  0.7907 -0.9891 -0.3421
  386TIP3    H222794   1.699   2.935   6.741  1.1187 -2.2506  0.8100
  387TIP3   OH222795   5.532   2.744   8.517 -0.4243  0.1570 -0.0161
  387TIP3    H122796   5.467   2.741   8.446 -0.8176 -0.6072  0.3573
  387TIP3    H222797   5.502   2.814   8.574 -1.2353 -0.5304  0.4262
  388TIP3   OH222798   6.472   3.291   1.042 -0.4293 -0.0845 -0.2562
  388TIP3    H122799   6.414   3.361   1.069 -0.0189 -0.1533  0.8246
  388TIP3    H222800   6.419   3.238   0.982 -1.4876 -0.1524  0.7227
  389TIP3   OH222801   1.966   2.038   0.852  0.3659  0.1887 -0.1630
  389TIP3    H122802   1.910   2.028   0.929  0.4114 -0.3653 -0.1968
  389TIP3    H222803   2.033   2.100   0.879  0.7323 -0.4577  0.4429
  390TIP3   OH222804   4.000   0.153   0.309 -0.4022  0.4862 -0.3525
  390TIP3    H122805   3.908   0.170   0.288  0.0383  1.0130 -2.0609
  390TIP3    H222806   4.023   0.077   0.256  0.4581  1.1341 -0.9499
  391TIP3   OH222807   3.856   3.546   7.653 -0.1874  0.3830  0.8543
  391TIP3    H122808   3.884   3.622   7.602  2.4664 -1.5980 -0.8558
  391TIP3    H222809   3.915   3.545   7.728  0.9966 -0.9124 -0.0555
  392TIP3   OH222810   1.552   4.534   1.665 -0.2500 -0.2996  0.3068
  392TIP3    H122811   1.552   4.483   1.746 -1.1299  3.1771  2.7400
  392TIP3    H222812   1.613   4.606   1.682 -1.2696  1.1396 -1.7343
  393TIP3   OH222813   0.958   6.777   7.037 -0.1070 -0.0200  0.3117
  393TIP3    H122814   0.918   6.734   6.962 -1.5088 -1.6873  1.8912
  393TIP3    H222815   1.049   6.747   7.037 -0.0199  0.2230 -0.8390
  394TIP3   OH222816   0.652   0.861   7.398 -0.0691  0.7189 -0.0307
  394TIP3    H122817   0.576   0.829   7.448 -1.7603  0.5013 -2.5702
  394TIP3    H222818   0.673   0.945   7.439 -1.5402  0.6892  0.8656
  395TIP3   OH222819   5.355   4.645   0.284  0.1667  0.8332 -0.2506
  395TIP3    H122820   5.448   4.636   0.267  0.3585  0.8601  0.7545
  395TIP3    H222821   5.322   4.695   0.209  0.6797 -0.4247 -1.3593
  396TIP3   OH222822   4.326   3.959   7.678  0.5308 -0.0440 -0.2572
  396TIP3    H122823   4.394   4.006   7.726  0.4201 -0.9266  0.8072
  396TIP3    H222824   4.321   3.874   7.721 -0.6242 -0.3205 -0.8947
  397TIP3   OH222825   4.128   6.279   1.038  0.0262  0.7302 -0.2887
  397TIP3    H122826   4.204   6.238   1.080 -0.5021 -0.3849 -0.3627
  397TIP3    H222827   4.165   6.338   0.972  0.8314  0.7312  0.1585
  398TIP3   OH222828   2.343   1.344   2.031 -0.6490  0.5125  0.3090
  398TIP3    H122829   2.336   1.413   1.964 -0.4320  0.4876  0.2579
  398TIP3    H222830   2.253   1.328   2.059 -0.5812  2.1607  1.6924
  399TIP3   OH222831   1.975   3.936   2.245 -0.8853 -0.1365  0.1246
  399TIP3    H122832   2.019   3.958   2.163  0.2653 -1.1464  0.4268
  399TIP3    H222833   1.996   4.008   2.304  1.5795 -1.1946  0.6633
  400TIP3   OH222834   5.255   0.255   8.027 -0.1326  0.0515 -0.1372
  400TIP3    H122835   5.225   0.187   8.087 -0.0524  1.4846  1.5968
  400TIP3    H222836   5.345   0.230   8.006 -0.3173 -0.7164 -0.0451
  401TIP3   OH222837   6.588   1.338   7.827  0.4422  0.2518  0.0173
  401TIP3    H122838   6.570   1.393   7.750 -0.6769  0.3946  0.3662
  401TIP3    H222839   6.662   1.284   7.801 -0.3238 -0.1618 -1.4195
  402TIP3   OH222840   3.423   5.824   0.986  0.1313  0.1879  0.0202
  402TIP3    H122841   3.340   5.820   1.032  0.4223 -0.2779  0.5150
  402TIP3    H222842   3.423   5.909   0.942  0.1112  0.9036  1.3611
  403TIP3   OH222843   6.760   4.433   7.158  0.0518  0.1083  0.4107
  403TIP3    H122844   6.670   4.449   7.188 -0.6054  0.1420 -1.4303
  403TIP3    H222845   6.763   4.339   7.141  0.3028  0.1417  0.2707
  404TIP3   OH222846   4.293   4.380   1.115  0.1392 -0.2974  0.0400
  404TIP3    H122847   4.253   4.406   1.032  0.2575 -0.1464  0.0309
  404TIP3    H222848   4.253   4.437   1.181 -1.0315 -1.3749  0.3065
  405TIP3   OH222849   1.131   6.547   0.192 -0.1817  0.5280  0.9164
  405TIP3    H122850   1.099   6.567   0.279  0.6544  1.1926  1.0834
  405TIP3    H222851   1.101   6.621   0.138 -0.9382 -0.0192  0.5739
  406TIP3   OH222852   1.493   5.861   8.054  0.5625 -0.2564 -0.3518
  406TIP3    H122853   1.403   5.876   8.027  0.2320 -0.2469  0.7265
  406TIP3    H222854   1.539   5.941   8.030 -0.0832  0.4206  0.6252
  407TIP3   OH222855   1.275   3.526   8.536 -0.7458 -0.1051  0.4060
  407TIP3    H122856   1.321   3.587   8.594 -0.0896 -0.4451  0.2599
  407TIP3    H222857   1.333   3.516   8.461 -2.0866  1.1647 -0.8400
  408TIP3   OH222858   1.634   6.254   7.883 -0.2931 -1.1876  0.1337
  408TIP3    H122859   1.654   6.269   7.975  2.2910 -1.0995 -0.3652
  408TIP3    H222860   1.572   6.323   7.860  0.2298 -0.2607  1.4203
  409TIP3   OH222861   6.397   0.896   8.811 -0.0526  0.4900 -0.2289
  409TIP3    H122862   6.303   0.915   8.800  0.1582  1.8763  0.1762
  409TIP3    H222863   6.398   0.818   8.867 -0.9618 -0.5695 -1.6073
  410TIP3   OH222864   2.412   1.408   6.512  0.1367 -0.1533 -0.4781
  410TIP3    H122865   2.431   1.338   6.575 -0.1601 -0.8185 -1.1111
  410TIP3    H222866   2.472   1.479   6.537  0.5568 -0.6867  0.0781
  411TIP3   OH222867   1.381   5.815   1.562  0.5159  0.2178 -0.0734
  411TIP3    H122868   1.386   5.909   1.541 -0.0347  0.3811  0.5072
  411TIP3    H222869   1.298   5.787   1.525  1.1180 -0.2744 -1.0994
  412TIP3   OH222870   1.841   3.084   1.573  0.3545 -0.1580 -0.2418
  412TIP3    H122871   1.933   3.067   1.591  0.3479 -0.1543 -0.2039
  412TIP3    H222872   1.806   3.117   1.656  0.7023  1.3946 -0.6797
  413TIP3   OH222873   5.198   5.561   6.664  0.0191 -0.7822 -0.1370
  413TIP3    H122874   5.293   5.555   6.670 -0.0741 -0.6056  2.3567
  413TIP3    H222875   5.168   5.470   6.660  0.2113 -1.0030  2.1100
  414TIP3   OH222876   6.699   4.613   1.709 -0.3426  0.3297 -0.3723
  414TIP3    H122877   6.760   4.672   1.753 -0.5717  0.1569  0.1927
  414TIP3    H222878   6.742   4.528   1.710 -0.8176  0.0840  0.5388
  415TIP3   OH222879   5.787   4.649   1.585 -0.7199 -0.1134 -0.1132
  415TIP3    H122880   5.813   4.681   1.672  1.7732 -1.7841 -0.1578
  415TIP3    H222881   5.851   4.687   1.526 -0.8623 -1.0515 -0.8809
  416TIP3   OH222882   6.368   2.496   7.343 -0.3897 -0.4821  0.8531
  416TIP3    H122883   6.279   2.489   7.378  0.1382 -1.8302  1.9902
  416TIP3    H222884   6.384   2.410   7.303  0.4841 -0.3173  0.8479
  417TIP3   OH222885   5.745   1.178   6.938  0.3023  0.2174 -0.3526
  417TIP3    H122886   5.821   1.124   6.921  0.5459  0.0962  1.0453
  417TIP3    H222887   5.671   1.117   6.937  0.5821 -0.1905  1.2756
  418TIP3   OH222888   0.144   5.956   8.892 -0.4408  0.2149 -0.1747
  418TIP3    H122889   0.076   5.898   8.925  1.1873 -1.7248 -0.0511
  418TIP3    H222890   0.193   5.903   8.828  1.2468  1.3587  0.0919
  419TIP3   OH222891   3.875   0.357   6.965 -0.4585  0.2578 -0.0054
  419TIP3    H122892   3.933   0.425   6.929  0.4937 -0.0743  0.8239
  419TIP3    H222893   3.879   0.286   6.901 -0.6148  0.5738 -0.3664
  420TIP3   OH222894   0.311   2.056   1.648  0.1798 -0.3997 -0.1419
  420TIP3    H122895   0.382   2.115   1.676 -1.5936  1.5161  0.5966
  420TIP3    H222896   0.278   2.096   1.567 -0.0298 -1.3012 -0.5109
  421TIP3   OH222897   0.677   4.499   8.036 -0.2437  0.8886 -0.4943
  421TIP3    H122898   0.641   4.411   8.050 -0.4639  1.0799  0.2197
  421TIP3    H222899   0.620   4.538   7.970 -0.8261  0.8767 -0.0119
  422TIP3   OH222900   2.956   0.373   7.853  0.1688 -0.3511 -0.2051
  422TIP3    H122901   2.998   0.306   7.799  1.9559 -1.0196  1.8683
  422TIP3    H222902   2.956   0.337   7.942 -0.6287  1.5990  0.6674
  423TIP3   OH222903   6.180   3.209   0.917 -0.4020 -0.1962 -0.3791
  423TIP3    H122904   6.128   3.245   0.988 -1.9919 -0.3395 -1.4150
  423TIP3    H222905   6.125   3.221   0.839  0.8572 -0.9470 -1.4197
  424TIP3   OH222906   2.423   5.533   0.726  0.2816 -0.4289 -0.3351
  424TIP3    H122907   2.372   5.457   0.754  0.7939 -1.0060 -0.9335
  424TIP3    H222908   2.371   5.572   0.656 -1.0629  1.0883  1.3963
  425TIP3   OH222909   5.071   1.093   8.433  0.4438  0.2180  0.0508
  425TIP3    H122910   5.147   1.054   8.477  1.8063  2.0143 -0.5512
  425TIP3    H222911   5.003   1.094   8.500  1.4182 -0.1370  1.0922
  426TIP3   OH222912   1.367   4.944   0.086  0.1505  0.0725  0.6312
  426TIP3    H122913   1.387   4.985   0.001 -1.6485  0.2223  0.2451
  426TIP3    H222914   1.393   5.009   0.151 -1.1717  1.1868  0.0778
  427TIP3   OH222915   4.587   1.973   2.006 -0.0144  0.5952 -0.3437
  427TIP3    H122916   4.628   1.887   2.013 -1.1098  0.0382 -0.5809
  427TIP3    H222917   4.558   1.993   2.095 -0.6811  0.2305 -0.4661
  428TIP3   OH222918   1.235   5.383   1.414 -0.4459 -0.3865  0.6311
  428TIP3    H122919   1.299   5.428   1.360 -1.4733 -0.2588 -0.5027
  428TIP3    H222920   1.264   5.291   1.413 -1.6712 -0.8259 -2.0416
  429TIP3   OH222921   4.456   1.293   7.785  0.4483  0.3814  0.1613
  429TIP3    H122922   4.364   1.267   7.782  0.5218  0.1558 -0.1944
  429TIP3    H222923   4.471   1.340   7.703  0.7963 -0.0958 -0.0569
  430TIP3   OH222924   2.871   4.974   1.131 -0.0483 -0.1196  0.5616
  430TIP3    H122925   2.869   4.885   1.164 -1.5496  0.1806  1.3534
  430TIP3    H222926   2.795   4.980   1.073 -0.0164  0.6695  0.5834
  431TIP3   OH222927   6.314   6.071   0.920 -0.1902 -0.1262 -0.1059
  431TIP3    H122928   6.242   6.108   0.869 -0.9702 -1.5506 -0.0996
  431TIP3    H222929   6.295   5.978   0.924  0.6606 -0.2712  1.5067
  432TIP3   OH222930   3.827   0.135   1.906  0.3507  0.0918 -0.0422
  432TIP3    H122931   3.868   0.220   1.915 -0.6826  0.5173  0.8317
  432TIP3    H222932   3.734   0.151   1.921 -0.1108 -0.8961 -1.5775
  433TIP3   OH222933   6.030   3.988   8.687 -0.3942 -0.1418 -0.0263
  433TIP3    H122934   6.025   4.057   8.621  0.8927 -1.2690 -1.3925
  433TIP3    H222935   5.992   3.911   8.644  0.1261 -0.8060  0.6715
  434TIP3   OH222936   4.215   2.419   8.443  0.1838 -0.4818 -0.3874
  434TIP3    H122937   4.304   2.392   8.419  0.2423 -0.2297 -0.4510
  434TIP3    H222938   4.224   2.453   8.532  0.5488  1.5070 -1.1315
  435TIP3   OH222939   3.715   5.809   7.754 -0.3864 -0.5186  0.0889
  435TIP3    H122940   3.732   5.859   7.834 -0.1353 -0.8819  0.2648
  435TIP3    H222941   3.652   5.862   7.706 -2.2316 -1.2981  1.5089
  436TIP3   OH222942   4.412   1.058   8.869 -0.0631  0.1512 -0.3237
  436TIP3    H122943   4.407   0.972   8.827  1.2244 -0.4527  0.6818
  436TIP3    H222944   4.368   1.117   8.808 -0.0827 -1.0455 -1.5159
  437TIP3   OH222945   3.699   3.350   1.789 -0.2226  1.1689 -0.7806
  437TIP3    H122946   3.660   3.395   1.863 -0.4068  0.6697 -0.5680
  437TIP3    H222947   3.789   3.332   1.816 -0.7611 -0.5090  0.0145
  438TIP3   OH222948   6.693   0.967   7.312  0.0572 -0.6287  0.0047
  438TIP3    H122949   6.631   0.914   7.362  1.0810 -1.1432  0.7467
  438TIP3    H222950   6.639   1.006   7.243 -0.9405 -1.7337  0.1145
  439TIP3   OH222951   5.349   6.045   6.793 -0.1201 -0.2278  0.7425
  439TIP3    H122952   5.381   6.012   6.709  1.2274  0.9565  0.7529
  439TIP3    H222953   5.317   6.133   6.773  0.5739  0.2162  1.5320
  440TIP3   OH222954   1.215   5.313   6.485 -0.1955  0.3310  0.0099
  440TIP3    H122955   1.262   5.396   6.491 -1.3171  0.9297  1.1934
  440TIP3    H222956   1.266   5.252   6.539 -1.0450  1.1465  1.8328
  441TIP3   OH222957   6.001   2.296   8.742  0.1172  0.6257 -0.1980
  441TIP3    H122958   5.924   2.308   8.797 -0.5512 -1.5437 -0.5751
  441TIP3    H222959   5.966   2.281   8.654  0.9687 -0.2409 -0.4022
  442TIP3   OH222960   3.065   0.285   2.488 -0.1759  0.6547  0.4072
  442TIP3    H122961   3.037   0.351   2.425 -0.7965 -0.7672 -0.8765
  442TIP3    H222962   3.161   0.285   2.482 -0.2351  0.4213 -0.6829
  443TIP3   OH222963   4.489   0.343   0.721  0.2510 -0.1758 -0.3459
  443TIP3    H122964   4.399   0.340   0.690  0.7703  0.7320 -2.0932
  443TIP3    H222965   4.485   0.315   0.812 -1.5663 -1.7448 -0.8652
  444TIP3   OH222966   1.958   0.514   8.881 -0.6783 -0.0300  0.0361
  444TIP3    H122967   2.013   0.440   8.909 -0.1893  0.6896  1.0148
  444TIP3    H222968   2.015   0.565   8.824 -0.5277  0.3798  0.5481
  445TIP3   OH222969   2.880   3.964   1.142 -0.0553 -0.3130 -0.8017
  445TIP3    H122970   2.890   3.951   1.048 -0.9961 -0.9822 -0.8309
  445TIP3    H222971   2.958   4.011   1.169  0.9042 -1.3498 -1.6880
  446TIP3   OH222972   3.213   3.082   7.554  0.0989  0.1651  0.0234
  446TIP3    H122973   3.259   3.003   7.582  0.0714  0.3913  0.7430
  446TIP3    H222974   3.163   3.055   7.477  0.3079 -0.4430  0.0922
  447TIP3   OH222975   0.928   5.984   0.825 -0.1141 -0.1873  1.0892
  447TIP3    H122976   0.855   6.043   0.804 -0.3566 -0.1271  2.0757
  447TIP3    H222977   0.932   5.924   0.750  0.6909  1.5824 -0.3716
  448TIP3   OH222978   0.882   6.542   8.154 -0.2816  0.3940  0.7467
  448TIP3    H122979   0.821   6.580   8.091 -0.0655  0.4580  0.5745
  448TIP3    H222980   0.926   6.618   8.193  1.1070  0.2929 -0.5461
  449TIP3   OH222981   1.446   4.287   6.355 -0.5244  0.3807  0.0324
  449TIP3    H122982   1.385   4.360   6.344  0.0636  1.0281  0.9467
  449TIP3    H222983   1.456   4.279   6.450 -0.8525 -1.1233 -0.0431
  450TIP3   OH222984   5.285   2.091   8.922  0.1113 -0.1019 -0.1248
  450TIP3    H122985   5.192   2.068   8.921  0.1222 -0.1840 -1.5709
  450TIP3    H222986   5.330   2.008   8.916  0.3285 -0.1229  1.3575
  451TIP3   OH222987   6.175   5.288   8.827 -0.0750 -0.5302 -0.2965
  451TIP3    H122988   6.201   5.232   8.754 -0.5677 -0.0276 -0.8746
  451TIP3    H222989   6.114   5.351   8.788 -2.1468 -1.6430  0.9704
  452TIP3   OH222990   5.431   6.001   8.430  0.6333  0.6061 -0.2770
  452TIP3    H122991   5.357   5.941   8.435 -0.5350  1.8605 -1.5314
  452TIP3    H222992   5.495   5.965   8.491 -0.0405 -1.8353 -0.8905
  453TIP3   OH222993   3.111   4.977   7.658 -0.0103 -0.5507  0.2352
  453TIP3    H122994   3.084   4.940   7.742  0.8488  1.9344  1.6894
  453TIP3    H222995   3.199   5.011   7.673 -0.8726  2.4190 -0.7917
  454TIP3   OH222996   1.484   1.179   7.803 -0.0974 -0.3868 -0.6377
  454TIP3    H122997   1.407   1.175   7.746 -0.1361 -0.0361 -0.6123
  454TIP3    H222998   1.457   1.235   7.875  0.4652  0.4520 -1.0660
  455TIP3   OH222999   5.827   3.567   1.237 -0.4456  0.0560 -0.5706
  455TIP3    H123000   5.889   3.595   1.170  1.7814 -1.4170  0.7341
  455TIP3    H223001   5.830   3.636   1.303  1.0796 -0.6844  0.2043
  456TIP3   OH223002   1.601   1.486   8.533 -0.7160 -0.0763  0.3244
  456TIP3    H123003   1.582   1.520   8.446 -0.7521  0.3807  0.5105
  456TIP3    H223004   1.618   1.393   8.519 -0.3477  0.0730 -0.2201
  457TIP3   OH223005   2.684   1.519   1.291  0.6066  0.3581  0.5079
  457TIP3    H123006   2.726   1.589   1.241 -0.0959  0.9586  0.7385
  457TIP3    H223007   2.590   1.533   1.277  0.4430 -1.7443 -1.1073
  458TIP3   OH223008   6.527   1.287   8.340 -0.3218 -0.0837 -0.1573
  458TIP3    H123009   6.557   1.337   8.264 -0.6276 -0.3079 -0.4291
  458TIP3    H223010   6.473   1.348   8.389 -0.7525 -0.1614 -0.5265
  459TIP3   OH223011   3.722   2.274   6.432  0.4373  0.0212 -0.2656
  459TIP3    H123012   3.638   2.253   6.389  1.3152  0.6473 -2.4049
  459TIP3    H223013   3.782   2.290   6.359  1.8752  1.7772  1.2358
  460TIP3   OH223014   4.279   5.507   1.792 -0.3465  0.1378  0.8077
  460TIP3    H123015   4.229   5.501   1.874  0.6856 -1.5267  1.3573
  460TIP3    H223016   4.267   5.422   1.750  1.1335  0.0899  0.4300
  461TIP3   OH223017   2.709   1.392   1.531  0.4556 -0.4733  0.0898
  461TIP3    H123018   2.770   1.454   1.571  0.9119 -1.4358  0.9135
  461TIP3    H223019   2.696   1.426   1.442 -0.2364  1.4609  0.8823
  462TIP3   OH223020   4.272   1.151   8.122 -0.3547  0.5025  0.4633
  462TIP3    H123021   4.184   1.117   8.139  0.3839 -1.5041  0.5551
  462TIP3    H223022   4.278   1.155   8.027  1.0074 -4.1717  0.1083
  463TIP3   OH223023   2.635   3.207   8.809 -0.1506  0.0985  0.3414
  463TIP3    H123024   2.553   3.217   8.858  0.5179 -1.1751  1.8242
  463TIP3    H223025   2.696   3.266   8.852  0.3927 -0.8988  1.0037
  464TIP3   OH223026   5.524   1.045   0.588  0.0057  0.6010  0.8654
  464TIP3    H123027   5.541   1.045   0.683  1.9643  0.0429  0.5617
  464TIP3    H223028   5.496   0.956   0.569  1.5832  0.1044  0.6648
  465TIP3   OH223029   3.155   6.536   7.912  0.1197  0.5803  0.0654
  465TIP3    H123030   3.191   6.455   7.948 -0.4393 -0.8730 -2.3951
  465TIP3    H223031   3.061   6.518   7.904 -0.0056  1.4706 -0.5058
  466TIP3   OH223032   3.430   3.774   8.307 -0.4227 -0.4875 -0.3051
  466TIP3    H123033   3.455   3.833   8.379  0.2573 -0.7976 -0.2775
  466TIP3    H223034   3.336   3.758   8.320  0.0139 -1.9135  1.5427
  467TIP3   OH223035   6.664   2.304   0.289  0.1515  0.0989  0.4787
  467TIP3    H123036   6.755   2.285   0.310 -0.1772 -1.7837  0.4039
  467TIP3    H223037   6.638   2.372   0.351  1.8873  1.4700 -0.2259
  468TIP3   OH223038   3.779   2.432   8.301 -0.5473 -0.0402  0.1081
  468TIP3    H123039   3.808   2.412   8.390 -1.6434  1.4518  0.8491
  468TIP3    H223040   3.772   2.347   8.258  0.3583 -0.7605  1.3232
  469TIP3   OH223041   5.250   5.341   1.620  0.0805 -0.0762  0.4381
  469TIP3    H123042   5.281   5.412   1.677 -0.6735  0.0720  0.6849
  469TIP3    H223043   5.328   5.310   1.575  0.6715 -0.0765  1.4251
  470TIP3   OH223044   3.155   2.265   7.796 -0.0337 -0.1234  0.1788
  470TIP3    H123045   3.205   2.344   7.816 -2.6761  1.6023  0.5107
  470TIP3    H223046   3.183   2.242   7.707  1.5399  0.5395  0.4616
  471TIP3   OH223047   0.544   6.111   0.519  0.0876  0.4043 -0.1210
  471TIP3    H123048   0.461   6.067   0.538  0.5677  0.1647  1.6483
  471TIP3    H223049   0.519   6.203   0.504 -0.6680 -0.0016 -1.4547
  472TIP3   OH223050   5.487   2.628   1.837  0.2069  0.0622 -0.0159
  472TIP3    H123051   5.481   2.560   1.904 -1.1950  0.8030  0.6515
  472TIP3    H223052   5.541   2.696   1.877  0.2085  0.0691 -0.0302
  473TIP3   OH223053   5.995   4.457   0.474 -0.4569 -0.1214 -0.0609
  473TIP3    H123054   5.930   4.481   0.540 -1.5766 -3.3655  0.1837
  473TIP3    H223055   5.962   4.377   0.435  2.4089 -0.7984 -1.4175
  474TIP3   OH223056   6.757   5.164   2.071  0.3291  0.8839  0.5638
  474TIP3    H123057   6.853   5.170   2.075  0.3061  1.3532  0.4222
  474TIP3    H223058   6.729   5.178   2.162  0.3304  2.0102  0.4050
  475TIP3   OH223059   4.639   4.200   6.903 -0.0816  0.0699  0.0499
  475TIP3    H123060   4.640   4.287   6.863 -2.0906 -0.0383 -0.3548
  475TIP3    H223061   4.557   4.197   6.952  0.1406 -1.4718  0.3856
  476TIP3   OH223062   5.465   1.363   1.236  0.2910 -0.0889  0.1753
  476TIP3    H123063   5.559   1.360   1.222  0.3369  1.4270 -0.0136
  476TIP3    H223064   5.437   1.272   1.229  1.4015 -0.3376 -2.1577
  477TIP3   OH223065   6.102   5.632   1.711 -0.1104 -0.0157  0.5339
  477TIP3    H123066   6.119   5.644   1.617 -0.4991 -1.3548  0.2626
  477TIP3    H223067   6.064   5.544   1.717  0.5048 -0.2134  2.0246
  478TIP3   OH223068   4.247   3.717   1.183  0.2546  0.5943 -1.0392
  478TIP3    H123069   4.264   3.749   1.271  1.7693  0.4375 -1.2371
  478TIP3    H223070   4.153   3.730   1.170  0.0468  0.8286  0.4994
  479TIP3   OH223071   3.484   1.958   8.539  0.5599 -0.4629  0.4178
  479TIP3    H123072   3.569   1.966   8.582  0.1554  1.4227  0.9547
  479TIP3    H223073   3.490   2.014   8.462  0.3329 -1.6428 -0.4932
  480TIP3   OH223074   0.417   6.420   8.792 -0.0004 -0.3108  0.1388
  480TIP3    H123075   0.330   6.404   8.755  0.0839  1.1086 -0.7226
  480TIP3    H223076   0.417   6.512   8.817  1.6841  0.1116 -1.1593
  481TIP3   OH223077   5.207   1.367   1.887 -0.1864  0.3109  0.0258
  481TIP3    H123078   5.146   1.316   1.939  1.5571 -3.3278 -1.1369
  481TIP3    H223079   5.268   1.405   1.951  0.3056 -1.7831  0.8858
  482TIP3   OH223080   5.866   2.323   8.013 -0.5303 -0.2763 -0.2724
  482TIP3    H123081   5.846   2.374   8.091  0.0228 -1.7824  0.9015
  482TIP3    H223082   5.801   2.253   8.012 -0.5203 -0.2873 -1.1639
  483TIP3   OH223083   5.236   2.721   8.003  0.1789  0.8036 -0.2725
  483TIP3    H123084   5.175   2.680   7.941  1.2284  1.6821 -1.9754
  483TIP3    H223085   5.323   2.694   7.972  0.7263  0.3463  1.5402
  484TIP3   OH223086   4.620   0.574   0.770 -0.4171 -0.5571  0.2238
  484TIP3    H123087   4.560   0.515   0.724 -0.9600  0.4851 -0.4453
  484TIP3    H223088   4.655   0.521   0.842 -0.1344 -1.9920 -0.9176
  485TIP3   OH223089   1.418   1.795   7.263  0.5108  0.1471  0.3930
  485TIP3    H123090   1.358   1.723   7.282  0.3381  0.2817  0.3580
  485TIP3    H223091   1.504   1.764   7.294  0.9003 -0.9669 -1.6285
  486TIP3   OH223092   3.950   5.793   7.464 -0.0079 -0.0265  0.0089
  486TIP3    H123093   4.042   5.790   7.441 -0.2382  0.4989 -1.0200
  486TIP3    H223094   3.946   5.756   7.553  1.3414  1.1167  0.5678
  487TIP3   OH223095   2.490   2.226   0.030 -0.2812 -0.5651  0.4576
  487TIP3    H123096   2.407   2.253   0.069 -0.3643  0.6112 -0.4688
  487TIP3    H223097   2.552   2.295   0.055 -0.4358  0.4628 -1.7319
  488TIP3   OH223098   1.358   6.627   1.194  0.4226 -0.2295  0.4752
  488TIP3    H123099   1.283   6.568   1.203  0.7224 -0.5878  0.6445
  488TIP3    H223100   1.372   6.661   1.283  0.1582  0.2099  0.3487
  489TIP3   OH223101   3.533   1.773   7.750  0.1494 -0.1995 -0.2251
  489TIP3    H123102   3.588   1.732   7.684  0.6013 -0.1433  0.1134
  489TIP3    H223103   3.562   1.865   7.751 -0.4041 -0.0177 -0.5145
  490TIP3   OH223104   6.778   5.583   2.262  0.3293  0.3981 -0.0198
  490TIP3    H123105   6.782   5.547   2.351  2.2571 -2.0598 -1.0058
  490TIP3    H223106   6.868   5.579   2.230 -0.1829  2.0003 -1.8340
  491TIP3   OH223107   2.963   6.146   7.354  0.0848  0.1783 -0.3456
  491TIP3    H123108   2.967   6.053   7.376  3.5299  0.1799 -0.3830
  491TIP3    H223109   2.963   6.148   7.258  0.6927  0.1961 -0.3488
  492TIP3   OH223110   2.806   1.057   7.865  0.7225  0.0401 -0.2349
  492TIP3    H123111   2.796   1.071   7.960  0.5942 -0.0837 -0.2299
  492TIP3    H223112   2.895   1.088   7.846  0.3967  1.0064 -0.2533
  493TIP3   OH223113   1.873   6.418   0.126 -0.2299  0.4244  0.0113
  493TIP3    H123114   1.832   6.350   0.073  0.8517 -1.3661  1.3396
  493TIP3    H223115   1.810   6.438   0.195  0.6499 -1.6643  1.5187
  494TIP3   OH223116   6.326   3.747   7.646  0.1038  0.1410  0.6118
  494TIP3    H123117   6.380   3.776   7.720 -1.4424  2.0672  1.0917
  494TIP3    H223118   6.359   3.797   7.572 -0.7906  1.1357  0.8555
  495TIP3   OH223119   3.394   1.554   1.227  0.2518 -0.0795 -0.9501
  495TIP3    H123120   3.327   1.486   1.220 -0.9382  0.9848 -0.2864
  495TIP3    H223121   3.393   1.581   1.319  0.2801  1.2239 -1.3058
  496TIP3   OH223122   5.748   0.186   0.740  0.6164  0.3094  0.1133
  496TIP3    H123123   5.805   0.211   0.668 -0.5582  0.0142 -0.9486
  496TIP3    H223124   5.728   0.093   0.724 -1.8651  0.9180 -0.7857
  497TIP3   OH223125   6.325   0.649   8.334  0.0593  0.3337 -0.1173
  497TIP3    H123126   6.393   0.617   8.393 -0.7111 -0.9429  0.1020
  497TIP3    H223127   6.301   0.573   8.282 -1.5953  0.6101  0.2007
  498TIP3   OH223128   3.784   2.146   0.691 -0.6899  0.2742  0.1390
  498TIP3    H123129   3.801   2.117   0.780  1.8849 -1.2631 -0.7204
  498TIP3    H223130   3.818   2.235   0.688 -1.3489  0.5595  0.8166
  499TIP3   OH223131   5.939   5.977   8.572  0.1696 -0.0076  0.1574
  499TIP3    H123132   6.006   6.030   8.615  0.0767 -1.1989  1.9013
  499TIP3    H223133   5.856   6.017   8.597  0.1660  0.6437 -0.8478
  500TIP3   OH223134   5.117   5.564   1.252  0.4948 -0.6264  0.4490
  500TIP3    H123135   5.069   5.603   1.325  1.5596 -1.6289  1.7364
  500TIP3    H223136   5.182   5.507   1.294  0.9771 -1.4194 -1.2950
  501TIP3   OH223137   4.500   5.692   8.648 -0.6932  0.3002  0.3912
  501TIP3    H123138   4.588   5.676   8.612 -1.0050 -0.0555 -0.2311
  501TIP3    H223139   4.510   5.680   8.742 -0.2686 -0.6757  0.2357
  502TIP3   OH223140   3.419   1.477   1.658 -0.1598  0.0661 -0.0163
  502TIP3    H123141   3.328   1.489   1.682 -0.5549 -1.4156 -0.6428
  502TIP3    H223142   3.469   1.510   1.733 -1.2176  0.5038  0.5052
  503TIP3   OH223143   2.438   1.053   8.521 -0.3873 -0.0169  0.1289
  503TIP3    H123144   2.371   1.012   8.575 -0.4066  0.4415  0.4570
  503TIP3    H223145   2.481   1.115   8.579  2.1200 -2.1394  0.7234
  504TIP3   OH223146   2.299   5.295   1.327 -0.0629  0.2890 -0.5138
  504TIP3    H123147   2.224   5.288   1.385 -0.7906 -0.7316 -1.5527
  504TIP3    H223148   2.367   5.241   1.369 -0.5081 -0.2654 -0.5004
  505TIP3   OH223149   0.738   4.421   1.643 -0.6011 -0.2119 -0.2467
  505TIP3    H123150   0.652   4.404   1.605  0.3414 -0.8110 -2.2591
  505TIP3    H223151   0.720   4.479   1.717 -2.8582 -1.5024  0.3117
  506TIP3   OH223152   5.751   3.059   7.945  0.0714 -0.2525 -0.2809
  506TIP3    H123153   5.751   3.148   7.909 -0.4354 -0.7289 -1.5018
  506TIP3    H223154   5.829   3.018   7.906  0.4355 -0.2855  0.4639
  507TIP3   OH223155   4.775   6.262   0.752  0.1034 -0.2730 -0.0727
  507TIP3    H123156   4.689   6.299   0.769  1.3223  2.5039  0.5945
  507TIP3    H223157   4.824   6.333   0.710  2.4299 -1.3218  0.6822
  508TIP3   OH223158   2.567   2.188   0.551 -0.5842 -0.4198  0.0958
  508TIP3    H123159   2.585   2.201   0.644  2.3777 -0.0422 -0.4405
  508TIP3    H223160   2.609   2.105   0.530  0.2634  0.3095 -1.2247
  509TIP3   OH223161   6.500   5.938   8.441 -0.4862 -0.5823  0.5037
  509TIP3    H123162   6.520   5.845   8.457  0.6696 -0.1152  2.0085
  509TIP3    H223163   6.573   5.985   8.481 -0.2582  0.9694 -1.5693
  510TIP3   OH223164   4.502   4.821   1.495  0.2000 -0.3059 -0.7033
  510TIP3    H123165   4.531   4.870   1.418  1.8203  1.0952  0.7301
  510TIP3    H223166   4.582   4.807   1.546 -0.9273 -0.5820  1.0667
  511TIP3   OH223167   0.463   6.347   0.079  0.3948 -0.0080 -0.1696
  511TIP3    H123168   0.451   6.357  -0.016  0.9473  2.7959 -0.0162
  511TIP3    H223169   0.375   6.336   0.114 -0.0146  1.1058 -0.8216
  512TIP3   OH223170   0.152   3.284   7.236  0.2502 -0.4776 -0.0950
  512TIP3    H123171   0.208   3.258   7.163 -0.2803 -0.0739 -0.6595
  512TIP3    H223172   0.205   3.269   7.314  1.1023 -0.1934 -0.6096
  513TIP3   OH223173   6.766   5.468   8.361 -0.0439  0.1650 -0.4039
  513TIP3    H123174   6.705   5.405   8.400 -0.2772 -1.0403 -2.5404
  513TIP3    H223175   6.852   5.430   8.376  0.1232  1.1878  1.4309
  514TIP3   OH223176   6.413   4.770   1.249  0.0922 -0.2288  0.0717
  514TIP3    H123177   6.504   4.762   1.277 -0.0913  0.0983  0.7972
  514TIP3    H223178   6.402   4.703   1.182  0.9920  0.0358 -0.3632
  515TIP3   OH223179   0.346   3.785   6.377 -0.0437  0.3868 -0.1152
  515TIP3    H123180   0.382   3.867   6.410 -0.1337  0.4605 -0.1968
  515TIP3    H223181   0.268   3.770   6.430 -0.2287  0.5429 -0.3386
  516TIP3   OH223182   1.494   4.557   1.120 -0.2039 -0.0087 -0.4605
  516TIP3    H123183   1.415   4.516   1.085  0.0282 -1.6373  0.8164
  516TIP3    H223184   1.484   4.553   1.215  0.1304  2.4124 -0.2517
  517TIP3   OH223185   0.129   2.197   0.325  0.1716 -0.0561 -0.2273
  517TIP3    H123186   0.082   2.147   0.258 -1.3461  3.3466 -1.9182
  517TIP3    H223187   0.213   2.217   0.285  0.5363 -0.6510  0.2127
  518TIP3   OH223188   2.124   2.471   7.692 -0.2879 -0.7948 -0.2181
  518TIP3    H123189   2.208   2.489   7.733 -0.5562 -2.2676  1.0867
  518TIP3    H223190   2.145   2.427   7.610  0.2256 -0.3680 -0.3128
  519TIP3   OH223191   0.323   5.962   8.040 -0.3003  0.4775 -0.0660
  519TIP3    H123192   0.332   6.019   7.964  0.7559  1.1058  0.5229
  519TIP3    H223193   0.310   6.021   8.114  0.0138 -0.0766  0.4425
  520TIP3   OH223194   1.917   2.803   6.656  1.1350 -0.4707 -0.1174
  520TIP3    H123195   1.822   2.807   6.644  1.1636  1.2194  0.0774
  520TIP3    H223196   1.951   2.780   6.569  0.5694 -0.8310 -0.2491
  521TIP3   OH223197   4.718   0.642   7.949 -0.5671  0.1278 -0.4665
  521TIP3    H123198   4.688   0.730   7.971 -1.3555 -0.4963  1.1967
  521TIP3    H223199   4.755   0.609   8.031 -0.1251 -1.0267 -1.1094
  522TIP3   OH223200   5.625   0.370   8.168 -0.9606  0.4732  0.4299
  522TIP3    H123201   5.718   0.367   8.144 -1.1889 -1.0379 -0.3908
  522TIP3    H223202   5.580   0.378   8.084 -1.5764  2.2292  0.8803
  523TIP3   OH223203   1.638   1.050   7.607  0.0282  0.1570 -0.1847
  523TIP3    H123204   1.699   1.105   7.558  0.0404 -0.1533 -0.5228
  523TIP3    H223205   1.601   1.108   7.673  2.9644 -0.3523  2.0942
  524TIP3   OH223206   2.017   2.662   1.870 -0.3629 -0.7197  0.1296
  524TIP3    H123207   1.957   2.588   1.857  0.3967 -1.3203 -0.0427
  524TIP3    H223208   2.102   2.621   1.886 -0.3140  0.0562  2.2287
  525TIP3   OH223209   0.356   0.086   8.558 -0.0384 -0.2766  0.6265
  525TIP3    H123210   0.436   0.118   8.516 -0.9837  2.0298  0.4404
  525TIP3    H223211   0.350   0.137   8.639 -1.6726  0.0919  0.2971
  526TIP3   OH223212   6.509   5.622   6.989 -0.1427  0.2255  0.2967
  526TIP3    H123213   6.425   5.667   6.977 -0.3390 -0.1834  0.0999
  526TIP3    H223214   6.530   5.589   6.901 -0.0363 -0.1239  0.4538
  527TIP3   OH223215   4.765   3.304   7.451  0.2243  0.6136 -0.4426
  527TIP3    H123216   4.695   3.365   7.474 -3.3562 -2.9600 -0.7792
  527TIP3    H223217   4.793   3.268   7.535  2.1153  2.3287 -0.2714
  528TIP3   OH223218   2.203   5.751   1.496  0.3763  0.1434  0.1805
  528TIP3    H123219   2.239   5.757   1.408 -3.7958  1.2757 -1.6805
  528TIP3    H223220   2.239   5.827   1.542  0.7037  0.9827 -1.3882
  529TIP3   OH223221   5.147   4.393   0.542 -0.1316 -0.4372  0.2157
  529TIP3    H123222   5.109   4.447   0.472 -0.4336  0.1451  0.8141
  529TIP3    H223223   5.083   4.399   0.613  1.0903  0.6325  1.2800
  530TIP3   OH223224   1.291   2.837   7.972  0.1070 -0.2801  0.1441
  530TIP3    H123225   1.369   2.831   8.027  0.0075 -0.5672  0.2597
  530TIP3    H223226   1.317   2.891   7.898  0.2838 -0.0072  0.4064
  531TIP3   OH223227   3.766   3.043   7.190 -0.3019  0.4301 -0.0912
  531TIP3    H123228   3.814   2.962   7.172 -0.8192  0.0200  0.3241
  531TIP3    H223229   3.701   3.049   7.120 -0.7471  0.0881  0.2816
  532TIP3   OH223230   0.285   6.119   8.303  0.0255  0.1298  0.2199
  532TIP3    H123231   0.361   6.166   8.270 -0.1832  0.7434  0.6046
  532TIP3    H223232   0.321   6.041   8.346  0.2785 -1.0334 -1.9412
  533TIP3   OH223233   3.426   2.311   7.136  0.1184  0.4843  0.6441
  533TIP3    H123234   3.399   2.260   7.059  0.1354  0.3736  0.7124
  533TIP3    H223235   3.371   2.390   7.132  0.6350  0.8232  0.1086
  534TIP3   OH223236   1.186   4.103   0.750  0.3314  0.5330 -0.3749
  534TIP3    H123237   1.230   4.188   0.764 -0.7326  1.5673 -2.7496
  534TIP3    H223238   1.104   4.110   0.799 -0.2743  1.3723 -1.4726
  535TIP3   OH223239   5.777   4.231   8.594 -0.2579 -0.3806  0.7160
  535TIP3    H123240   5.767   4.269   8.681  2.6083 -0.7038  1.2574
  535TIP3    H223241   5.731   4.292   8.536  0.9755  1.9065  2.0298
  536TIP3   OH223242   0.955   4.191   0.925 -0.4491  0.1696  0.0203
  536TIP3    H123243   0.959   4.107   0.969 -1.6423  0.4284  0.6663
  536TIP3    H223244   0.866   4.222   0.940 -0.5192  0.8264 -1.5503
  537TIP3   OH223245   3.896   2.615   7.662 -0.1230 -0.1339  0.7877
  537TIP3    H123246   3.896   2.520   7.676 -0.6330 -0.1348  0.7780
  537TIP3    H223247   3.964   2.648   7.721  1.0742 -0.6587 -0.2434
  538TIP3   OH223248   2.942   6.422   7.113  0.1277 -0.4372  0.2142
  538TIP3    H123249   2.976   6.438   7.025 -0.5870 -3.5309 -0.7511
  538TIP3    H223250   2.849   6.408   7.100  0.4198 -3.7137  0.9161
  539TIP3   OH223251   1.476   1.383   7.165 -0.5270  0.4740 -0.3548
  539TIP3    H123252   1.522   1.299   7.158 -1.1367 -0.0950  1.6597
  539TIP3    H223253   1.536   1.446   7.126  1.6526 -0.3574  1.3910
  540TIP3   OH223254   2.436   6.633   1.287  0.2546 -0.2519  0.0278
  540TIP3    H123255   2.365   6.598   1.341  0.1079 -0.6054 -0.3840
  540TIP3    H223256   2.510   6.576   1.306  0.4584  0.1781  0.5320
  541TIP3   OH223257   6.173   2.197   8.302 -0.0614  0.2046  0.4491
  541TIP3    H123258   6.201   2.177   8.392 -0.0142  1.1966  0.6595
  541TIP3    H223259   6.234   2.263   8.271 -0.0086 -0.2077 -0.3668
  542TIP3   OH223260   3.319   2.345   6.610 -0.1301  0.5571 -0.2835
  542TIP3    H123261   3.394   2.289   6.587 -0.3968  0.7324 -1.6768
  542TIP3    H223262   3.344   2.432   6.578  0.3024  1.3195  1.8971
  543TIP3   OH223263   1.406   2.831   0.151 -0.0182  0.0752  0.3400
  543TIP3    H123264   1.400   2.735   0.145 -1.4608  0.0957  0.9121
  543TIP3    H223265   1.393   2.850   0.244  2.6841  0.7369  0.6465
  544TIP3   OH223266   2.012   3.816   6.831  0.0371 -0.2580 -0.3703
  544TIP3    H123267   2.013   3.908   6.806 -0.4776 -0.1671 -0.0943
  544TIP3    H223268   2.034   3.769   6.751  0.6464  0.1161 -0.4307
  545TIP3   OH223269   0.117   4.097   6.599 -0.2709  0.0908 -0.7164
  545TIP3    H123270   0.115   4.012   6.555 -1.1920  0.1506 -0.8037
  545TIP3    H223271   0.208   4.108   6.624 -0.3100 -1.4552  0.2985
  546TIP3   OH223272   3.344   4.189   8.509 -0.2664 -1.1335 -0.1731
  546TIP3    H123273   3.270   4.146   8.552 -1.4359  0.2191 -0.7627
  546TIP3    H223274   3.323   4.185   8.416  0.1539 -0.2901 -0.3092
  547TIP3   OH223275   6.707   6.722   1.573 -0.3061  0.0467 -0.2420
  547TIP3    H123276   6.661   6.642   1.547 -0.2345  0.4858 -1.8001
  547TIP3    H223277   6.637   6.786   1.587 -0.3022  0.0403 -0.1945
  548TIP3   OH223278   3.751   4.190   1.507 -0.9739 -0.4790  0.4066
  548TIP3    H123279   3.782   4.248   1.577  0.1523 -1.8213  1.0606
  548TIP3    H223280   3.660   4.172   1.530 -0.6156 -0.9254  1.5637
  549TIP3   OH223281   3.480   3.211   7.278 -0.0960  0.0095 -0.3333
  549TIP3    H123282   3.531   3.156   7.338 -2.1935 -1.0070  0.6267
  549TIP3    H223283   3.463   3.155   7.202  0.4933  0.4744 -0.8235
  550TIP3   OH223284   1.358   6.668   1.469  0.0673  0.2235 -0.1049
  550TIP3    H123285   1.355   6.706   1.556  0.4497 -0.7984  0.3672
  550TIP3    H223286   1.342   6.574   1.483 -1.4518  0.2632 -1.2883
  551TIP3   OH223287   1.541   0.328   1.228  0.1282  0.0537 -0.2429
  551TIP3    H123288   1.498   0.343   1.312  0.9602 -1.4037  0.4860
  551TIP3    H223289   1.478   0.278   1.177  0.4566 -1.0373  0.3829
  552TIP3   OH223290   6.305   4.917   2.366  0.4402  0.4615  0.2012
  552TIP3    H123291   6.210   4.915   2.364  0.3711  2.0950 -0.2263
  552TIP3    H223292   6.332   4.826   2.356 -1.0051  0.2867 -4.2172
  553TIP3   OH223293   1.771   3.617   8.845 -0.2507 -0.0970 -0.3086
  553TIP3    H123294   1.719   3.560   8.902  0.2917  0.0333  0.3321
  553TIP3    H223295   1.839   3.561   8.810  0.6710  0.2616  0.8222
  554TIP3   OH223296   0.710   3.506   7.257 -0.0167 -0.7655  0.4806
  554TIP3    H123297   0.664   3.457   7.189 -0.2525  1.9907 -1.4895
  554TIP3    H223298   0.641   3.552   7.304  0.4259  1.6864 -1.0988
  555TIP3   OH223299   3.551   2.070   7.703 -0.2953  1.0630  0.0583
  555TIP3    H123300   3.576   2.128   7.631 -0.6460 -0.5941 -1.4983
  555TIP3    H223301   3.464   2.038   7.678 -0.6198  0.7815  1.4657
  556TIP3   OH223302   0.605   3.058   2.028  0.1731  0.2958 -0.1101
  556TIP3    H123303   0.595   2.965   2.050  0.5611  0.2220 -0.2467
  556TIP3    H223304   0.553   3.104   2.095 -2.1769 -0.1333 -1.5431
  557TIP3   OH223305   0.582   2.030   8.964  0.3350  0.0892  0.1340
  557TIP3    H123306   0.553   2.121   8.964  1.4352  0.4589 -1.0160
  557TIP3    H223307   0.622   2.017   8.878  2.0882 -0.8688  1.0357
  558TIP3   OH223308   0.906   4.959   0.423 -0.2699 -0.3810 -0.0414
  558TIP3    H123309   0.863   5.006   0.494 -0.8156 -1.9248  0.6881
  558TIP3    H223310   0.928   4.874   0.460  2.7743  0.0429 -0.6283
  559TIP3   OH223311   6.129   1.558   8.732 -0.0882 -0.7885 -0.5879
  559TIP3    H123312   6.208   1.590   8.775  0.6893 -0.0821 -2.4513
  559TIP3    H223313   6.134   1.593   8.644 -1.3759 -2.5744 -1.4305
  560TIP3   OH223314   1.881   3.442   0.203  0.3285  0.2179  0.4407
  560TIP3    H123315   1.965   3.487   0.200 -0.8491  2.5305 -1.9753
  560TIP3    H223316   1.831   3.487   0.272  0.3548  0.2425  0.4433
  561TIP3   OH223317   5.447   6.412   0.086 -0.3891 -0.1615 -0.1956
  561TIP3    H123318   5.366   6.459   0.063 -0.0453  0.0152 -1.0829
  561TIP3    H223319   5.517   6.476   0.071  0.0841 -0.9310 -1.3941
  562TIP3   OH223320   3.659   6.189   1.330 -0.2092 -0.1472 -0.6018
  562TIP3    H123321   3.650   6.177   1.424 -0.9759 -0.5046 -0.7137
  562TIP3    H223322   3.664   6.100   1.295  1.2871 -0.0090 -0.8001
  563TIP3   OH223323   0.890   0.175   0.338  0.3061  0.2481 -0.4711
  563TIP3    H123324   0.864   0.112   0.270  2.1841  0.4684 -1.4461
  563TIP3    H223325   0.819   0.240   0.338 -0.4397 -0.5309 -1.1782
  564TIP3   OH223326   0.546   5.159   8.170 -0.0367 -0.5325 -0.0730
  564TIP3    H123327   0.598   5.110   8.106  1.4956  0.8538  0.0431
  564TIP3    H223328   0.596   5.152   8.252 -0.9290 -0.5906  0.4811
  565TIP3   OH223329   1.635   5.453   1.343 -0.4001 -0.0280  0.4851
  565TIP3    H123330   1.635   5.374   1.397  0.1127  0.0208  0.5693
  565TIP3    H223331   1.724   5.487   1.352 -0.3587  0.0739 -0.2523
  566TIP3   OH223332   4.211   2.451   6.108  0.8162  0.0316  0.1816
  566TIP3    H123333   4.181   2.363   6.134  1.7515  0.0384  1.3824
  566TIP3    H223334   4.193   2.506   6.184 -1.0465  1.2311 -1.0588
  567TIP3   OH223335   1.074   4.298   1.726  0.1695  0.4477 -0.8794
  567TIP3    H123336   1.124   4.366   1.771 -1.0947  2.0427 -1.7682
  567TIP3    H223337   1.137   4.226   1.714  1.5362  1.4202  0.1489
  568TIP3   OH223338   1.876   0.747   1.097  0.1932 -0.1188 -0.8975
  568TIP3    H123339   1.937   0.715   1.031 -0.2653 -0.3746 -1.2036
  568TIP3    H223340   1.807   0.681   1.100 -1.8406  1.7531 -2.9977
  569TIP3   OH223341   2.918   4.763   7.838 -0.6229 -0.1066 -0.0685
  569TIP3    H123342   2.896   4.701   7.907 -2.4270  0.6941  0.1391
  569TIP3    H223343   2.835   4.805   7.817  0.4326  1.8233 -0.6042
  570TIP3   OH223344   2.917   4.160   7.830  0.1417 -0.7003  0.0123
  570TIP3    H123345   2.986   4.209   7.786  1.4517 -2.2454  0.2435
  570TIP3    H223346   2.864   4.125   7.758 -0.4039  0.4506 -0.1678
  571TIP3   OH223347   4.366   4.685   0.928 -0.0018 -0.0192 -0.2652
  571TIP3    H123348   4.448   4.680   0.975 -0.5009  2.5187  1.0151
  571TIP3    H223349   4.322   4.602   0.947  1.1365 -0.3170  1.1782
  572TIP3   OH223350   4.004   3.685   0.886 -0.7208  0.4417 -0.3581
  572TIP3    H123351   3.918   3.711   0.919  0.0235  0.6508  1.5097
  572TIP3    H223352   4.007   3.590   0.899 -1.2409  0.1847 -1.8928
  573TIP3   OH223353   2.200   1.622   0.175  0.0651 -0.3755  0.5683
  573TIP3    H123354   2.168   1.659   0.093  0.6951 -1.8469 -0.3954
  573TIP3    H223355   2.174   1.685   0.242  1.2670  1.8900 -0.9527
  574TIP3   OH223356   1.508   1.112   0.878  0.0516  0.2492 -0.3632
  574TIP3    H123357   1.444   1.180   0.898 -1.5510 -1.7836  1.9989
  574TIP3    H223358   1.560   1.104   0.958  1.5289  0.0072 -1.3146
  575TIP3   OH223359   2.718   1.507   0.679  0.6300 -0.0883  0.0474
  575TIP3    H123360   2.625   1.511   0.700  1.0038  0.1490  1.8300
  575TIP3    H223361   2.746   1.423   0.714  1.3211  0.3577  0.5739
  576TIP3   OH223362   5.087   0.266   1.508  0.5670 -0.0090 -0.1115
  576TIP3    H123363   5.144   0.267   1.431 -0.4259  1.6530 -0.8893
  576TIP3    H223364   5.038   0.348   1.502 -1.5829 -1.1511  0.7417
  577TIP3   OH223365   6.734   5.853   0.096 -0.2995 -0.4017  0.3466
  577TIP3    H123366   6.722   5.933   0.148 -1.5621  0.3824 -1.0413
  577TIP3    H223367   6.657   5.851   0.039  0.7217 -1.5249 -1.0570
  578TIP3   OH223368   5.960   4.188   8.884 -0.3118  0.6739 -0.5015
  578TIP3    H123369   5.948   4.125   8.955 -1.8022  0.7967 -0.6107
  578TIP3    H223370   5.972   4.134   8.806  2.3196  0.5221 -0.0835
  579TIP3   OH223371   0.587   1.140   1.166  0.3203 -0.3405 -0.9012
  579TIP3    H123372   0.624   1.125   1.253  0.1802  2.3963 -0.2504
  579TIP3    H223373   0.500   1.100   1.169 -0.4011  1.1900  0.9198
  580TIP3   OH223374   4.569   5.167   2.397  0.3836 -0.0388 -0.1757
  580TIP3    H123375   4.500   5.126   2.346  0.5986 -0.1417 -0.3856
  580TIP3    H223376   4.650   5.144   2.351  0.5250  0.4187 -0.1556
  581TIP3   OH223377   3.911   4.741   1.948  0.1711  0.2190 -0.5139
  581TIP3    H123378   3.903   4.645   1.948  0.6436  0.1458  1.4670
  581TIP3    H223379   3.995   4.757   1.906  2.0962 -0.5466  2.7073
  582TIP3   OH223380   4.069   5.317   8.588 -0.3333 -0.6901 -0.1954
  582TIP3    H123381   4.100   5.341   8.675  0.3550 -1.0316 -0.3405
  582TIP3    H223382   4.148   5.314   8.534 -0.8214  0.1385 -0.9871
  583TIP3   OH223383   5.114   6.358   8.643  0.4031 -0.1260 -0.4678
  583TIP3    H123384   5.155   6.382   8.560  0.1948  1.0632 -0.2499
  583TIP3    H223385   5.113   6.439   8.694  3.1119 -1.4116  1.8734
  584TIP3   OH223386   1.740   1.175   7.909  0.0289 -0.0681 -0.1941
  584TIP3    H123387   1.749   1.252   7.965  1.8160  0.3272 -0.9675
  584TIP3    H223388   1.649   1.179   7.878 -0.7602  0.1529  1.9586
  585TIP3   OH223389   2.760   5.746   7.960 -0.1868  0.0186  0.5091
  585TIP3    H123390   2.687   5.732   7.899 -0.7841 -2.5467  1.6742
  585TIP3    H223391   2.723   5.799   8.030 -0.8544 -0.9060  0.8760
  586TIP3   OH223392   6.032   4.390   7.294  0.0943  0.4684 -0.0773
  586TIP3    H123393   6.059   4.309   7.337 -0.3487 -0.8330 -2.1194
  586TIP3    H223394   5.956   4.365   7.241  0.3253  2.0822 -1.2548
  587TIP3   OH223395   2.017   0.786   0.061 -0.5111 -0.0113  0.7775
  587TIP3    H123396   1.988   0.876   0.051  0.6048  0.5095  1.9575
  587TIP3    H223397   1.938   0.738   0.086 -1.3937  0.3510 -1.1826
  588TIP3   OH223398   0.043   1.947   7.869  0.4031 -0.3640  0.0632
  588TIP3    H123399   0.006   2.031   7.897  0.6183 -0.4891  0.7538
  588TIP3    H223400   0.060   1.958   7.775 -2.0416 -0.5544 -0.4563
  589TIP3   OH223401   0.421   6.681   8.002 -0.5380 -0.0496 -0.1243
  589TIP3    H123402   0.335   6.640   8.003 -0.3431 -0.4550  0.3084
  589TIP3    H223403   0.456   6.666   8.090 -0.7201  1.6016  0.2741
  590TIP3   OH223404   0.250   4.952   1.093  0.2523 -0.0483  0.1223
  590TIP3    H123405   0.310   5.021   1.064 -0.9422  0.2623 -1.8514
  590TIP3    H223406   0.297   4.870   1.077  0.9647  0.2404  0.6892
  591TIP3   OH223407   3.920   4.129   8.644 -0.1325 -0.2133 -0.0620
  591TIP3    H123408   3.848   4.185   8.615 -1.0328 -0.3971  1.7120
  591TIP3    H223409   3.885   4.040   8.638  0.0491 -0.3279  0.5055
  592TIP3   OH223410   2.365   1.190   8.771 -0.0445 -0.1820  0.2305
  592TIP3    H123411   2.438   1.167   8.829 -0.3800  1.1487  1.2356
  592TIP3    H223412   2.322   1.264   8.815 -0.0659  1.1670 -1.9250
  593TIP3   OH223413   2.725   3.662   7.753  0.1347 -0.0359 -0.6249
  593TIP3    H123414   2.688   3.750   7.756  0.5149  0.2228 -2.5924
  593TIP3    H223415   2.814   3.672   7.788 -0.7055 -0.2167  1.7889
  594TIP3   OH223416   5.769   5.591   0.358  0.7828  0.0070 -0.9503
  594TIP3    H123417   5.695   5.538   0.329  0.1000 -0.0793  0.8204
  594TIP3    H223418   5.843   5.531   0.361  0.0868 -0.8343  0.7355
  595TIP3   OH223419   6.719   5.085   6.734 -0.0235  0.7550  0.1516
  595TIP3    H123420   6.679   5.143   6.669  1.8771 -0.5701 -2.3680
  595TIP3    H223421   6.690   4.997   6.709  0.9383  0.1877  0.9719
  596TIP3   OH223422   5.694   4.211   8.136 -0.5146 -0.0227 -0.4600
  596TIP3    H123423   5.711   4.250   8.050 -1.2698  0.1902 -0.5152
  596TIP3    H223424   5.678   4.285   8.193 -1.9186 -0.2251 -0.5540
  597TIP3   OH223425   0.949   1.161   8.304 -0.2041  0.7022 -0.1012
  597TIP3    H123426   1.005   1.156   8.382  1.2552  1.6057 -1.0296
  597TIP3    H223427   0.901   1.078   8.303  1.7057 -0.4777  0.3453
  598TIP3   OH223428   4.127   1.714   6.858  0.7745  0.0935 -0.3233
  598TIP3    H123429   4.035   1.714   6.832  0.3686 -1.2733  0.9898
  598TIP3    H223430   4.167   1.780   6.801 -0.6192 -0.6195 -2.2692
  599TIP3   OH223431   1.229   0.616   7.874 -0.1533 -0.3046  0.8963
  599TIP3    H123432   1.275   0.650   7.797 -1.4092 -0.3371  0.1063
  599TIP3    H223433   1.136   0.633   7.856 -0.4105  0.6461  2.8775
  600TIP3   OH223434   6.041   3.815   7.707  0.1467 -0.1528  0.0295
  600TIP3    H123435   5.990   3.735   7.690 -0.1843  0.6327 -3.3490
  600TIP3    H223436   6.119   3.805   7.654  1.6170  0.4993  1.9589
  601TIP3   OH223437   2.243   1.259   0.673  0.0373 -0.3947 -0.2520
  601TIP3    H123438   2.313   1.259   0.738 -0.2718  1.3121  0.1255
  601TIP3    H223439   2.280   1.303   0.597  0.3594 -2.2923 -1.2539
  602TIP3   OH223440   4.038   2.598   8.339  0.0137 -0.1603 -0.5530
  602TIP3    H123441   4.086   2.520   8.369 -0.2631 -0.0880  0.0905
  602TIP3    H223442   3.951   2.566   8.317 -0.3421  0.0976  0.4604
  603TIP3   OH223443   2.279   6.313   0.822 -0.1320 -0.1406  0.1922
  603TIP3    H123444   2.235   6.398   0.825  1.1461  0.6230 -1.3995
  603TIP3    H223445   2.336   6.313   0.899 -0.9621 -0.0661  0.8285
  604TIP3   OH223446   4.587   1.541   0.576  0.0427  0.7649  0.3174
  604TIP3    H123447   4.583   1.570   0.668  0.8234  2.3644 -0.1120
  604TIP3    H223448   4.545   1.455   0.576 -0.2931  0.8869  2.1115
  605TIP3   OH223449   6.335   1.780   1.352  0.3316 -0.0802  0.2310
  605TIP3    H123450   6.414   1.777   1.406  1.9102  0.7410 -1.9076
  605TIP3    H223451   6.359   1.833   1.276 -1.3448 -2.1786 -1.9394
  606TIP3   OH223452   6.105   6.376   6.895 -0.6277  0.1924 -0.1629
  606TIP3    H123453   6.066   6.429   6.825  0.8497 -0.5061 -1.5927
  606TIP3    H223454   6.126   6.439   6.963 -1.2866  1.0413 -0.7116
  607TIP3   OH223455   5.666   1.408   7.432 -0.0678  0.2860  0.4870
  607TIP3    H123456   5.701   1.472   7.495 -1.1059  0.4946  0.8717
  607TIP3    H223457   5.729   1.409   7.359  0.2209  1.3364  0.7365
  608TIP3   OH223458   2.841   4.633   8.059  0.6690 -0.6523 -0.0391
  608TIP3    H123459   2.864   4.554   8.107  0.8284 -0.9421 -0.5899
  608TIP3    H223460   2.768   4.671   8.108  0.3697 -1.3196  0.0335
  609TIP3   OH223461   4.457   1.112   8.367 -0.3452  0.0592  0.1467
  609TIP3    H123462   4.420   1.049   8.428 -0.5125 -1.3301 -1.3188
  609TIP3    H223463   4.394   1.114   8.294  0.9119 -0.0352 -0.9879
  610TIP3   OH223464   0.225   0.626   7.327 -0.0470 -0.1636 -0.4681
  610TIP3    H123465   0.267   0.648   7.409  0.7980 -0.3833 -0.8298
  610TIP3    H223466   0.136   0.601   7.351  0.8519 -2.5378  0.6911
  611TIP3   OH223467   1.238   1.702   7.731  0.1431  0.6115 -0.1126
  611TIP3    H123468   1.181   1.673   7.661 -1.2268  0.9315  0.8274
  611TIP3    H223469   1.240   1.797   7.723 -0.2389  0.6720  0.4227
  612TIP3   OH223470   0.457   6.024   0.837  0.5943  0.1302 -0.3028
  612TIP3    H123471   0.406   5.951   0.802  0.3920  0.1135  0.0239
  612TIP3    H223472   0.396   6.071   0.894  1.2314 -0.4778  0.9086
  613TIP3   OH223473   4.960   2.481   6.302 -0.0185  0.4725 -0.1756
  613TIP3    H123474   4.903   2.509   6.231 -1.3486  0.2714  0.7708
  613TIP3    H223475   4.919   2.401   6.335  0.3314  0.7817  1.0609
  614TIP3   OH223476   4.694   0.642   1.301  0.4650  0.1312 -0.5040
  614TIP3    H123477   4.767   0.613   1.247  0.9035  1.8128 -0.8526
  614TIP3    H223478   4.719   0.619   1.390  1.4140  0.6713 -0.6254
  615TIP3   OH223479   2.119   0.011   8.702 -0.5945 -0.0566 -0.2500
  615TIP3    H123480   2.062   0.064   8.647 -0.2578 -0.0208 -0.5750
  615TIP3    H223481   2.172   0.074   8.751 -0.8804 -0.0889  0.1028
  616TIP3   OH223482   5.551   1.711   7.227 -0.1772 -0.3159 -0.2068
  616TIP3    H123483   5.475   1.701   7.285  0.6691  1.5871  1.3419
  616TIP3    H223484   5.586   1.797   7.249  0.9330 -0.0468 -2.7300
  617TIP3   OH223485   1.206   5.809   8.450  0.1767 -0.0899 -0.1022
  617TIP3    H123486   1.215   5.897   8.413  0.7426  0.2822  0.9018
  617TIP3    H223487   1.114   5.803   8.475 -0.2402 -0.3711 -1.5738
  618TIP3   OH223488   6.698   2.310   2.313 -0.4406 -0.2424 -0.0117
  618TIP3    H123489   6.771   2.315   2.375 -0.7836 -0.1405  0.3852
  618TIP3    H223490   6.690   2.399   2.278  0.2922 -0.4856 -0.8348
  619TIP3   OH223491   0.477   3.000   0.951  0.0882 -0.3039 -0.3295
  619TIP3    H123492   0.466   3.081   1.002  0.0116 -1.2407  1.2213
  619TIP3    H223493   0.442   2.932   1.008  2.1838 -1.7363 -0.6525
  620TIP3   OH223494   4.525   0.339   1.582 -0.5104 -0.4291 -0.2427
  620TIP3    H123495   4.497   0.259   1.536 -1.0212  0.0364 -0.7585
  620TIP3    H223496   4.482   0.410   1.535  1.8915  0.3919 -1.3473
  621TIP3   OH223497   5.461   5.533   6.665 -0.3311  0.7761  0.3891
  621TIP3    H123498   5.515   5.607   6.692  1.8043 -1.3428  2.4521
  621TIP3    H223499   5.524   5.470   6.630 -1.4174 -1.6806  2.5454
  622TIP3   OH223500   6.691   2.545   0.032  0.0738 -0.0769 -0.3007
  622TIP3    H123501   6.625   2.611   0.008 -0.6389 -1.2025 -1.5635
  622TIP3    H223502   6.649   2.491   0.098  1.0322  1.2970  1.5321
  623TIP3   OH223503   4.411   5.934   8.820 -0.0474  0.2801 -0.7985
  623TIP3    H123504   4.423   5.920   8.726 -1.5251  2.6726 -1.4435
  623TIP3    H223505   4.316   5.936   8.832  0.1005  1.8811  0.3993
  624TIP3   OH223506   2.846   1.988   1.060  0.3750 -0.4441 -0.3188
  624TIP3    H123507   2.941   1.994   1.057  0.4904 -0.9277  1.2494
  624TIP3    H223508   2.821   2.040   1.136 -0.7622  0.8129 -1.4937
  625TIP3   OH223509   2.528   0.400   1.188 -0.0602  0.1340 -0.0296
  625TIP3    H123510   2.609   0.372   1.146  0.9877 -0.3707  2.1393
  625TIP3    H223511   2.512   0.487   1.154 -0.0937 -0.7697 -2.4787
  626TIP3   OH223512   2.450   4.906   2.148  0.0357 -0.6479  0.4574
  626TIP3    H123513   2.428   4.922   2.239 -1.7099  0.7310 -0.1642
  626TIP3    H223514   2.376   4.857   2.113  0.4739 -0.7695 -0.3365
  627TIP3   OH223515   6.065   1.185   7.018  0.0476  0.4680  0.0656
  627TIP3    H123516   6.050   1.229   6.935  0.9250  0.7221  0.0397
  627TIP3    H223517   6.098   1.098   6.995 -2.0266 -0.4070  0.1047
  628TIP3   OH223518   5.355   2.307   8.113  0.0766 -0.4354  0.1489
  628TIP3    H123519   5.270   2.291   8.072  0.1939  1.0038 -0.7241
  628TIP3    H223520   5.338   2.377   8.176  0.2471 -1.4724  1.3826
  629TIP3   OH223521   5.204   0.551   1.200 -0.1232  0.0838  0.1759
  629TIP3    H123522   5.241   0.556   1.112 -0.6518  0.1736 -0.0429
  629TIP3    H223523   5.192   0.458   1.216 -0.5715  0.0986 -0.0762
  630TIP3   OH223524   6.345   2.405   8.199 -0.5802 -0.2073  0.9245
  630TIP3    H123525   6.256   2.435   8.218 -2.1553 -2.4877 -2.0570
  630TIP3    H223526   6.381   2.471   8.139 -0.4934  0.3266  1.5476
  631TIP3   OH223527   1.547   3.794   8.397 -0.1596 -0.4585  0.5775
  631TIP3    H123528   1.585   3.824   8.314  0.2566 -0.4822  0.7545
  631TIP3    H223529   1.619   3.801   8.460 -0.5371 -0.2210  0.9910
  632TIP3   OH223530   6.451   5.021   8.766 -0.1286  0.2445 -0.3710
  632TIP3    H123531   6.468   5.082   8.837 -0.6475  0.6989 -0.6247
  632TIP3    H223532   6.501   4.942   8.789  1.5061  1.1577 -0.6131
  633TIP3   OH223533   3.778   5.366   8.466  0.2053 -0.1841 -0.1784
  633TIP3    H123534   3.866   5.328   8.464  0.4995  0.4726 -0.2570
  633TIP3    H223535   3.771   5.406   8.552  0.4723  0.8447 -0.6103
  634TIP3   OH223536   6.154   6.581   7.981 -0.1940  0.4386 -0.2218
  634TIP3    H123537   6.121   6.492   7.993 -0.6717  0.6245 -0.1369
  634TIP3    H223538   6.082   6.638   8.009  0.3073  0.8541  0.2431
  635TIP3   OH223539   1.433   1.069   7.400  0.2038 -0.2209 -0.6169
  635TIP3    H123540   1.414   1.159   7.427 -0.6766 -1.0028  1.5977
  635TIP3    H223541   1.497   1.038   7.464 -1.6028 -2.0373  0.4070
  636TIP3   OH223542   3.830   3.501   2.139 -0.2108 -0.6337 -0.0620
  636TIP3    H123543   3.893   3.458   2.196 -2.0293 -2.1653  0.9106
  636TIP3    H223544   3.862   3.485   2.050  1.1489 -0.7116  0.4279
  637TIP3   OH223545   6.568   1.372   2.161 -0.1155 -0.5261  0.5997
  637TIP3    H123546   6.515   1.427   2.103  0.2775  0.2878  1.0006
  637TIP3    H223547   6.647   1.423   2.178  0.0755 -1.0350  1.3105
  638TIP3   OH223548   4.265   3.948   8.936 -0.2669  0.1181  0.3765
  638TIP3    H123549   4.294   3.865   8.974  1.0985  0.5901  0.4184
  638TIP3    H223550   4.183   3.968   8.981 -0.6026 -1.1885  0.3826
  639TIP3   OH223551   1.667   6.090   0.455  0.2728 -0.2174  0.0671
  639TIP3    H123552   1.618   6.013   0.484  1.0845 -0.2639  1.3543
  639TIP3    H223553   1.601   6.146   0.414 -0.2403 -1.8375 -1.4495
  640TIP3   OH223554   6.130   5.988   6.608 -0.2598  0.2919 -0.3776
  640TIP3    H123555   6.164   6.076   6.624 -0.2714  0.0696  1.0182
  640TIP3    H223556   6.175   5.933   6.672 -0.3130 -0.7151 -1.1734
  641TIP3   OH223557   6.563   2.891   8.072 -0.4978 -0.9267  0.4155
  641TIP3    H123558   6.572   2.977   8.032 -0.3561 -1.4869 -0.8090
  641TIP3    H223559   6.649   2.872   8.109  0.0338 -1.3189 -0.9650
  642TIP3   OH223560   4.429   3.453   2.034 -0.8522  0.0266  0.1287
  642TIP3    H123561   4.354   3.512   2.043 -0.2272  0.6033  2.5177
  642TIP3    H223562   4.481   3.491   1.963 -2.7165 -0.3295 -1.4974
  643TIP3   OH223563   5.794   4.134   1.640 -0.0300 -0.2757 -0.1125
  643TIP3    H123564   5.875   4.098   1.603  0.6483  0.7667  0.3127
  643TIP3    H223565   5.802   4.229   1.628 -1.2584 -0.1612 -0.1834
  644TIP3   OH223566   5.208   4.376   2.342  0.3965 -0.5069 -0.2526
  644TIP3    H123567   5.255   4.326   2.274  0.8225  1.4954 -1.5107
  644TIP3    H223568   5.137   4.318   2.369  0.1882 -1.3808 -2.4488
  645TIP3   OH223569   2.265   4.008   6.980 -0.4427  0.0049 -0.3310
  645TIP3    H123570   2.223   4.003   6.894 -1.4680 -0.3625  0.1697
  645TIP3    H223571   2.291   4.100   6.989 -1.7719  0.4075 -0.3941
  646TIP3   OH223572   3.580   4.167   0.155 -0.5035  0.8941 -0.0682
  646TIP3    H123573   3.589   4.257   0.121 -2.0745  1.4626  0.9045
  646TIP3    H223574   3.511   4.129   0.102  0.1467  0.2299 -0.4621
  647TIP3   OH223575   0.727   2.878   8.367  0.1361  0.0692 -0.0642
  647TIP3    H123576   0.691   2.960   8.401  2.2972  0.7216  0.7940
  647TIP3    H223577   0.793   2.905   8.303  0.1433 -1.0333 -0.5439
  648TIP3   OH223578   0.235   3.488   0.519 -0.0118  0.7516 -0.5304
  648TIP3    H123579   0.267   3.422   0.458  2.0308 -0.5341  1.7528
  648TIP3    H223580   0.141   3.472   0.525  0.5394 -2.9339  0.8960
  649TIP3   OH223581   5.136   3.427   0.940  0.2950 -0.7045 -0.1839
  649TIP3    H123582   5.091   3.510   0.952 -3.5422 -2.6105  0.4673
  649TIP3    H223583   5.150   3.420   0.846  1.3311  0.9360 -0.1691
  650TIP3   OH223584   2.351   4.933   1.733  0.4311  0.1733  0.7278
  650TIP3    H123585   2.300   5.009   1.761  2.1110  1.3551  0.7046
  650TIP3    H223586   2.434   4.941   1.779  0.6839 -1.6254  0.6608
  651TIP3   OH223587   1.089   3.388   1.783  0.6362  0.4248  0.2263
  651TIP3    H123588   1.057   3.342   1.705  2.2491  0.7469 -0.6634
  651TIP3    H223589   1.102   3.319   1.848  2.3848 -0.3409 -0.8699
  652TIP3   OH223590   4.515   3.938   0.345 -0.5363 -0.3287  0.1118
  652TIP3    H123591   4.481   3.902   0.427 -0.3130  0.9817  0.8065
  652TIP3    H223592   4.610   3.932   0.353 -0.5245 -1.4857 -0.6697
  653TIP3   OH223593   4.677   0.505   0.374  0.1087 -0.1508  0.4771
  653TIP3    H123594   4.714   0.568   0.435  0.1170  0.7925 -0.4686
  653TIP3    H223595   4.582   0.517   0.382  0.1064  1.8278 -1.4785
  654TIP3   OH223596   3.720   1.862   7.312 -0.1292  0.1158  0.0574
  654TIP3    H123597   3.629   1.886   7.294 -0.3009  1.2394  2.0653
  654TIP3    H223598   3.771   1.937   7.282  0.2908 -0.9345 -2.0052
  655TIP3   OH223599   5.496   5.632   8.404  0.2864  0.1452  0.1581
  655TIP3    H123600   5.558   5.562   8.422  0.9008  1.2921  3.0037
  655TIP3    H223601   5.550   5.711   8.395 -0.3330  0.3595 -3.5465
  656TIP3   OH223602   2.473   2.356   6.314  0.0961  0.3389 -0.4126
  656TIP3    H123603   2.533   2.387   6.246  1.2776  1.2993  1.0164
  656TIP3    H223604   2.395   2.411   6.305  0.4355  0.7768 -0.6745
  657TIP3   OH223605   2.114   5.588   7.652  0.1388 -0.1346 -0.1321
  657TIP3    H123606   2.135   5.575   7.744  0.5396  0.0830 -0.1884
  657TIP3    H223607   2.074   5.506   7.624 -0.8652  0.1368  0.4686
  658TIP3   OH223608   2.651   2.349   6.562 -0.4814 -0.2648  0.4942
  658TIP3    H123609   2.640   2.443   6.576 -0.0663  0.0758 -1.2981
  658TIP3    H223610   2.601   2.330   6.483  2.5433 -0.7580 -1.4739
  659TIP3   OH223611   4.707   4.180   8.655  0.2062 -0.1496 -0.4410
  659TIP3    H123612   4.613   4.195   8.642  0.1749  0.4814  0.3836
  659TIP3    H223613   4.750   4.248   8.603  0.1648  0.3396  0.1511
  660TIP3   OH223614   2.652   4.637   6.587  0.1211  0.3082 -0.5207
  660TIP3    H123615   2.629   4.586   6.509 -0.2500  0.1199 -0.2888
  660TIP3    H223616   2.587   4.612   6.653  1.2522 -0.6136  0.3010
  661TIP3   OH223617   0.089   4.459   0.650 -0.7339 -0.2802  0.1466
  661TIP3    H123618   0.081   4.554   0.640  1.5604 -0.1375 -1.0459
  661TIP3    H223619   0.021   4.436   0.714 -2.0907  1.9769 -0.3452
  662TIP3   OH223620   2.216   1.027   0.474  0.0176  0.6342  0.1294
  662TIP3    H123621   2.240   1.071   0.555 -2.1884  1.5412  0.3518
  662TIP3    H223622   2.179   0.943   0.503 -2.3846  1.6584  0.2909
  663TIP3   OH223623   1.466   5.376   2.394  0.0345 -0.2138  0.0138
  663TIP3    H123624   1.504   5.311   2.336 -2.1187 -0.3298 -1.3533
  663TIP3    H223625   1.390   5.333   2.434 -0.4331  0.9049  0.3954
  664TIP3   OH223626   6.690   6.048   7.476  0.9119 -0.1826 -0.0088
  664TIP3    H123627   6.611   6.046   7.530  0.5381 -0.4982 -0.5660
  664TIP3    H223628   6.668   5.997   7.398  1.0491  1.2677 -1.0281
  665TIP3   OH223629   3.750   6.653   8.787  0.1670 -0.1851  0.0783
  665TIP3    H123630   3.800   6.654   8.705  1.1707 -1.4145  0.6426
  665TIP3    H223631   3.807   6.696   8.850  0.9172 -2.2535  0.9061
  666TIP3   OH223632   4.287   4.804   0.682  0.3251 -0.1164 -0.0742
  666TIP3    H123633   4.316   4.754   0.758  0.8627  0.5211  0.1560
  666TIP3    H223634   4.312   4.894   0.702 -0.2428  0.1790 -0.6617
  667TIP3   OH223635   0.655   0.695   1.697  0.5464  0.0128  0.2828
  667TIP3    H123636   0.568   0.668   1.667  0.9200  2.0404 -3.2150
  667TIP3    H223637   0.714   0.628   1.663  0.5771  0.1123  0.1356
  668TIP3   OH223638   1.700   0.624   0.449  0.3080 -0.1092 -0.4192
  668TIP3    H123639   1.674   0.710   0.418 -1.4085 -1.1132 -1.9577
  668TIP3    H223640   1.759   0.590   0.381 -1.0336 -1.1047 -1.1387
  669TIP3   OH223641   1.977   3.681   7.557 -0.5166  0.3146 -0.7633
  669TIP3    H123642   1.881   3.675   7.558 -0.4806 -0.3047 -0.4909
  669TIP3    H223643   2.007   3.591   7.573  0.0963  0.7950  1.0685
  670TIP3   OH223644   2.240   3.180   0.252 -0.3677  0.4619  0.2616
  670TIP3    H123645   2.215   3.119   0.321  1.0378 -0.2441  0.1750
  670TIP3    H223646   2.186   3.155   0.177 -0.5165 -0.0187  0.5294
  671TIP3   OH223647   1.291   4.082   8.031 -0.7822  0.2287 -0.2023
  671TIP3    H123648   1.283   3.987   8.026  0.2298 -0.0237  1.8476
  671TIP3    H223649   1.264   4.104   8.120  3.5495  1.2168  1.1258
  672TIP3   OH223650   4.103   5.694   8.277 -0.3302  0.7814 -0.1609
  672TIP3    H123651   4.140   5.674   8.363  1.0396  0.2136 -0.8407
  672TIP3    H223652   4.016   5.654   8.278 -0.2998  0.7040  0.9085
  673TIP3   OH223653   5.907   0.539   8.134 -0.3669  0.2946  0.0039
  673TIP3    H123654   5.975   0.589   8.090  0.7773 -0.7769  0.4837
  673TIP3    H223655   5.919   0.449   8.104 -0.8197 -0.1127  0.9684
  674TIP3   OH223656   5.907   1.431   8.471 -0.0835  0.2687  0.3360
  674TIP3    H123657   5.865   1.409   8.554 -0.4238  0.4958  0.2260
  674TIP3    H223658   5.944   1.348   8.440 -0.8113 -0.0219  0.2325
  675TIP3   OH223659   5.933   2.958   0.254  0.4682  0.0815 -0.1747
  675TIP3    H123660   5.969   3.041   0.283 -0.0178  0.5433 -0.8539
  675TIP3    H223661   6.008   2.908   0.222  1.1521 -0.7681  2.5361
  676TIP3   OH223662   3.598   2.933   0.044  0.1692 -0.0678  0.2059
  676TIP3    H123663   3.629   2.899  -0.041 -1.0859 -0.1624 -0.2335
  676TIP3    H223664   3.587   2.856   0.098 -1.3812 -0.2702 -0.3558
  677TIP3   OH223665   3.274   1.992   7.944 -0.9468  0.4838 -0.0712
  677TIP3    H123666   3.184   2.006   7.973 -0.8732  1.5999 -0.3326
  677TIP3    H223667   3.283   2.048   7.867  0.0836  0.6818  0.1782
  678TIP3   OH223668   2.974   5.921   7.727  0.0695  0.4216  0.2017
  678TIP3    H123669   2.940   5.833   7.710  3.3380 -0.9267  0.0203
  678TIP3    H223670   2.906   5.963   7.780 -1.9668 -1.8790 -0.4037
  679TIP3   OH223671   6.297   4.134   7.569  0.0454  0.0786  0.1872
  679TIP3    H123672   6.326   4.050   7.534 -1.1633 -0.8501  1.3583
  679TIP3    H223673   6.337   4.199   7.511  2.6390 -1.1956  0.4148
  680TIP3   OH223674   1.102   3.462   7.099  0.2668  0.2260 -0.1333
  680TIP3    H123675   1.036   3.423   7.043 -1.5526 -0.8822  2.5897
  680TIP3    H223676   1.137   3.389   7.151  1.7099  1.2222  0.3835
  681TIP3   OH223677   2.770   4.920   7.120  0.5128  0.2732 -0.4630
  681TIP3    H123678   2.759   4.863   7.045  0.6720 -1.0936  0.5234
  681TIP3    H223679   2.861   4.951   7.115  0.4336  0.4231 -0.9777
  682TIP3   OH223680   3.878   2.888   0.914  0.1702 -0.6034  0.9918
  682TIP3    H123681   3.881   2.895   1.009 -2.7185  0.3167  1.1128
  682TIP3    H223682   3.785   2.876   0.894  0.4703  0.8687 -1.8053
  683TIP3   OH223683   5.827   2.805   8.815 -0.3149 -0.3035 -0.1032
  683TIP3    H123684   5.892   2.870   8.786 -1.4875  1.0311  0.1517
  683TIP3    H223685   5.809   2.829   8.906  0.2862 -1.9131  0.4798
  684TIP3   OH223686   2.948   4.371   7.380 -0.3422  0.0038 -0.3226
  684TIP3    H123687   2.918   4.408   7.296  2.4604  1.4437 -0.8040
  684TIP3    H223688   2.975   4.282   7.359  0.3155  0.3462 -0.9471
  685TIP3   OH223689   4.432   4.001   6.370 -0.3468 -0.2430  0.1431
  685TIP3    H123690   4.494   4.020   6.300 -0.5562 -0.6631 -0.1624
  685TIP3    H223691   4.460   3.915   6.404 -0.8282 -0.4951 -0.0801
  686TIP3   OH223692   5.870   6.261   7.619 -0.7100 -0.1380 -0.5586
  686TIP3    H123693   5.953   6.257   7.571 -0.8258 -0.0757 -0.7597
  686TIP3    H223694   5.825   6.337   7.583 -0.6000  0.1784 -0.0423
  687TIP3   OH223695   0.029   5.927   6.448 -0.5544  0.2679 -0.1389
  687TIP3    H123696   0.117   5.928   6.487 -0.9254 -2.5972  0.9948
  687TIP3    H223697  -0.012   6.008   6.480  0.3373 -0.2782  2.6425
  688TIP3   OH223698   5.563   4.923   7.896  0.0676  0.0737  0.6737
  688TIP3    H123699   5.515   5.002   7.874  1.5740  0.8339  0.0005
  688TIP3    H223700   5.557   4.917   7.991  0.7660  1.5621  0.8337
  689TIP3   OH223701   5.216   6.067   7.551 -0.1523 -0.4257 -0.1158
  689TIP3    H123702   5.176   6.136   7.604  0.7602 -0.9794  1.3422
  689TIP3    H223703   5.157   6.057   7.477 -0.6502  1.4629 -0.0314
  690TIP3   OH223704   5.117   2.748   6.533 -0.1630  0.0171  0.4539
  690TIP3    H123705   5.171   2.819   6.569  0.5224 -0.4622  0.4025
  690TIP3    H223706   5.177   2.673   6.528 -0.9487 -0.6413  0.7692
  691TIP3   OH223707   4.592   0.386   6.691  0.6662  0.4468  0.3875
  691TIP3    H123708   4.573   0.294   6.672  0.2937  0.5581  0.1980
  691TIP3    H223709   4.656   0.412   6.625  1.2971  0.1322  0.8768
  692TIP3   OH223710   4.401   0.379   7.745 -0.5799  0.0713  0.5205
  692TIP3    H123711   4.356   0.462   7.759 -0.7842 -0.1604  1.2809
  692TIP3    H223712   4.491   0.403   7.726 -0.7555  0.4888  0.2233
  693TIP3   OH223713   1.665   1.309   6.843  0.3503  0.2179 -0.0214
  693TIP3    H123714   1.668   1.303   6.939  1.4505  0.6757 -0.0173
  693TIP3    H223715   1.756   1.325   6.817  0.0486  0.1693 -1.1403
  694TIP3   OH223716   5.920   1.615   2.270  0.3219  0.4786  0.2713
  694TIP3    H123717   5.969   1.667   2.207  0.7698 -0.2749 -0.0151
  694TIP3    H223718   5.978   1.607   2.346  0.2224  0.4739  0.3478
  695TIP3   OH223719   2.030   3.537   8.500  0.7402 -0.7680  0.5397
  695TIP3    H123720   2.026   3.628   8.527  0.7131 -0.5216 -0.2507
  695TIP3    H223721   2.002   3.538   8.408 -1.0587 -1.8296  1.0422
  696TIP3   OH223722   6.251   4.332   8.527 -0.2308 -0.0671  1.0241
  696TIP3    H123723   6.260   4.357   8.619  2.2636  1.5964  0.4235
  696TIP3    H223724   6.298   4.250   8.519  1.5550  0.9290  0.8572
  697TIP3   OH223725   0.944   3.095   2.066  0.0390 -0.0443 -0.1972
  697TIP3    H123726   0.897   3.122   1.988 -0.7064 -0.7588 -0.0073
  697TIP3    H223727   0.890   3.125   2.139  1.4163  1.8920  0.1109
  698TIP3   OH223728   5.576   3.935   0.928  0.2286 -0.0814 -0.1862
  698TIP3    H123729   5.633   3.878   0.980  0.6336  0.4411 -0.0491
  698TIP3    H223730   5.523   3.875   0.876  0.8348 -0.5785 -0.2435
  699TIP3   OH223731   6.222   5.147   2.690  0.0303  0.0981  0.2458
  699TIP3    H123732   6.271   5.165   2.770 -0.6771 -1.5175  1.1030
  699TIP3    H223733   6.181   5.061   2.705  0.1231 -0.4169 -1.9694
  700TIP3   OH223734   4.087   0.445   0.689 -0.1905 -0.6638  0.5125
  700TIP3    H123735   4.150   0.510   0.720  1.0739 -0.9148 -1.3601
  700TIP3    H223736   4.139   0.384   0.636 -1.6978 -2.0191  0.5024
  701TIP3   OH223737   2.169   4.838   7.925 -0.3273 -0.0290  0.2225
  701TIP3    H123738   2.083   4.856   7.886  0.0017 -1.4761 -1.3196
  701TIP3    H223739   2.153   4.834   8.019 -2.0798 -0.8391 -0.0778
  702TIP3   OH223740   1.014   0.222   8.526  0.0602 -0.2559  0.0125
  702TIP3    H123741   1.097   0.204   8.482  0.1246 -2.3857  0.8963
  702TIP3    H223742   1.013   0.163   8.601 -2.1899 -0.1533  0.1332
  703TIP3   OH223743   2.485   3.534   0.617 -0.2980  0.0838 -0.2883
  703TIP3    H123744   2.559   3.590   0.594 -0.0124 -0.4562 -0.6972
  703TIP3    H223745   2.421   3.550   0.548 -0.5488  0.5198  0.0429
  704TIP3   OH223746   1.969   0.801   0.483 -0.5256 -0.5390  0.1320
  704TIP3    H123747   2.049   0.763   0.518  0.8675 -0.7374 -2.9458
  704TIP3    H223748   1.922   0.728   0.443 -0.8078 -0.0114 -0.5453
  705TIP3   OH223749   0.645   0.107   8.250 -0.2845 -0.3512 -0.2871
  705TIP3    H123750   0.624   0.160   8.173 -2.4598 -0.1795  0.3744
  705TIP3    H223751   0.616   0.159   8.324 -1.8812 -2.1508  0.4261
  706TIP3   OH223752   1.732   3.970   7.757 -0.2071  0.0861  0.0235
  706TIP3    H123753   1.768   4.018   7.832  0.7966 -1.3819  0.5230
  706TIP3    H223754   1.787   3.995   7.683  1.6717 -1.7496  0.6791
  707TIP3   OH223755   1.007   2.036   0.356  0.2390  0.4785  0.9126
  707TIP3    H123756   0.977   1.970   0.417 -0.2249  0.0597  0.2410
  707TIP3    H223757   0.933   2.051   0.297  0.1938  1.8718  1.2808
  708TIP3   OH223758   4.845   4.896   1.112 -0.0139 -0.0512 -0.0664
  708TIP3    H123759   4.855   4.977   1.163  1.5722 -0.4404  0.3157
  708TIP3    H223760   4.897   4.911   1.033  0.7416 -0.8803  0.2605
  709TIP3   OH223761   0.575   3.907   7.969 -0.0221 -0.3522 -0.6593
  709TIP3    H123762   0.559   3.930   8.060  2.7162 -1.7925  0.3035
  709TIP3    H223763   0.538   3.980   7.919 -0.6754  0.9796  1.6317
  710TIP3   OH223764   4.777   3.989   2.419  0.3127  0.4833 -0.2931
  710TIP3    H123765   4.770   4.081   2.392 -1.9651  0.1793 -0.9238
  710TIP3    H223766   4.696   3.971   2.466 -0.2619 -1.7639 -1.9806
  711TIP3   OH223767   0.617   0.029   7.527  0.2406  0.1996 -0.4038
  711TIP3    H123768   0.569   0.002   7.448  1.3744  0.5349 -1.2289
  711TIP3    H223769   0.559   0.005   7.599  0.0684 -2.0381 -1.2198
  712TIP3   OH223770   5.255   1.242   7.380 -0.2500 -0.3269 -0.0207
  712TIP3    H123771   5.208   1.252   7.463  1.9636 -0.4273  1.3202
  712TIP3    H223772   5.203   1.178   7.331 -1.2493 -0.7993  1.5663
  713TIP3   OH223773   4.973   0.284   7.287  0.1289 -0.1465 -0.3314
  713TIP3    H123774   5.030   0.306   7.213  0.0994  0.3170 -0.2217
  713TIP3    H223775   5.031   0.241   7.349 -0.0060 -1.2311 -0.9394
  714TIP3   OH223776   6.632   0.230   8.485 -0.1836 -0.2990  0.0411
  714TIP3    H123777   6.666   0.145   8.513  0.4397 -0.1631 -0.2821
  714TIP3    H223778   6.708   0.288   8.487 -0.8739  0.6301  1.7019
  715TIP3   OH223779   5.150   2.735   1.751 -0.3012  0.6373 -0.0449
  715TIP3    H123780   5.164   2.690   1.834 -0.9737 -1.4536 -1.0128
  715TIP3    H223781   5.238   2.762   1.724  0.2214 -0.6533  0.2756
  716TIP3   OH223782   2.079   3.798   8.938 -0.5805 -0.1228  0.6952
  716TIP3    H123783   2.108   3.707   8.946 -1.0568 -0.2905  0.5195
  716TIP3    H223784   2.093   3.819   8.846 -0.2993  0.0439  0.7738
  717TIP3   OH223785   1.269   3.628   1.797  0.2850  1.0028  0.1981
  717TIP3    H123786   1.251   3.534   1.803 -0.6497  1.2382  1.6120
  717TIP3    H223787   1.288   3.643   1.704  0.8335 -0.6365  0.0208
  718TIP3   OH223788   0.958   3.465   2.204 -0.3184  0.4488 -0.3504
  718TIP3    H123789   0.927   3.540   2.254 -2.3448  1.4243 -2.8471
  718TIP3    H223790   0.952   3.493   2.112 -1.7892 -2.9523 -1.4365
  719TIP3   OH223791   2.019   1.262   0.038  0.6073  0.2488 -0.5494
  719TIP3    H123792   2.087   1.225   0.093 -0.3916 -3.0269 -1.3012
  719TIP3    H223793   2.042   1.237  -0.051 -1.5721 -1.0945 -0.8137
  720TIP3   OH223794   0.521   4.681   7.905 -0.0621  0.4208 -0.4473
  720TIP3    H123795   0.447   4.693   7.845  0.4827  0.5736 -1.1092
  720TIP3    H223796   0.565   4.766   7.907  1.2172 -0.1606 -1.6137
  721TIP3   OH223797   3.604   2.821   0.876  0.6455 -0.0208  0.5133
  721TIP3    H123798   3.532   2.758   0.886  1.0544 -0.7243 -0.6950
  721TIP3    H223799   3.575   2.877   0.803  0.6409  0.6848  1.0542
  722TIP3   OH223800   3.645   5.540   0.950 -0.2019 -0.1334  0.3645
  722TIP3    H123801   3.623   5.611   0.890  0.8593  0.1292  0.2558
  722TIP3    H223802   3.597   5.464   0.916 -1.1919  0.4761  0.3686
  723TIP3   OH223803   4.870   2.032   8.176 -0.1484 -0.4376  0.0271
  723TIP3    H123804   4.823   1.960   8.135  0.4998 -1.3845  0.8993
  723TIP3    H223805   4.885   2.095   8.105 -0.6918 -1.1731 -0.7568
  724TIP3   OH223806   2.233   6.588   0.858  0.0890 -0.0433 -0.4344
  724TIP3    H123807   2.281   6.645   0.798  1.5810 -0.7109  0.0567
  724TIP3    H223808   2.229   6.637   0.940  1.1784 -0.4992 -0.0778
  725TIP3   OH223809   1.045   3.762   0.489 -0.3444 -0.2892  0.5138
  725TIP3    H123810   1.131   3.741   0.452 -0.0421  1.1301  0.3465
  725TIP3    H223811   1.059   3.761   0.584 -0.0056  0.4090  0.4797
  726TIP3   OH223812   5.134   2.090   1.086  0.0289 -0.0939  0.5042
  726TIP3    H123813   5.181   2.111   1.005 -1.6241  1.2715 -0.1537
  726TIP3    H223814   5.089   2.008   1.067  0.4019 -0.2678  0.3661
  727TIP3   OH223815   1.229   0.033   7.117  0.2663 -0.0250 -0.4451
  727TIP3    H123816   1.239   0.049   7.023 -2.8974  1.0517 -0.7133
  727TIP3    H223817   1.248   0.117   7.158 -2.0175  0.5947 -0.5326
  728TIP3   OH223818   6.563   4.216   6.830 -0.0860  0.5716 -0.5233
  728TIP3    H123819   6.503   4.183   6.763 -0.3074  0.0226 -0.0641
  728TIP3    H223820   6.543   4.309   6.837  0.1760  0.7090 -1.4585
  729TIP3   OH223821   2.229   5.631   8.519  0.5204 -0.0106 -0.1936
  729TIP3    H123822   2.159   5.585   8.566 -1.3193 -0.4562 -3.1381
  729TIP3    H223823   2.289   5.561   8.491  1.9612  0.3151  1.8432
  730TIP3   OH223824   2.418   5.398   1.103  0.2690 -0.1875 -0.1746
  730TIP3    H123825   2.493   5.457   1.115 -0.9193  0.9885  2.2620
  730TIP3    H223826   2.407   5.356   1.189 -1.4045 -0.8815 -0.7001
  731TIP3   OH223827   1.396   0.716   0.489 -0.0648 -0.1142 -0.2972
  731TIP3    H123828   1.428   0.799   0.525 -0.6056  0.6296 -1.4802
  731TIP3    H223829   1.413   0.652   0.558  0.6317  0.9224  0.5246
  732TIP3   OH223830   0.807   1.947   7.448 -0.0075 -0.8268  0.6459
  732TIP3    H123831   0.810   1.981   7.538  0.7825  1.5434 -0.1901
  732TIP3    H223832   0.899   1.939   7.423 -0.0128  2.8297 -1.3069
  733TIP3   OH223833   6.542   5.988   2.099 -0.8764  0.3649 -0.3037
  733TIP3    H123834   6.549   5.909   2.153  0.7296  0.2086 -0.6878
  733TIP3    H223835   6.608   6.047   2.134 -0.9372  0.8958 -1.0591
  734TIP3   OH223836   3.582   1.236   8.172  0.4625 -0.1809  0.5325
  734TIP3    H123837   3.538   1.299   8.229  1.9877  0.7717  0.6974
  734TIP3    H223838   3.510   1.186   8.131 -0.7139  0.6133  1.5717
  735TIP3   OH223839   1.719   6.546   1.069  0.3581 -0.2576 -0.3531
  735TIP3    H123840   1.749   6.510   1.152  1.8582  1.4819 -0.0827
  735TIP3    H223841   1.697   6.469   1.016  0.9955 -1.4529  1.0477
  736TIP3   OH223842   0.778   5.159   0.593 -0.5025  0.2954 -0.4692
  736TIP3    H123843   0.695   5.135   0.553  0.2198 -0.5723 -1.5094
  736TIP3    H223844   0.764   5.147   0.687 -1.3640 -0.4292 -0.6831
  737TIP3   OH223845   3.680   4.573   0.178 -0.5802 -0.5369  0.6673
  737TIP3    H123846   3.752   4.511   0.194 -2.6828 -2.8269  1.8939
  737TIP3    H223847   3.656   4.558   0.087  0.7779  0.6473  0.0720
  738TIP3   OH223848   0.130   3.895   1.040 -0.4449  0.0478 -0.0489
  738TIP3    H123849   0.055   3.842   1.065 -0.3632 -0.3185 -0.5696
  738TIP3    H223850   0.205   3.852   1.081 -0.5018  0.3436  0.3692
  739TIP3   OH223851   0.417   3.294   8.267  0.4786  0.2222 -0.0916
  739TIP3    H123852   0.376   3.365   8.318  1.5614  0.2611  0.7471
  739TIP3    H223853   0.405   3.216   8.321  0.2283 -0.0454 -0.5277
  740TIP3   OH223854   3.885   5.251   0.066  0.5967 -0.1134 -0.3910
  740TIP3    H123855   3.840   5.334   0.080 -0.1751 -0.2848 -1.6575
  740TIP3    H223856   3.814   5.187   0.054  1.1630 -0.5255 -1.7069
  741TIP3   OH223857   1.245   4.260   2.000 -0.2323 -0.3691 -0.4071
  741TIP3    H123858   1.311   4.290   2.063  2.3314 -1.2024 -2.5258
  741TIP3    H223859   1.170   4.317   2.016  0.8453  0.4754  2.3166
  742TIP3   OH223860   0.793   5.010   6.467  0.1463  0.0311  0.1853
  742TIP3    H123861   0.847   5.089   6.476 -0.9582  0.6891  1.4389
  742TIP3    H223862   0.846   4.941   6.507  0.8434  0.2569 -0.3148
  743TIP3   OH223863   0.702   5.497   8.806 -0.1256 -0.3069  0.3057
  743TIP3    H123864   0.660   5.475   8.889 -0.3343  0.5237  0.4263
  743TIP3    H223865   0.632   5.533   8.752  0.4704  1.4851  0.6566
  744TIP3   OH223866   1.733   0.427   0.870  0.0452  0.1404 -0.1935
  744TIP3    H123867   1.710   0.481   0.945 -0.8817 -1.0960  0.4494
  744TIP3    H223868   1.808   0.376   0.899  0.1476  0.1956 -0.3610
  745TIP3   OH223869   2.400   4.324   8.346 -0.4099  0.0879  0.2580
  745TIP3    H123870   2.332   4.344   8.282  0.4319  0.3491 -0.5824
  745TIP3    H223871   2.469   4.388   8.328  0.4006 -0.6816  0.5523
  746TIP3   OH223872   2.858   6.131   7.088 -0.2078 -0.0530 -0.3346
  746TIP3    H123873   2.919   6.111   7.017 -0.4842  0.3772 -0.7022
  746TIP3    H223874   2.833   6.222   7.072 -1.0389 -0.2628 -0.2551
  747TIP3   OH223875   5.191   4.338   7.677  0.1345 -0.1822  0.2195
  747TIP3    H123876   5.152   4.308   7.595  1.5085 -1.6330  0.0381
  747TIP3    H223877   5.133   4.303   7.745  0.9135 -2.1405 -0.0511
  748TIP3   OH223878   1.071   0.227   6.737 -0.4651 -0.1121  1.2312
  748TIP3    H123879   0.979   0.216   6.759 -0.7730  1.9899  1.2731
  748TIP3    H223880   1.104   0.290   6.802  0.1171  1.6678 -0.6665
  749TIP3   OH223881   4.352   6.297   8.416 -0.4806  0.0640 -0.0625
  749TIP3    H123882   4.443   6.280   8.439  0.0037  2.6535  0.2497
  749TIP3    H223883   4.302   6.271   8.494  0.0885 -0.5856  0.0833
  750TIP3   OH223884   1.460   3.537   8.335  0.3668 -0.1965 -0.2942
  750TIP3    H123885   1.552   3.510   8.334  0.3449 -0.5253  1.9425
  750TIP3    H223886   1.463   3.629   8.363 -0.0130 -0.2920  0.0565
  751TIP3   OH223887   2.552   0.865   0.003 -0.3412 -0.5137  0.0067
  751TIP3    H123888   2.606   0.800   0.046  2.8882  1.3257 -0.9595
  751TIP3    H223889   2.548   0.938   0.066  0.7249  0.4567 -1.0090
  752TIP3   OH223890   1.549   1.009   0.560 -0.2981 -0.1295 -0.3398
  752TIP3    H123891   1.494   1.079   0.524  2.0951  1.8355 -0.5241
  752TIP3    H223892   1.537   1.015   0.655 -0.7500 -0.0048 -0.4055
  753TIP3   OH223893   3.672   0.721   8.828 -0.3518 -0.0842 -0.2177
  753TIP3    H123894   3.692   0.807   8.864  0.7012 -0.3169 -0.2347
  753TIP3    H223895   3.668   0.664   8.905  0.1357 -0.2457 -0.3114
  754TIP3   OH223896   5.760   5.172   6.673  0.1139 -0.4062  0.1538
  754TIP3    H123897   5.812   5.141   6.747 -0.7279 -0.6904  0.6507
  754TIP3    H223898   5.786   5.263   6.660  0.4687 -0.4395  0.6279
  755TIP3   OH223899   2.180   6.526   1.420  0.0492 -0.2598  0.2632
  755TIP3    H123900   2.256   6.525   1.478 -0.4042 -0.6536  0.8650
  755TIP3    H223901   2.129   6.602   1.450 -0.8299 -1.2039  1.2548
  756TIP3   OH223902   4.308   0.729   1.710 -1.1025  0.2161 -0.4155
  756TIP3    H123903   4.299   0.685   1.626 -1.1557  2.4317 -1.6545
  756TIP3    H223904   4.274   0.817   1.695 -0.6346  0.8418  1.7901
  757TIP3   OH223905   4.369   0.854   7.224 -0.0231  0.2018 -0.2104
  757TIP3    H123906   4.396   0.785   7.163 -0.2630  0.0088 -0.0970
  757TIP3    H223907   4.450   0.903   7.241 -0.0435  0.5407 -1.0352
  758TIP3   OH223908   5.375   0.686   6.397 -0.0766  0.3333  0.3087
  758TIP3    H123909   5.321   0.631   6.340 -0.4728  2.6479 -1.7434
  758TIP3    H223910   5.343   0.667   6.485 -2.4711 -0.3322 -0.5992
  759TIP3   OH223911   0.393   3.490   1.384  0.4369  0.0183 -0.0060
  759TIP3    H123912   0.383   3.577   1.423  0.7314  0.2333 -0.4016
  759TIP3    H223913   0.431   3.437   1.454 -2.8170 -0.7038  1.3998
  760TIP3   OH223914   6.406   3.651   7.386 -0.5790  0.0407  0.3564
  760TIP3    H123915   6.361   3.638   7.469  1.9524 -0.8738  1.6925
  760TIP3    H223916   6.402   3.565   7.343 -1.2239  0.3096 -0.1333
  761TIP3   OH223917   0.272   4.350   6.938 -0.0127  0.5319  0.5141
  761TIP3    H123918   0.200   4.287   6.941  0.9299 -0.6116  0.0762
  761TIP3    H223919   0.269   4.386   6.849  0.9212 -0.7365 -0.0660
  762TIP3   OH223920   6.669   5.123   8.215 -0.1130 -0.0504 -0.0293
  762TIP3    H123921   6.734   5.172   8.165  1.7072 -1.1045  1.1883
  762TIP3    H223922   6.719   5.051   8.255 -2.5143 -2.5923 -1.2679
  763TIP3   OH223923   1.879   4.948   6.813 -0.1847  0.2074 -0.1406
  763TIP3    H123924   1.887   4.997   6.895  0.0871 -1.0249  0.5785
  763TIP3    H223925   1.793   4.975   6.779 -0.4621  0.4630  0.7245
  764TIP3   OH223926   5.192   1.829   1.940  0.7813 -0.4008 -0.3561
  764TIP3    H123927   5.237   1.787   2.013  0.1399  1.0767  0.9409
  764TIP3    H223928   5.105   1.789   1.939  1.3148 -1.5901 -1.3850
  765TIP3   OH223929   1.953   4.588   8.156 -0.5798 -0.0877 -0.4769
  765TIP3    H123930   1.927   4.680   8.163 -1.1093 -0.2447 -0.3739
  765TIP3    H223931   1.974   4.562   8.246 -1.0006 -0.2340 -0.4201
  766TIP3   OH223932   5.434   0.427   1.417  0.0090 -0.2538 -0.0183
  766TIP3    H123933   5.374   0.484   1.368  0.6530 -2.4756 -3.8408
  766TIP3    H223934   5.515   0.478   1.425  0.1593 -0.0486 -2.2081
  767TIP3   OH223935   1.175   3.306   7.320  0.4258  0.4210 -0.7848
  767TIP3    H123936   1.220   3.261   7.248  0.2848 -1.2364  0.1170
  767TIP3    H223937   1.242   3.313   7.388 -0.5623 -1.9865  0.5390
  768TIP3   OH223938   5.675   6.661   2.321  0.5599 -0.7608  0.1955
  768TIP3    H123939   5.739   6.701   2.262 -0.3965 -0.5137 -0.7050
  768TIP3    H223940   5.728   6.611   2.383  1.6555  0.0550 -0.0545
  769TIP3   OH223941   4.785   5.407   1.534 -0.0523  0.0334  0.2751
  769TIP3    H123942   4.737   5.434   1.456 -1.2239 -0.5214  0.7777
  769TIP3    H223943   4.720   5.409   1.604  0.1002 -2.6690  0.6119
  770TIP3   OH223944   4.573   4.648   7.002  0.2916 -0.2181  0.1976
  770TIP3    H123945   4.526   4.731   7.012 -0.1137 -0.4493  0.2437
  770TIP3    H223946   4.511   4.582   7.032 -0.1308 -0.7384 -1.7260
  771TIP3   OH223947   2.983   3.750   7.518 -0.0002 -0.2125 -0.3975
  771TIP3    H123948   2.945   3.665   7.541 -0.8196  0.3360  0.3587
  771TIP3    H223949   2.977   3.754   7.423  2.3851 -2.0601 -0.7111
  772TIP3   OH223950   3.442   2.427   6.327  0.0508 -0.5059 -0.1394
  772TIP3    H123951   3.411   2.499   6.382 -0.0930 -1.0391  0.4991
  772TIP3    H223952   3.492   2.469   6.257  2.7840  0.1227  1.9978
  773TIP3   OH223953   1.457   2.523   7.948  0.5014 -0.3542  0.0083
  773TIP3    H123954   1.363   2.510   7.943  0.3858  0.0032  1.0865
  773TIP3    H223955   1.489   2.498   7.861 -0.3818 -2.0655  0.1460
  774TIP3   OH223956   2.566   3.768   8.212 -0.3091  0.0096  0.2350
  774TIP3    H123957   2.563   3.860   8.184  2.9390  0.3354  0.5978
  774TIP3    H223958   2.632   3.728   8.156 -1.1151 -1.9395  0.6158
  775TIP3   OH223959   0.572   0.710   0.431 -0.0654  0.1393  0.7285
  775TIP3    H123960   0.537   0.727   0.344 -0.6721  1.7212  1.2632
  775TIP3    H223961   0.502   0.733   0.491 -0.3057 -2.5571  1.6478
  776TIP3   OH223962   0.672   1.388   8.225 -0.4900 -0.0695 -0.4719
  776TIP3    H123963   0.745   1.424   8.276 -0.3821 -0.9329 -0.0004
  776TIP3    H223964   0.607   1.459   8.225 -0.0749  0.3267 -0.0070
  777TIP3   OH223965   5.687   1.345   7.875  0.1735 -0.1323  0.3004
  777TIP3    H123966   5.692   1.430   7.919 -4.6914 -0.0234  1.1877
  777TIP3    H223967   5.637   1.290   7.936 -1.1896 -2.0280 -2.3541
  778TIP3   OH223968   4.003   5.974   7.809  0.4007 -0.1900  0.2621
  778TIP3    H123969   3.951   5.943   7.883  0.6490 -0.3758  0.3609
  778TIP3    H223970   4.072   5.908   7.799 -0.1348 -0.6245 -0.6885
  779TIP3   OH223971   3.516   2.228   7.927  0.1840  0.1223 -0.0428
  779TIP3    H123972   3.511   2.183   7.843  0.1081 -1.6757  0.8702
  779TIP3    H223973   3.542   2.160   7.989 -0.0788  1.3294  1.4542
  780TIP3   OH223974   1.601   3.035   0.897 -0.1327 -0.2387  0.2477
  780TIP3    H123975   1.591   2.956   0.845 -1.2355  1.1238 -1.7670
  780TIP3    H223976   1.568   3.105   0.840 -1.3375  1.3825  2.7697
  781TIP3   OH223977   2.620   4.784   7.894  0.3842  0.1125  0.2014
  781TIP3    H123978   2.568   4.846   7.843  1.1549  0.0164 -0.7367
  781TIP3    H223979   2.619   4.704   7.842 -0.9299 -0.8192  1.5938
  782TIP3   OH223980   4.111   2.325   7.522 -0.2577  0.3651  0.7179
  782TIP3    H123981   4.086   2.268   7.595 -1.8517 -0.3626 -0.3293
  782TIP3    H223982   4.028   2.343   7.477 -0.2267  4.9889  1.9471
  783TIP3   OH223983   4.170   2.230   6.290  0.7691 -0.2735  0.4416
  783TIP3    H123984   4.178   2.143   6.329 -0.7851 -0.6426  0.0136
  783TIP3    H223985   4.135   2.285   6.360 -2.6713 -1.0875 -0.4570
  784TIP3   OH223986   4.553   3.833   1.178  0.2474  0.0185  0.0216
  784TIP3    H123987   4.594   3.784   1.249 -0.2942 -0.1851  0.1969
  784TIP3    H223988   4.497   3.770   1.134  0.0800  0.3082 -0.1869
  785TIP3   OH223989   0.103   3.050   6.839 -0.4616 -0.2838  0.0237
  785TIP3    H123990   0.062   3.078   6.921  0.0938  1.3090 -0.1903
  785TIP3    H223991   0.093   2.955   6.837 -1.3927 -0.2382  1.4346
  786TIP3   OH223992   5.139   1.063   0.242  0.0445  0.1271 -0.5928
  786TIP3    H123993   5.100   1.054   0.155 -4.1034  0.5453  1.0003
  786TIP3    H223994   5.179   1.150   0.241 -0.7932  0.5216 -1.7947
  787TIP3   OH223995   6.711   5.222   6.964  0.1113 -0.0144  0.0513
  787TIP3    H123996   6.636   5.177   7.002 -0.1043  0.9068  0.7645
  787TIP3    H223997   6.734   5.170   6.888 -2.0337  0.3474 -0.9211
  788TIP3   OH223998   6.731   4.097   0.636  0.4027 -0.0045  0.0130
  788TIP3    H123999   6.809   4.135   0.676  0.8372 -0.9541  0.1116
  788TIP3    H224000   6.742   4.113   0.542  0.3636  0.4858  0.0909
  789TIP3   OH224001   2.890   2.300   7.769  0.3694 -1.2948 -0.2591
  789TIP3    H124002   2.816   2.323   7.713 -1.8143 -3.7070  1.4504
  789TIP3    H224003   2.943   2.241   7.715  1.1806  0.4945 -1.5129
  790TIP3   OH224004   1.256   1.536   8.484  0.2690 -0.0417 -0.4970
  790TIP3    H124005   1.305   1.606   8.528 -0.0207 -0.0930 -0.0840
  790TIP3    H224006   1.198   1.501   8.552  1.7469 -1.9882 -0.1265
  791TIP3   OH224007   4.855   1.092   0.696  0.4178  0.2439 -0.0639
  791TIP3    H124008   4.775   1.040   0.693  0.3923  0.2045  0.9578
  791TIP3    H224009   4.898   1.076   0.612  0.6545 -1.8049  0.4058
  792TIP3   OH224010   2.399   5.714   0.456  0.0202  0.6147 -0.1616
  792TIP3    H124011   2.425   5.622   0.444 -0.3483  0.6803 -1.7131
  792TIP3    H224012   2.474   5.764   0.424  0.3571  0.8850  0.9982
  793TIP3   OH224013   0.768   4.220   2.438  0.2919 -0.2806 -0.1870
  793TIP3    H124014   0.852   4.203   2.480  0.3274  0.0045 -0.1353
  793TIP3    H224015   0.707   4.160   2.480  1.0914 -2.9856 -2.5530
  794TIP3   OH224016   4.647   6.264   7.410 -0.8036  0.2546  0.3242
  794TIP3    H124017   4.707   6.219   7.469 -0.6069 -2.3957 -1.6787
  794TIP3    H224018   4.585   6.196   7.383 -1.4599  1.5721 -1.7358
  795TIP3   OH224019   4.389   2.704   6.208 -0.2036  0.0619  0.2260
  795TIP3    H124020   4.457   2.637   6.215  0.1271  0.1436 -1.7738
  795TIP3    H224021   4.435   2.783   6.181 -0.9179  0.4807  0.2085
  796TIP3   OH224022   2.030   4.103   7.462  0.1237  0.1013 -0.1303
  796TIP3    H124023   2.065   4.045   7.529  0.6110 -2.2688 -2.2724
  796TIP3    H224024   1.947   4.135   7.498  1.5305  0.9840  2.5664
  797TIP3   OH224025   4.419   2.228   5.812 -0.4440  0.0159 -0.1619
  797TIP3    H124026   4.353   2.170   5.850  0.0676  0.5796  1.6756
  797TIP3    H224027   4.431   2.297   5.877  2.9911 -0.8385  0.3301
  798TIP3   OH224028   4.130   3.686   0.576  0.0271 -0.0260  0.0505
  798TIP3    H124029   4.161   3.634   0.650  1.8137  1.1758  0.1965
  798TIP3    H224030   4.045   3.648   0.554  0.0543 -1.2439  1.8696
  799TIP3   OH224031   1.887   1.632   0.097  0.0778  0.2970  0.1164
  799TIP3    H124032   1.893   1.550   0.147 -2.0458 -0.4384 -0.7224
  799TIP3    H224033   1.956   1.625   0.031  0.5889 -0.3419  0.7014
  800TIP3   OH224034   3.347   3.664   0.850  0.0656 -1.1433 -0.0442
  800TIP3    H124035   3.328   3.697   0.938 -2.5149 -3.0397  0.2076
  800TIP3    H224036   3.303   3.579   0.846 -0.6024 -0.7723 -3.4575
  801TIP3   OH224037   6.242   5.634   0.456 -0.3515  0.3003 -0.6548
  801TIP3    H124038   6.237   5.558   0.513 -0.5033  0.7209 -0.0973
  801TIP3    H224039   6.243   5.598   0.367  1.6597 -0.4684 -0.3824
  802TIP3   OH224040   1.155   4.914   1.087 -0.3044 -0.4510  0.4632
  802TIP3    H124041   1.195   4.870   1.162 -1.9025 -1.5911  0.6887
  802TIP3    H224042   1.076   4.954   1.122 -1.6613 -1.9189 -0.7587
  803TIP3   OH224043   6.629   6.735   7.496 -0.1221  0.9867  0.1562
  803TIP3    H124044   6.612   6.735   7.590  0.4940 -0.6136  0.3001
  803TIP3    H224045   6.667   6.821   7.479  0.6455  0.9618  1.5517
  804TIP3   OH224046   2.217   1.922   1.721 -0.0884  0.4217  0.3422
  804TIP3    H124047   2.301   1.936   1.765 -0.3275  2.1427  0.3019
  804TIP3    H224048   2.165   1.999   1.742 -2.4598 -1.4912  2.0713
  805TIP3   OH224049   5.711   1.037   7.833  0.2586 -0.0297 -0.3537
  805TIP3    H124050   5.676   0.956   7.796 -0.1911 -0.2405  0.4983
  805TIP3    H224051   5.712   1.099   7.760  0.6761 -0.8171 -1.0297
  806TIP3   OH224052   3.638   6.723   1.489 -0.3995 -0.2959  0.1633
  806TIP3    H124053   3.699   6.715   1.562  1.4867  1.4491 -1.0912
  806TIP3    H224054   3.563   6.770   1.526 -0.1212 -0.7059  1.2872
  807TIP3   OH224055   2.365   5.843   8.319  0.0844  0.4019  0.1024
  807TIP3    H124056   2.430   5.898   8.362  0.3829 -0.1477  0.3663
  807TIP3    H224057   2.315   5.804   8.391  1.0778 -1.1263  0.0284
  808TIP3   OH224058   1.781   1.256   7.419  0.1163 -0.0067  0.0118
  808TIP3    H124059   1.858   1.241   7.364 -1.0351 -2.3699 -1.1109
  808TIP3    H224060   1.723   1.309   7.364 -0.5454 -1.3857 -0.6904
  809TIP3   OH224061   4.782   1.687   8.833 -0.1820 -0.4754  0.1221
  809TIP3    H124062   4.810   1.595   8.827 -0.4776 -0.6304  1.0164
  809TIP3    H224063   4.688   1.682   8.852 -0.1139  0.0005  0.6007
  810TIP3   OH224064   1.892   4.072   8.175 -0.0389 -0.4142 -0.2029
  810TIP3    H124065   1.937   4.132   8.234 -1.6496  1.5608 -0.8629
  810TIP3    H224066   1.882   3.991   8.225  1.6520  0.0574  0.9554
  811TIP3   OH224067   4.776   4.016   8.906  0.0117 -0.0060 -0.1523
  811TIP3    H124068   4.697   4.034   8.957  0.2091 -0.4604  0.3311
  811TIP3    H224069   4.748   4.024   8.815 -0.4918  0.2374  0.0149
  812TIP3   OH224070   2.295   3.096   7.600  0.1136  0.4544  0.3008
  812TIP3    H124071   2.238   3.025   7.628 -0.5494  1.7961  2.6825
  812TIP3    H224072   2.353   3.056   7.535 -1.4316 -1.7475  0.1548
  813TIP3   OH224073   2.361   0.013   8.490  0.1466 -0.1764  0.4295
  813TIP3    H124074   2.285   0.000   8.546  0.5467  0.2835  1.0855
  813TIP3    H224075   2.382  -0.075   8.457 -1.3245 -0.1560 -0.6474
  814TIP3   OH224076   4.632   1.077   1.362  0.8056  0.0407 -0.1746
  814TIP3    H124077   4.568   1.147   1.372 -0.3182 -0.9720  0.0011
  814TIP3    H224078   4.655   1.078   1.269 -0.4396 -0.3709 -0.5103
  815TIP3   OH224079   1.399   3.760   2.221 -0.5209  0.0313  0.2195
  815TIP3    H124080   1.415   3.791   2.310 -0.1594 -0.0525  0.1878
  815TIP3    H224081   1.308   3.732   2.221 -1.3570  2.5169 -0.1668
  816TIP3   OH224082   1.598   3.469   7.744 -0.0471 -0.4159 -0.6047
  816TIP3    H124083   1.595   3.403   7.675 -2.0236 -2.0328  0.9102
  816TIP3    H224084   1.681   3.453   7.789  0.2201 -0.7991 -1.2238
  817TIP3   OH224085   1.813   5.546   8.558 -0.2673 -0.0124  0.4058
  817TIP3    H124086   1.799   5.631   8.517 -0.6009 -0.0519  0.4307
  817TIP3    H224087   1.749   5.489   8.515 -2.5207  0.5172  2.7833
  818TIP3   OH224088   6.273   6.021   8.316  0.1335 -0.1247  0.5298
  818TIP3    H124089   6.353   5.994   8.362  0.2078  0.6492  0.8798
  818TIP3    H224090   6.267   5.963   8.240  1.7211  0.6411 -0.2110
  819TIP3   OH224091   4.726   5.005   8.465 -0.3406  0.4383 -0.0706
  819TIP3    H124092   4.671   4.945   8.414 -1.1118  0.8071  0.3016
  819TIP3    H224093   4.780   4.948   8.519 -0.4170  0.0636 -0.3868
  820TIP3   OH224094   3.012   2.341   7.120  0.2770 -1.1359  0.1301
  820TIP3    H124095   3.036   2.319   7.210 -3.7121 -0.6709  1.4929
  820TIP3    H224096   2.996   2.256   7.078  4.0651 -1.5029 -0.9846
  821TIP3   OH224097   0.419   2.055   6.829 -0.4358  0.2789 -0.3703
  821TIP3    H124098   0.427   2.147   6.807 -1.6177  0.2837 -0.8573
  821TIP3    H224099   0.509   2.025   6.842 -0.1082  1.8236  1.2451
  822TIP3   OH224100   1.885   4.710   0.108  0.0504  0.2546  0.5057
  822TIP3    H124101   1.832   4.636   0.080  0.3886 -0.2878  1.2782
  822TIP3    H224102   1.964   4.671   0.145  1.4376  1.0418 -1.4095
  823TIP3   OH224103   6.186   5.278   0.130  0.7579 -0.1774 -0.3681
  823TIP3    H124104   6.203   5.283   0.036 -0.6520  0.0631 -0.6432
  823TIP3    H224105   6.092   5.297   0.138  1.0815  0.9838  1.2017
  824TIP3   OH224106   6.007   5.937   1.056  0.2177  0.3616  0.3468
  824TIP3    H124107   5.980   5.875   0.988 -0.4223 -0.7263  1.5553
  824TIP3    H224108   6.094   5.908   1.081 -0.0824 -0.0577  0.9136
  825TIP3   OH224109   2.936   1.340   1.178 -0.1554  0.3761  0.1447
  825TIP3    H124110   2.857   1.385   1.151  0.1912  0.8015 -0.1760
  825TIP3    H224111   2.920   1.248   1.157 -1.2422  0.1712  1.6813
  826TIP3   OH224112   2.183   3.734   1.291 -0.2727 -0.6561 -0.3878
  826TIP3    H124113   2.182   3.638   1.286 -1.2005 -0.6297 -0.9585
  826TIP3    H224114   2.091   3.758   1.303  0.1878  0.0553  2.4476
  827TIP3   OH224115   1.675   5.246   1.119  0.2832 -0.1166  0.2291
  827TIP3    H124116   1.766   5.221   1.139 -0.4966 -2.6708  1.0120
  827TIP3    H224117   1.658   5.321   1.174  2.5424  1.8710 -1.5302
  828TIP3   OH224118   3.158   2.745   8.330  0.5349 -0.0756 -0.3827
  828TIP3    H124119   3.201   2.814   8.279 -1.3598  0.6694 -1.0523
  828TIP3    H224120   3.078   2.725   8.281 -0.9947  0.1309  1.9143
  829TIP3   OH224121   3.292   4.084   7.660 -0.1436  0.3161  0.0064
  829TIP3    H124122   3.243   4.005   7.684 -1.9321  1.0206 -1.1022
  829TIP3    H224123   3.317   4.069   7.568  1.0256  0.3329  0.3082
  830TIP3   OH224124   1.744   5.583   0.063 -0.0156  0.5237 -0.1319
  830TIP3    H124125   1.671   5.631   0.103  0.5634  1.2523  0.0794
  830TIP3    H224126   1.812   5.584   0.130  0.0080 -0.6146 -0.1275
  831TIP3   OH224127   0.216   1.438   8.620  0.2550  0.3694 -0.2123
  831TIP3    H124128   0.312   1.441   8.621  0.2425  1.0520 -0.4844
  831TIP3    H224129   0.193   1.439   8.527  0.0045 -0.8546 -0.1728
  832TIP3   OH224130   3.521   6.186   7.208 -0.4923  0.1486  0.0151
  832TIP3    H124131   3.616   6.174   7.198 -0.6515  0.4746 -2.3001
  832TIP3    H224132   3.511   6.280   7.226 -0.3422 -0.1057  1.6410
  833TIP3   OH224133   1.225   3.242   0.882 -0.9363  0.1061  0.0378
  833TIP3    H124134   1.134   3.242   0.850 -0.0435 -2.0510 -2.9703
  833TIP3    H224135   1.258   3.329   0.858 -1.0009 -0.6307 -3.2345
  834TIP3   OH224136   5.446   1.218   1.549 -0.4615 -0.5920 -0.3358
  834TIP3    H124137   5.540   1.234   1.561 -0.6443  0.1924  0.1765
  834TIP3    H224138   5.429   1.244   1.458 -0.2833 -0.1562 -0.2514
  835TIP3   OH224139   0.969   3.266   0.698  0.9388  0.1012  0.2649
  835TIP3    H124140   0.979   3.336   0.762 -1.0020  1.1757 -0.5091
  835TIP3    H224141   0.990   3.307   0.614 -1.2185  0.1223 -0.3266
  836TIP3   OH224142   5.241   5.916   7.111 -0.2548 -0.1810 -0.3882
  836TIP3    H124143   5.172   5.885   7.052  0.1704  0.7608 -1.3847
  836TIP3    H224144   5.199   5.986   7.161 -0.3316 -0.3411 -0.2244
  837TIP3   OH224145   6.067   0.524   7.381  0.2462  0.7306  0.1778
  837TIP3    H124146   5.982   0.565   7.397 -0.3572 -0.3253 -0.1625
  837TIP3    H224147   6.081   0.467   7.457  1.3757  2.0090  0.9586
  838TIP3   OH224148   3.220   4.581   0.575 -0.4551 -0.0179 -0.4319
  838TIP3    H124149   3.241   4.586   0.668  0.4379 -0.1634 -0.6209
  838TIP3    H224150   3.268   4.654   0.535 -1.9484  0.9247 -0.5943
  839TIP3   OH224151   3.948   4.539   8.729 -0.0972 -0.2905  0.0683
  839TIP3    H124152   3.903   4.619   8.701 -0.5709 -0.5567  0.0592
  839TIP3    H224153   3.924   4.528   8.821 -0.2097 -0.5424  0.0091
  840TIP3   OH224154   0.614   6.634   1.654  0.3457 -0.0490 -0.0965
  840TIP3    H124155   0.656   6.645   1.740  0.0705  1.0108 -0.0864
  840TIP3    H224156   0.592   6.723   1.627  0.5556 -0.3616 -1.3384
  841TIP3   OH224157   6.130   4.638   8.578 -0.4745 -0.3720  0.2721
  841TIP3    H124158   6.146   4.733   8.579 -0.5784 -0.3430 -0.4728
  841TIP3    H224159   6.061   4.625   8.643  1.3497 -0.2897  2.3418
  842TIP3   OH224160   1.510   3.195   8.495  0.0225  0.2360  0.4568
  842TIP3    H124161   1.547   3.269   8.542 -2.0155 -0.5566  3.6184
  842TIP3    H224162   1.576   3.127   8.501  0.3133  0.5649  1.0593
  843TIP3   OH224163   3.400   2.966   6.687 -0.0269 -0.1733  0.1250
  843TIP3    H124164   3.380   2.938   6.598  1.1722 -0.4841 -0.0622
  843TIP3    H224165   3.325   2.938   6.739 -0.7931  0.1270 -0.8041
  844TIP3   OH224166   2.593   4.119   6.390 -0.0221 -0.2947 -0.2339
  844TIP3    H124167   2.560   4.030   6.403  0.0625 -0.1454  1.1220
  844TIP3    H224168   2.671   4.124   6.444  0.7691  0.1831 -1.3814
  845TIP3   OH224169   3.730   6.028   0.444 -0.0688  0.3902  0.3358
  845TIP3    H124170   3.734   6.098   0.379  1.7699  0.6429  0.6616
  845TIP3    H224171   3.800   6.049   0.506  0.5625 -1.7342  0.4255
  846TIP3   OH224172   6.196   1.338   0.461  0.3231 -0.2821 -0.6267
  846TIP3    H124173   6.145   1.314   0.538  0.8126  0.9998  0.1286
  846TIP3    H224174   6.132   1.376   0.400  0.3279  1.4149  0.3544
  847TIP3   OH224175   5.000   5.897   0.749  0.3466 -0.2164  0.1530
  847TIP3    H124176   4.971   5.948   0.825 -0.5577 -0.6705  0.1310
  847TIP3    H224177   5.040   5.961   0.690 -1.1165  0.5400 -0.0537
  848TIP3   OH224178   2.746   0.487   1.035  0.2963  0.2825  0.0473
  848TIP3    H124179   2.826   0.437   1.052 -0.6994 -1.2588  0.3695
  848TIP3    H224180   2.763   0.573   1.074  1.1722 -0.5498  1.6128
  849TIP3   OH224181   2.214   1.455   8.157 -0.2039  0.2779  0.0631
  849TIP3    H124182   2.160   1.468   8.079  0.2474  0.4310 -0.2265
  849TIP3    H224183   2.154   1.417   8.222 -0.8379  1.1192 -0.0146
  850TIP3   OH224184   4.973   2.229   7.966 -1.3269 -0.4007 -0.1626
  850TIP3    H124185   5.062   2.221   7.930 -1.5583  2.0379 -1.4704
  850TIP3    H224186   4.916   2.200   7.895 -1.6525 -0.9823  0.3197
  851TIP3   OH224187   1.539   1.482   0.451  0.1702  0.0895 -0.1320
  851TIP3    H124188   1.559   1.389   0.461  0.7377  0.1962 -0.2338
  851TIP3    H224189   1.518   1.512   0.540 -0.7349 -0.2912 -0.2079
  852TIP3   OH224190   3.239   2.771   7.434 -0.5590 -0.5113 -0.0979
  852TIP3    H124191   3.294   2.694   7.443 -1.8693 -1.5068 -0.3491
  852TIP3    H224192   3.192   2.757   7.352 -0.0010  1.1015 -0.7291
  853TIP3   OH224193   5.494   2.586   7.955  0.3581  0.0496  0.0869
  853TIP3    H124194   5.488   2.509   7.898  0.6673  0.2716 -0.2516
  853TIP3    H224195   5.430   2.570   8.024  0.3241 -0.4475 -0.0577
  854TIP3   OH224196   5.293   0.005   8.458 -0.6019 -0.2959  0.5433
  854TIP3    H124197   5.301   0.035   8.368 -0.9923  0.6032  0.7941
  854TIP3    H224198   5.347   0.067   8.508  0.1934 -1.2164  0.8490
  855TIP3   OH224199   4.038   3.881   7.962  0.6194  0.2523 -0.2274
  855TIP3    H124200   3.964   3.928   7.925 -0.7359 -1.2648  0.4328
  855TIP3    H224201   4.065   3.934   8.037  0.7428  1.2267 -0.9435
  856TIP3   OH224202   3.706   4.098   8.230 -0.0131  0.1887  0.2373
  856TIP3    H124203   3.676   4.088   8.320  0.1539 -0.2400  0.2484
  856TIP3    H224204   3.645   4.046   8.178  0.4455 -0.3326  0.2118
  857TIP3   OH224205   2.780   3.632   1.694 -0.0932  0.0369  0.9240
  857TIP3    H124206   2.874   3.648   1.699 -0.0578 -0.3009  1.3440
  857TIP3    H224207   2.742   3.686   1.764 -0.3638  1.2647 -0.1236
  858TIP3   OH224208   1.346   6.618   8.363 -0.3985 -0.2921  0.4501
  858TIP3    H124209   1.351   6.559   8.288 -0.1799 -0.2661  0.4434
  858TIP3    H224210   1.286   6.687   8.337  1.3336  0.9154 -0.5339
  859TIP3   OH224211   6.561   6.342   0.810  0.5596  0.3830 -0.4929
  859TIP3    H124212   6.528   6.291   0.884  2.0463  0.7905  0.4953
  859TIP3    H224213   6.491   6.337   0.744 -0.4234 -0.7219  0.5868
  860TIP3   OH224214   3.568   4.500   7.216 -0.1485 -0.4836  0.4272
  860TIP3    H124215   3.493   4.440   7.224 -1.5331  1.2529  1.1631
  860TIP3    H224216   3.541   4.563   7.149 -0.2194  1.2802  2.0102
  861TIP3   OH224217   0.628   3.417   0.374 -0.0660 -0.1633  0.1240
  861TIP3    H124218   0.606   3.505   0.344  0.8861  0.1944  0.4342
  861TIP3    H224219   0.699   3.389   0.315 -0.5615 -0.8560 -0.1698
  862TIP3   OH224220   0.074   1.026   0.583 -0.6653  0.3962  0.3533
  862TIP3    H124221   0.052   0.938   0.613 -0.5334 -0.5908 -2.1565
  862TIP3    H224222  -0.010   1.064   0.558 -0.6401  0.6976  0.7258
  863TIP3   OH224223   5.087   5.292   0.794  0.0452 -0.1239  0.0735
  863TIP3    H124224   5.180   5.306   0.778  0.1429 -0.6828  0.1509
  863TIP3    H224225   5.076   5.311   0.887 -0.1767  1.2650 -0.2054
  864TIP3   OH224226   0.688   3.877   8.302  0.0688 -0.2694 -0.1821
  864TIP3    H124227   0.680   3.893   8.396 -0.3637  1.9722 -0.5247
  864TIP3    H224228   0.656   3.788   8.289 -1.0494 -0.1745  1.6396
  865TIP3   OH224229   6.375   2.899   8.597 -0.0484 -0.1968 -0.3434
  865TIP3    H124230   6.431   2.831   8.561  0.3511 -0.6712  1.0947
  865TIP3    H224231   6.426   2.980   8.589 -1.0240  0.2468 -3.2287
  866TIP3   OH224232   0.010   2.403   1.620 -0.0855 -0.0775  0.3371
  866TIP3    H124233  -0.026   2.437   1.702 -2.5617 -0.7195 -0.3916
  866TIP3    H224234   0.029   2.481   1.568 -2.9361  0.3800 -0.1955
  867TIP3   OH224235   2.725   1.405   8.033 -0.2186  0.3034  0.3444
  867TIP3    H124236   2.759   1.319   8.058  0.0273 -0.2238 -1.6224
  867TIP3    H224237   2.644   1.414   8.083  1.3444  0.3695  3.0270
  868TIP3   OH224238   5.107   3.675   1.302 -0.0371 -1.0517 -0.1812
  868TIP3    H124239   5.092   3.581   1.314 -1.1294 -1.0064 -1.0206
  868TIP3    H224240   5.040   3.716   1.356  0.9089 -0.7304  0.7700
  869TIP3   OH224241   0.643   2.776   7.329 -0.3059 -0.0574  0.6568
  869TIP3    H124242   0.679   2.863   7.350  0.0938 -0.1189  0.2388
  869TIP3    H224243   0.657   2.724   7.408  0.4062 -0.0398  0.5431
  870TIP3   OH224244   0.949   1.896   8.560 -0.3632 -0.0152 -0.1447
  870TIP3    H124245   0.955   1.992   8.552  0.9680  0.0230  0.9374
  870TIP3    H224246   0.983   1.878   8.648 -1.4045 -1.4231 -0.0052
  871TIP3   OH224247   3.024   4.026   7.016  0.8286 -0.5213 -0.1396
  871TIP3    H124248   3.041   4.103   7.071 -0.0742 -0.9136  0.7065
  871TIP3    H224249   2.976   4.061   6.941  0.4963 -0.2477  0.1980
  872TIP3   OH224250   4.201   2.019   0.274  0.0292 -0.7366 -0.1658
  872TIP3    H124251   4.243   1.982   0.351 -0.2873  0.1131  0.4364
  872TIP3    H224252   4.133   1.955   0.251 -1.1002 -0.1722  1.3872
  873TIP3   OH224253   3.197   4.913   1.663  0.2061  0.1386  0.3211
  873TIP3    H124254   3.164   4.954   1.743  0.6615 -2.0714  1.7380
  873TIP3    H224255   3.144   4.951   1.593  0.0014  2.3933  1.5782
  874TIP3   OH224256   0.194   2.435   0.732 -0.8800  0.0441 -0.5216
  874TIP3    H124257   0.260   2.366   0.734 -0.5964  0.3100 -0.4827
  874TIP3    H224258   0.135   2.415   0.804 -1.1643 -0.5080 -0.9020
  875TIP3   OH224259   6.290   2.418   0.748 -0.4419  0.6346 -0.6032
  875TIP3    H124260   6.212   2.457   0.787 -1.4663  0.6682 -2.5595
  875TIP3    H224261   6.362   2.475   0.776 -1.3923  1.7987 -0.4395
  876TIP3   OH224262   0.988   4.109   1.958 -0.4311 -0.0199  0.3111
  876TIP3    H124263   0.897   4.140   1.956 -0.4106  0.2618  2.0209
  876TIP3    H224264   1.037   4.182   1.996  0.1869 -0.8549  1.1617
  877TIP3   OH224265   3.051   4.966   7.056 -0.2024  0.0530 -0.2360
  877TIP3    H124266   3.059   4.977   6.961  1.3325  1.1458 -0.0222
  877TIP3    H224267   3.119   4.904   7.079  2.7940  3.3403  0.6477
  878TIP3   OH224268   2.065   1.853   7.372 -0.2310  0.5650  0.6882
  878TIP3    H124269   2.061   1.813   7.285 -0.7640  0.9720  0.5229
  878TIP3    H224270   1.999   1.805   7.423 -1.1489  1.4750  0.3825
  879TIP3   OH224271   5.499   3.701   1.439  0.1919  0.7060  0.1658
  879TIP3    H124272   5.439   3.742   1.377  0.0496  0.1849 -0.0480
  879TIP3    H224273   5.491   3.754   1.518  0.0649  1.1299 -0.1286
  880TIP3   OH224274   3.671   6.474   7.761 -0.3860 -0.1429 -0.3933
  880TIP3    H124275   3.648   6.384   7.786 -0.6197  0.0817  0.2327
  880TIP3    H224276   3.752   6.466   7.712 -1.0752 -0.8249 -1.4688
  881TIP3   OH224277   1.481   5.046   1.130  0.5407  0.2339  0.0737
  881TIP3    H124278   1.524   5.131   1.117  0.1329  0.4663  0.1865
  881TIP3    H224279   1.510   4.992   1.057  0.6406  0.5434 -0.1176
  882TIP3   OH224280   5.286   6.455   8.199  0.6260 -0.0304 -0.2163
  882TIP3    H124281   5.210   6.398   8.207 -0.5979  1.6574  0.8100
  882TIP3    H224282   5.315   6.469   8.289  0.7975  1.0963 -0.4336
  883TIP3   OH224283   3.882   2.265   6.195  0.1617 -0.1059  0.4111
  883TIP3    H124284   3.879   2.224   6.109  0.6048 -1.9152  1.1968
  883TIP3    H224285   3.968   2.241   6.231 -0.9114 -1.5132  2.2712
  884TIP3   OH224286   1.653   2.902   6.561  0.0285 -0.1399  0.2253
  884TIP3    H124287   1.693   2.959   6.495 -0.2378 -0.2664 -0.0480
  884TIP3    H224288   1.611   2.833   6.510  0.1183 -0.4310  0.5453
  885TIP3   OH224289   2.313   3.221   8.212 -0.2610 -0.1194 -0.3194
  885TIP3    H124290   2.390   3.275   8.193 -0.6158  0.5368  0.0788
  885TIP3    H224291   2.240   3.270   8.175 -0.6979  0.1339  0.8211
  886TIP3   OH224292   2.032   3.676   7.267 -0.2220  0.5885  0.4061
  886TIP3    H124293   2.010   3.667   7.174 -0.4787  1.6131  0.3636
  886TIP3    H224294   1.997   3.761   7.292  0.0606  0.4241  1.3882
  887TIP3   OH224295   0.464   6.752   7.307  0.0010  0.2605  0.1417
  887TIP3    H124296   0.536   6.736   7.246 -0.9947  1.2227 -1.3902
  887TIP3    H224297   0.392   6.697   7.274 -0.5031  0.6695  0.5312
  888TIP3   OH224298   4.143   4.415   8.324 -0.0814  0.3216  0.2565
  888TIP3    H124299   4.082   4.355   8.280  0.1970  1.0394 -1.1629
  888TIP3    H224300   4.138   4.390   8.417  0.9100 -2.7205 -0.3644
  889TIP3   OH224301   1.582   0.782   7.463  0.0731 -0.1859 -0.5650
  889TIP3    H124302   1.610   0.861   7.509 -0.9417 -0.2490  0.1914
  889TIP3    H224303   1.641   0.776   7.387  0.1877  1.2646 -0.6103
  890TIP3   OH224304   2.924   2.959   8.921  0.1736  0.3909 -0.4528
  890TIP3    H124305   2.831   2.960   8.902  0.4220 -2.2835 -2.3245
  890TIP3    H224306   2.929   2.930   9.013 -0.8881 -3.4119 -1.4292
  891TIP3   OH224307   1.115   6.214   8.445  0.8546 -0.0110  0.6678
  891TIP3    H124308   1.062   6.135   8.453  1.8699 -0.7149  0.5729
  891TIP3    H224309   1.056   6.279   8.407  0.1606 -0.8756  0.2485
  892TIP3   OH224310   0.116   1.183   8.070 -0.4346 -0.1477 -0.1689
  892TIP3    H124311   0.145   1.094   8.052  0.4874  0.0394  0.3071
  892TIP3    H224312   0.035   1.172   8.121  0.3686 -0.7501  1.0419
  893TIP3   OH224313   6.606   5.187   8.599  0.2304  0.2148  0.2622
  893TIP3    H124314   6.545   5.133   8.651 -0.0473 -1.5618 -1.7557
  893TIP3    H224315   6.690   5.142   8.607  0.2322  0.0539 -0.6237
  894TIP3   OH224316   4.112   4.479   7.838  0.0911  0.0463  0.3197
  894TIP3    H124317   4.027   4.435   7.846 -0.3488  1.0120  1.3269
  894TIP3    H224318   4.109   4.521   7.752 -1.0319  1.1555  0.8600
  895TIP3   OH224319   3.458   3.870   8.598 -0.4718  0.0108 -0.1675
  895TIP3    H124320   3.380   3.818   8.580  0.6479 -1.4629 -1.0478
  895TIP3    H224321   3.490   3.838   8.682 -1.2881  1.2535  0.6380
  896TIP3   OH224322   4.843   2.091   7.758  0.2670  0.4094 -0.0825
  896TIP3    H124323   4.753   2.064   7.776  0.7505 -0.6515  0.9043
  896TIP3    H224324   4.843   2.118   7.666 -1.1401  0.8343  0.0255
  897TIP3   OH224325   4.725   2.418   7.092 -0.0106  0.4125 -0.0460
  897TIP3    H124326   4.756   2.334   7.057  0.7515  1.1338 -1.1383
  897TIP3    H224327   4.639   2.430   7.053  0.3139  0.6204 -0.7058
  898TIP3   OH224328   0.749   2.761   1.202 -0.1213 -0.1975 -0.6254
  898TIP3    H124329   0.787   2.846   1.178  1.3939 -0.6672  0.0146
  898TIP3    H224330   0.713   2.727   1.121  0.3154  0.5372 -1.1361
  899TIP3   OH224331   4.248   0.582   8.895  0.1502  0.4245  0.3093
  899TIP3    H124332   4.163   0.545   8.921 -0.9587  3.1162  0.9311
  899TIP3    H224333   4.275   0.530   8.819 -1.5472 -1.1516  0.7002
  900TIP3   OH224334   4.830   2.033   8.460  0.2198  0.0455  0.3338
  900TIP3    H124335   4.881   2.031   8.379 -0.2024 -1.4109  0.0789
  900TIP3    H224336   4.796   1.944   8.470  0.0069  0.2691  1.9542
  901TIP3   OH224337   3.888   2.903   1.190 -0.2763  0.8046  0.4656
  901TIP3    H124338   3.948   2.904   1.265  3.0871  1.3631 -2.0166
  901TIP3    H224339   3.818   2.964   1.214 -0.2283 -0.1917  3.6873
  902TIP3   OH224340   5.839   1.277   0.035 -0.0304  0.0591 -0.2530
  902TIP3    H124341   5.846   1.289   0.129  0.2934  0.4913 -0.3308
  902TIP3    H224342   5.764   1.331   0.009 -0.4662 -0.4918 -0.1692
  903TIP3   OH224343   3.602   2.240   6.674 -0.2071  0.0614  0.1621
  903TIP3    H124344   3.647   2.248   6.590  0.7818  0.8187  0.7408
  903TIP3    H224345   3.639   2.161   6.714 -0.2875  0.0005  0.1167
  904TIP3   OH224346   1.014   1.500   8.650  0.2603  0.1171 -0.3510
  904TIP3    H124347   1.060   1.551   8.716  0.0637  0.8413 -0.7516
  904TIP3    H224348   1.016   1.410   8.682  1.4626  0.2218 -0.0987
  905TIP3   OH224349   6.449   4.821   0.867  0.4563  0.3533 -0.0500
  905TIP3    H124350   6.380   4.878   0.901 -0.0304 -0.5424  0.5068
  905TIP3    H224351   6.470   4.856   0.781 -0.1894  1.0643  0.0767
  906TIP3   OH224352   3.328   5.110   0.919 -0.5603 -0.0666 -0.4331
  906TIP3    H124353   3.280   5.108   1.002  0.6223  2.7467  0.4367
  906TIP3    H224354   3.396   5.042   0.930 -0.9673 -0.3393  0.5260
  907TIP3   OH224355   3.140   2.924   0.914  0.3307 -0.0657 -0.0192
  907TIP3    H124356   3.189   2.855   0.960 -0.7208 -0.6797  0.2174
  907TIP3    H224357   3.056   2.883   0.892 -0.2217  1.0675 -0.0879
  908TIP3   OH224358   2.045   0.357   7.714  0.2235  0.1904  0.6121
  908TIP3    H124359   2.089   0.320   7.791  1.7051  1.6347  0.5055
  908TIP3    H224360   2.101   0.333   7.640 -0.9394 -0.7695  0.0081
  909TIP3   OH224361   2.214   0.348   1.238 -0.6161  0.3112  0.2313
  909TIP3    H124362   2.250   0.433   1.212 -1.0894  0.7244  0.9194
  909TIP3    H224363   2.283   0.285   1.216 -0.0551  0.9286  0.2109
  910TIP3   OH224364   3.015   3.910   0.506 -0.1516 -0.5397 -0.4127
  910TIP3    H124365   2.950   3.980   0.501 -0.0278 -0.4404 -0.6270
  910TIP3    H224366   3.012   3.881   0.597  0.6460  0.5547 -0.0079
  911TIP3   OH224367   5.984   5.046   7.583 -1.4741  0.2154 -0.4638
  911TIP3    H124368   5.969   4.999   7.665 -1.2143 -0.1300 -0.6133
  911TIP3    H224369   5.907   5.102   7.573 -0.9894  1.1140  0.5985
  912TIP3   OH224370   2.729   2.144   8.438 -0.0070 -0.0005 -0.0406
  912TIP3    H124371   2.695   2.122   8.351 -2.4650  2.0934  0.2819
  912TIP3    H224372   2.708   2.067   8.492  0.6238 -0.8950 -1.0235
  913TIP3   OH224373   3.434   2.170   0.870  0.2854 -0.7108  0.6843
  913TIP3    H124374   3.367   2.167   0.802  1.1895 -0.0224 -0.2638
  913TIP3    H224375   3.490   2.093   0.851  0.8490 -0.2179  0.2942
  914TIP3   OH224376   2.335   4.668   0.005 -0.0545  0.5357 -0.1683
  914TIP3    H124377   2.425   4.681   0.036  0.8502 -0.1541 -2.3189
  914TIP3    H224378   2.332   4.714  -0.079 -1.3093 -0.5593 -0.7574
  915TIP3   OH224379   5.499   1.047   0.876 -0.7539 -0.1059 -0.2136
  915TIP3    H124380   5.590   1.045   0.903 -0.4897  1.3940 -0.9115
  915TIP3    H224381   5.450   1.043   0.958 -0.0801 -1.0065  0.1604
  916TIP3   OH224382   5.229   0.011   8.172  0.5108  0.7509  0.1361
  916TIP3    H124383   5.160  -0.047   8.140  0.0657  1.8779 -1.0623
  916TIP3    H224384   5.310  -0.040   8.164 -0.2762 -1.2385  3.1988
  917TIP3   OH224385   1.052   4.285   8.698 -0.2338 -0.7400  0.1688
  917TIP3    H124386   1.061   4.297   8.793 -0.6148  0.7556  0.0489
  917TIP3    H224387   0.957   4.280   8.684 -0.2155 -0.1416 -0.2035
  918TIP3   OH224388   4.899   1.555   8.260 -0.6066 -0.6351 -0.3993
  918TIP3    H124389   4.814   1.585   8.229 -0.6084 -0.5417 -0.3031
  918TIP3    H224390   4.948   1.635   8.281 -1.4613 -0.6929  2.1726
  919TIP3   OH224391   5.826   2.303   0.452  0.2091 -0.4545  0.1312
  919TIP3    H124392   5.771   2.381   0.454 -0.0381 -0.6328  0.2774
  919TIP3    H224393   5.891   2.318   0.521  1.6134  0.6745 -1.3450
  920TIP3   OH224394   5.517   4.533   7.528 -0.1357  0.0832  0.1550
  920TIP3    H124395   5.550   4.621   7.548 -1.6142  0.4643  1.0796
  920TIP3    H224396   5.433   4.548   7.485 -0.0108 -0.8824 -0.4632
  921TIP3   OH224397   3.292   5.223   1.726 -0.4294 -0.3806  0.0382
  921TIP3    H124398   3.200   5.242   1.708 -0.2166  0.1620 -0.4884
  921TIP3    H224399   3.340   5.294   1.684  0.2177 -0.4908  0.5794
  922TIP3   OH224400   4.810   4.767   6.424  0.2953  0.1217  0.4884
  922TIP3    H124401   4.902   4.761   6.399  0.0873 -2.4143  0.0154
  922TIP3    H224402   4.763   4.777   6.341 -0.0460 -2.9264  0.1878
  923TIP3   OH224403   5.166   3.519   8.552  0.5244 -0.0828  0.2119
  923TIP3    H124404   5.259   3.536   8.537  1.1221 -2.3262  0.9302
  923TIP3    H224405   5.155   3.531   8.646  0.7909 -2.4831  0.6097
  924TIP3   OH224406   5.732   5.373   1.234 -0.2334  0.2381  0.2116
  924TIP3    H124407   5.690   5.321   1.165  0.3063  0.9901 -0.7212
  924TIP3    H224408   5.673   5.446   1.249  0.2710  0.7978 -0.4387
  925TIP3   OH224409   2.307   3.810   7.151 -0.7461 -0.1391 -0.5937
  925TIP3    H124410   2.246   3.748   7.110 -0.3687 -1.2483  0.4653
  925TIP3    H224411   2.295   3.891   7.102 -2.7057 -0.4746 -0.7472
  926TIP3   OH224412   5.147   2.431   8.980  1.0608 -0.1871  0.2347
  926TIP3    H124413   5.122   2.483   9.057  0.6282 -1.0805  0.7072
  926TIP3    H224414   5.212   2.370   9.013  1.7626  0.2098 -0.3792
  927TIP3   OH224415   0.634   1.255   2.472 -0.6337  0.0388 -0.0753
  927TIP3    H124416   0.572   1.199   2.425 -0.0230 -1.1403  0.4678
  927TIP3    H224417   0.714   1.202   2.478 -0.3480  0.5872  1.3242
  928TIP3   OH224418   2.083   6.231   8.593  0.1152 -0.6359  0.3618
  928TIP3    H124419   2.028   6.162   8.556  1.5925 -2.0877  0.7835
  928TIP3    H224420   2.050   6.242   8.683 -0.9133  0.1260 -0.0796
  929TIP3   OH224421   4.437   5.967   6.929 -0.4440  0.4089 -0.7413
  929TIP3    H124422   4.453   6.054   6.894  0.4062 -0.1720 -1.8757
  929TIP3    H224423   4.342   5.961   6.938 -0.4680  1.6989  0.0637
  930TIP3   OH224424   1.782   4.274   8.589  0.4704 -0.5161 -1.2011
  930TIP3    H124425   1.733   4.264   8.671  0.0818 -2.4694 -1.6197
  930TIP3    H224426   1.771   4.366   8.566 -2.0676 -0.6170 -0.6746
  931TIP3   OH224427   3.634   4.989   1.691  0.6527 -0.0957  0.2458
  931TIP3    H124428   3.572   4.990   1.618  0.9228 -2.2568 -0.0974
  931TIP3    H224429   3.588   4.943   1.761  0.9848  0.5309  0.8945
  932TIP3   OH224430   3.459   3.175   8.865 -0.5817  0.8083 -0.1790
  932TIP3    H124431   3.370   3.169   8.830 -0.0672 -0.7890 -1.3616
  932TIP3    H224432   3.474   3.089   8.906  0.0823  1.4145  0.9004
  933TIP3   OH224433   2.625   5.220   8.372 -0.3056  0.5379 -0.0090
  933TIP3    H124434   2.543   5.188   8.409 -0.0607 -0.2175 -0.0890
  933TIP3    H224435   2.606   5.234   8.279 -0.4831  0.8684  0.0770
  934TIP3   OH224436   4.546   5.363   7.320  0.2105 -0.8184  0.0893
  934TIP3    H124437   4.583   5.431   7.264  1.1286 -1.4574 -0.0999
  934TIP3    H224438   4.509   5.300   7.259 -0.2462 -0.7120  0.2539
  935TIP3   OH224439   4.412   3.288   0.683  0.9984  0.0718  1.0001
  935TIP3    H124440   4.496   3.288   0.637  0.5309  0.8731  0.1179
  935TIP3    H224441   4.351   3.328   0.621  0.1222  0.1839  1.9170
  936TIP3   OH224442   3.761   1.139   7.374 -0.3773 -0.5810  0.5274
  936TIP3    H124443   3.769   1.234   7.388  1.2671 -0.5973 -0.0476
  936TIP3    H224444   3.668   1.125   7.357 -0.3837  1.2610 -1.4269
  937TIP3   OH224445   5.955   1.055   6.796 -0.4731 -0.0262  0.0730
  937TIP3    H124446   6.021   0.985   6.790 -0.9855 -0.4891 -0.2668
  937TIP3    H224447   5.966   1.105   6.715 -0.2204  0.1947  0.2395
  938TIP3   OH224448   2.057   5.215   8.675  0.6653 -0.0062  0.1147
  938TIP3    H124449   2.002   5.164   8.735  1.7844 -1.2297  0.1426
  938TIP3    H224450   2.144   5.212   8.715  1.2139  0.0159 -1.0577
  939TIP3   OH224451   5.531   2.188   1.226 -0.3991 -0.0005  0.5694
  939TIP3    H124452   5.533   2.095   1.250  0.4498 -0.0668  0.2754
  939TIP3    H224453   5.474   2.191   1.149  1.2951 -0.6286 -0.7663
  940TIP3   OH224454   1.498   2.783   0.858  0.2748  0.1602 -0.2573
  940TIP3    H124455   1.488   2.705   0.804 -1.3502  0.2461 -0.1286
  940TIP3    H224456   1.413   2.794   0.901  0.0752  2.6063 -1.1083
  941TIP3   OH224457   1.883   4.939   7.856  0.8778  0.0239  1.2439
  941TIP3    H124458   1.828   4.861   7.851  0.2637  0.3980  1.9826
  941TIP3    H224459   1.847   4.998   7.789  0.1383  0.4059  1.9617
  942TIP3   OH224460   0.691   5.259   0.311  0.3458 -0.0000  0.3144
  942TIP3    H124461   0.745   5.319   0.259  1.2140  1.6990  2.9695
  942TIP3    H224462   0.729   5.173   0.297  1.1295  0.5417 -1.0658
  943TIP3   OH224463   2.995   1.095   1.977 -0.8251 -0.3319 -0.1321
  943TIP3    H124464   3.065   1.121   2.038 -0.4869 -1.4564 -0.0150
  943TIP3    H224465   2.992   1.000   1.984  1.3021 -0.8751 -4.0919
  944TIP3   OH224466   1.922   1.199   1.778 -0.0440  0.3062 -0.2007
  944TIP3    H124467   1.988   1.245   1.726  0.0168  0.1297 -0.2800
  944TIP3    H224468   1.915   1.251   1.858  0.6111  0.0082  0.0589
  945TIP3   OH224469   3.139   2.550   1.024 -0.4339 -0.2052 -0.0602
  945TIP3    H124470   3.121   2.493   1.099 -0.1571  0.5910  0.6244
  945TIP3    H224471   3.188   2.623   1.061  1.9079 -0.9854 -1.3942
  946TIP3   OH224472   5.428   3.871   0.693  0.5189  0.0541  0.0945
  946TIP3    H124473   5.340   3.909   0.695 -0.7738 -2.7409  0.3451
  946TIP3    H224474   5.461   3.892   0.605 -0.6826  0.5442 -0.2614
  947TIP3   OH224475   6.451   4.812   8.982 -0.3988 -0.5204  0.4986
  947TIP3    H124476   6.373   4.867   8.973 -0.4208 -0.6094  0.1356
  947TIP3    H224477   6.423   4.738   9.035 -0.5581 -0.5436  0.3822
  948TIP3   OH224478   6.379   4.661   2.257 -1.1797 -0.1969  0.1574
  948TIP3    H124479   6.441   4.624   2.320  0.2437  0.9455 -0.5366
  948TIP3    H224480   6.430   4.674   2.177 -1.1049  4.6170  0.7308
  949TIP3   OH224481   0.328   4.418   7.547  0.5884  0.1123  0.1362
  949TIP3    H124482   0.421   4.396   7.553  0.3630 -1.8099 -2.0567
  949TIP3    H224483   0.289   4.346   7.498 -1.7329  1.7712 -0.6484
  950TIP3   OH224484   2.991   5.414   6.929  0.1165  0.3991 -0.0420
  950TIP3    H124485   2.976   5.348   6.997  2.7876 -0.0063  0.2416
  950TIP3    H224486   2.904   5.428   6.891 -0.9602 -1.4945  1.4889
  951TIP3   OH224487   3.899   2.636   0.834 -0.2760 -0.6021  0.2451
  951TIP3    H124488   3.885   2.636   0.740  3.1114 -0.0318 -0.4006
  951TIP3    H224489   3.886   2.727   0.860  1.8444 -0.0914 -0.3232
  952TIP3   OH224490   4.856   3.383   0.383 -0.6911 -0.0361 -0.0557
  952TIP3    H124491   4.946   3.373   0.352  0.1037  1.5780  1.5684
  952TIP3    H224492   4.804   3.389   0.302  0.4659 -2.0432 -1.0287
  953TIP3   OH224493   0.030   4.861   1.253 -0.0955  0.1603  0.0454
  953TIP3    H124494  -0.048   4.880   1.201 -0.0470  2.0799  0.5873
  953TIP3    H224495   0.103   4.881   1.195  0.1683 -3.7496 -1.2465
  954TIP3   OH224496   6.404   1.597   2.030  0.1782  0.0162 -0.1452
  954TIP3    H124497   6.458   1.649   2.090  0.4048  1.0828 -1.2446
  954TIP3    H224498   6.445   1.608   1.944  0.5568 -2.4429 -0.3723
  955TIP3   OH224499   1.290   3.174   7.117 -0.0140  0.1443  0.4416
  955TIP3    H124500   1.250   3.111   7.056 -0.2983  0.6806  0.0653
  955TIP3    H224501   1.327   3.242   7.060  2.5787 -0.9346  0.6666
  956TIP3   OH224502   3.666   4.123   6.200  0.3776  0.0052  0.0025
  956TIP3    H124503   3.613   4.125   6.121  1.2696 -0.0023 -0.6210
  956TIP3    H224504   3.756   4.132   6.168  0.6486  1.8062  1.1491
  957TIP3   OH224505   2.982   1.677   7.018  0.8108 -0.2074 -0.5211
  957TIP3    H124506   2.893   1.706   7.040  0.7514  0.2608 -1.3607
  957TIP3    H224507   2.998   1.712   6.931  1.4228 -1.2077 -0.8261
  958TIP3   OH224508   6.594   4.698   1.474  0.0717  0.1568 -0.5221
  958TIP3    H124509   6.648   4.642   1.418  1.2021  0.9159 -0.2138
  958TIP3    H224510   6.601   4.658   1.560 -0.9556 -0.5006 -0.7207
  959TIP3   OH224511   6.153   3.886   1.340 -0.5455 -0.0276 -0.6997
  959TIP3    H124512   6.207   3.808   1.351 -0.9337 -0.1020  0.9846
  959TIP3    H224513   6.191   3.931   1.264  1.4815 -0.4088  0.0275
  960TIP3   OH224514   6.244   6.321   8.278  0.2490 -0.2414  0.5198
  960TIP3    H124515   6.183   6.355   8.212 -1.4125  0.2602  2.2213
  960TIP3    H224516   6.242   6.226   8.265 -0.3714 -0.1797  0.1080
  961TIP3   OH224517   3.992   5.237   6.931  0.1830 -0.1490  0.2726
  961TIP3    H124518   4.004   5.149   6.896  2.0927  0.9758 -2.2566
  961TIP3    H224519   3.932   5.279   6.868 -0.8710  0.3500  1.5588
  962TIP3   OH224520   5.168   3.193   8.001 -0.0962 -0.3886  0.2239
  962TIP3    H124521   5.261   3.196   8.022 -0.2842 -0.5316  1.1171
  962TIP3    H224522   5.154   3.104   7.967  0.2831 -0.0330 -0.9281
  963TIP3   OH224523   0.356   1.289   7.751 -0.1479  0.0328  0.0404
  963TIP3    H124524   0.262   1.280   7.736 -0.7712  2.6478  1.5800
  963TIP3    H224525   0.365   1.294   7.846  1.6012 -0.4012 -0.0605
  964TIP3   OH224526   1.001   3.207   1.572 -0.1450 -0.1744 -0.7155
  964TIP3    H124527   1.027   3.163   1.492  0.5160  1.3010 -1.3443
  964TIP3    H224528   0.962   3.137   1.626  1.5994 -1.6860 -1.3027
  965TIP3   OH224529   6.226   1.733   7.151  0.5847 -0.3249  0.0881
  965TIP3    H124530   6.177   1.761   7.228  0.6698  2.7387 -0.8369
  965TIP3    H224531   6.159   1.713   7.086  0.5337 -0.8492  0.3003
  966TIP3   OH224532   1.016   6.612   7.805 -0.1809  0.4470 -0.0476
  966TIP3    H124533   0.948   6.670   7.769  0.2095  0.6525 -0.4678
  966TIP3    H224534   0.968   6.549   7.858 -0.7915  0.1055 -0.9717
  967TIP3   OH224535   2.577   3.108   6.776  0.2905 -0.3102  0.1590
  967TIP3    H124536   2.638   3.042   6.810  0.3165 -0.1063  0.5155
  967TIP3    H224537   2.548   3.072   6.692  0.9139 -0.3983 -0.0278
  968TIP3   OH224538   0.946   6.115   7.943  0.4159 -0.1930 -0.0035
  968TIP3    H124539   0.853   6.118   7.965  0.8843 -1.6510  2.6275
  968TIP3    H224540   0.983   6.195   7.980  0.1673  0.6526 -1.5213
  969TIP3   OH224541   3.649   2.456   0.367  0.0858 -0.0963  1.2008
  969TIP3    H124542   3.572   2.407   0.396  2.1793 -3.9828  0.8579
  969TIP3    H224543   3.628   2.481   0.277 -1.8204  1.5741  2.0235
  970TIP3   OH224544   4.859   3.953   7.073 -0.2611  0.0291  0.6179
  970TIP3    H124545   4.785   3.942   7.013 -0.7340 -1.3665  1.4218
  970TIP3    H224546   4.935   3.960   7.015 -0.8898  0.4151 -0.1884
  971TIP3   OH224547   4.384   1.734   7.258 -0.4842  0.0363 -0.0296
  971TIP3    H124548   4.475   1.732   7.288 -0.1324  2.4043 -0.7246
  971TIP3    H224549   4.360   1.827   7.261 -2.4393 -0.3832 -1.1446
  972TIP3   OH224550   1.405   2.498   1.267  0.7582  0.3388  0.0331
  972TIP3    H124551   1.310   2.495   1.255  0.8601  0.7506 -1.0192
  972TIP3    H224552   1.429   2.590   1.252  1.3739  0.1444 -0.2482
  973TIP3   OH224553   5.770   6.262   8.342 -0.6572  0.1999  0.3000
  973TIP3    H124554   5.688   6.305   8.365  0.3392  1.3128  1.9738
  973TIP3    H224555   5.791   6.295   8.254 -1.3018  0.9882  0.4307
  974TIP3   OH224556   1.120   6.049   8.176 -0.2268  0.3996  0.2556
  974TIP3    H124557   1.042   6.089   8.139  0.7398  0.5565 -1.7673
  974TIP3    H224558   1.104   6.046   8.271 -2.6116  0.4724 -0.1039
  975TIP3   OH224559   0.320   3.199   1.089 -0.2766 -0.0866 -1.1721
  975TIP3    H124560   0.310   3.288   1.122 -2.9110 -1.1043  1.1838
  975TIP3    H224561   0.261   3.194   1.014  1.4089  0.6216 -2.6246
  976TIP3   OH224562   6.279   0.379   0.704  0.4036  0.0092 -0.3962
  976TIP3    H124563   6.356   0.322   0.697 -0.5996 -1.4109 -0.3119
  976TIP3    H224564   6.226   0.339   0.772  0.2755  1.8444  0.6290
  977TIP3   OH224565   4.621   3.430   7.689 -0.0549  0.1079  0.1515
  977TIP3    H124566   4.573   3.357   7.728  0.3634 -0.0991  0.2743
  977TIP3    H224567   4.555   3.475   7.635 -0.2554 -0.4856 -0.1066
  978TIP3   OH224568   6.247   2.412   0.201  0.1671 -0.4692 -0.3203
  978TIP3    H124569   6.248   2.508   0.202  1.3802 -0.4678 -0.2605
  978TIP3    H224570   6.304   2.386   0.273  0.9040 -1.2134 -1.1343
  979TIP3   OH224571   4.214   1.119   7.781 -0.2486  0.0374 -0.1970
  979TIP3    H124572   4.257   1.058   7.721  1.4775  0.4393  0.5636
  979TIP3    H224573   4.180   1.063   7.851 -1.0895 -0.2997 -0.8598
  980TIP3   OH224574   2.093   3.875   0.679  0.0708 -0.4613 -0.6005
  980TIP3    H124575   2.125   3.787   0.695 -1.8159 -1.1292 -0.2443
  980TIP3    H224576   1.999   3.865   0.665 -0.1108  1.4337 -1.0891
  981TIP3   OH224577   0.784   3.270   0.211  0.1936  0.0039 -0.4266
  981TIP3    H124578   0.730   3.192   0.199 -0.6710  0.7333 -1.5413
  981TIP3    H224579   0.815   3.292   0.123  2.2441 -0.3243  0.1762
  982TIP3   OH224580   4.455   6.098   1.449  0.0604  0.0245  0.2430
  982TIP3    H124581   4.451   6.144   1.365 -1.2045 -0.5722 -0.0508
  982TIP3    H224582   4.425   6.009   1.430 -3.2949  0.6469  1.7991
  983TIP3   OH224583   5.855   0.239   1.002 -0.1790  0.7269  0.1475
  983TIP3    H124584   5.944   0.253   0.971 -0.3905 -0.2113 -0.9831
  983TIP3    H224585   5.804   0.222   0.922 -0.9900 -0.6421  0.9152
  984TIP3   OH224586   0.390   1.209   7.193  0.0498 -0.4768  0.5265
  984TIP3    H124587   0.436   1.133   7.159 -0.0298 -1.5394  2.6342
  984TIP3    H224588   0.325   1.173   7.254 -1.8216  1.1349 -0.3842
  985TIP3   OH224589   1.863   5.225   0.465  0.2458 -0.1358 -0.6398
  985TIP3    H124590   1.932   5.265   0.517  1.6890 -1.6500 -1.3065
  985TIP3    H224591   1.798   5.294   0.453  2.6945  2.1128 -1.9264
  986TIP3   OH224592   2.045   3.276   1.526  0.3968 -0.2338  0.2406
  986TIP3    H124593   2.058   3.268   1.620 -0.2358 -0.1677  0.3345
  986TIP3    H224594   1.991   3.355   1.515 -2.7455 -2.2162  0.1317
  987TIP3   OH224595   2.838   6.658   0.022  0.2292 -0.1447  0.1860
  987TIP3    H124596   2.792   6.733   0.060 -0.4134 -0.8843  0.8927
  987TIP3    H224597   2.771   6.591   0.012  0.3415  0.0321 -2.3820
  988TIP3   OH224598   0.267   5.439   6.735  0.0471  0.2040  0.3557
  988TIP3    H124599   0.333   5.403   6.676 -0.2425  0.9746 -0.4727
  988TIP3    H224600   0.262   5.377   6.807  1.0414 -0.3140 -0.0044
  989TIP3   OH224601   6.611   2.622   0.472 -0.3101  0.3726  0.0674
  989TIP3    H124602   6.692   2.640   0.520 -0.1779  0.2778 -0.1203
  989TIP3    H224603   6.558   2.570   0.533 -0.3412  0.6631  0.2921
  990TIP3   OH224604   2.148   4.234   0.072  0.0916 -0.1141 -0.2579
  990TIP3    H124605   2.181   4.220   0.161 -0.5735 -0.8291 -0.1194
  990TIP3    H224606   2.060   4.270   0.085 -0.3137 -0.9557 -0.6203
  991TIP3   OH224607   3.238   2.698   0.187 -0.1170 -0.3017  0.3467
  991TIP3    H124608   3.179   2.638   0.142 -1.9767  1.4011  0.3646
  991TIP3    H224609   3.202   2.707   0.275 -0.5723  1.6314  0.0116
  992TIP3   OH224610   4.058   5.439   1.017  0.6272 -0.0275  0.5034
  992TIP3    H124611   4.053   5.513   0.957 -1.9978 -1.0920 -0.7757
  992TIP3    H224612   3.967   5.412   1.029  1.1530 -0.6439  4.0641
  993TIP3   OH224613   2.529   1.209   0.603 -0.0696 -0.0739 -0.6388
  993TIP3    H124614   2.602   1.250   0.556  1.1286 -0.2908  0.9653
  993TIP3    H224615   2.500   1.275   0.665 -2.3236  0.5880 -2.2466
  994TIP3   OH224616   4.996   5.426   0.548  0.9333 -0.4038  0.2590
  994TIP3    H124617   5.059   5.494   0.523  0.8202 -0.2615  0.3557
  994TIP3    H224618   5.048   5.359   0.591  1.3255 -1.2085 -1.3634
  995TIP3   OH224619   3.294   6.128   7.100 -0.4564  0.5704  0.6767
  995TIP3    H124620   3.361   6.127   7.169  0.1766  0.4693  0.0774
  995TIP3    H224621   3.294   6.219   7.070 -0.2706  0.4754  0.3826
  996TIP3   OH224622   4.423   4.963   7.373  0.1485  0.1600 -0.9936
  996TIP3    H124623   4.484   4.892   7.392 -1.0178 -0.3605  1.0653
  996TIP3    H224624   4.342   4.918   7.347  0.3188  0.8334 -2.8994
  997TIP3   OH224625   0.030   6.598   7.343 -0.3586  0.4527  0.0767
  997TIP3    H124626  -0.035   6.642   7.397  0.0444 -1.5245  2.3538
  997TIP3    H224627   0.107   6.590   7.400  0.2307 -1.3668 -0.8864
  998TIP3   OH224628   0.033   5.029   0.782 -0.2717  1.2738 -0.2421
  998TIP3    H124629  -0.010   4.993   0.860  0.7277  0.5077 -0.0253
  998TIP3    H224630  -0.039   5.066   0.731 -0.9653  1.6660  0.9667
  999TIP3   OH224631   4.636   2.155   6.818  0.2287 -0.2062  0.1148
  999TIP3    H124632   4.665   2.075   6.775 -0.2651 -1.7084  2.4040
  999TIP3    H224633   4.678   2.153   6.904 -2.7284 -0.0282  1.6993
 1000TIP3   OH224634   1.070   2.338   0.974  0.0015  0.0945 -0.1064
 1000TIP3    H124635   1.134   2.268   0.987  0.8276  1.0684  1.3719
 1000TIP3    H224636   0.991   2.307   1.018  0.5058  0.2462  0.9447
 1001TIP3   OH224637   1.275   4.192   7.385  0.0451 -0.0303  0.8614
 1001TIP3    H124638   1.339   4.121   7.387 -2.1657 -2.1892  0.4537
 1001TIP3    H224639   1.193   4.149   7.361 -1.0494  3.0048 -1.5622
 1002TIP3   OH224640   3.228   6.512   0.625 -0.5162  1.0416  0.1329
 1002TIP3    H124641   3.293   6.575   0.656  3.5739 -3.7809  2.9603
 1002TIP3    H224642   3.159   6.514   0.692  1.3205  0.3262  2.1836
 1003TIP3   OH224643   0.366   4.907   7.521 -0.5170 -0.2297  0.0018
 1003TIP3    H124644   0.448   4.944   7.554  0.5164 -0.2707 -2.3593
 1003TIP3    H224645   0.363   4.819   7.558  0.8043 -0.4393 -0.3390
 1004TIP3   OH224646   3.269   3.406   1.430  0.5677 -0.0920  0.4579
 1004TIP3    H124647   3.340   3.348   1.403  0.9791  0.9055 -0.7146
 1004TIP3    H224648   3.313   3.481   1.468  0.1823  0.6358 -0.4781
 1005TIP3   OH224649   4.556   4.037   0.069  0.1896  0.3823  0.2515
 1005TIP3    H124650   4.554   4.021   0.163 -0.7295  0.9854  0.3513
 1005TIP3    H224651   4.472   4.004   0.037  1.2882 -1.6676 -0.7097
 1006TIP3   OH224652   0.124   2.002   1.339  0.4027  0.3800 -0.1650
 1006TIP3    H124653   0.145   2.084   1.383 -1.4248  1.3182 -0.9365
 1006TIP3    H224654   0.171   2.007   1.255  0.5284  0.5026 -0.0863
 1007TIP3   OH224655   3.853   0.957   7.050  0.3441  0.2341 -0.7804
 1007TIP3    H124656   3.771   0.908   7.049 -1.0726  2.4549 -1.3488
 1007TIP3    H224657   3.921   0.891   7.037 -1.4341 -1.5083 -1.7419
 1008TIP3   OH224658   4.825   5.424   0.801  0.0497  0.1307  0.8080
 1008TIP3    H124659   4.883   5.499   0.817 -0.3028  1.1439 -2.2000
 1008TIP3    H224660   4.881   5.358   0.760 -0.7475  1.0563 -1.9765
 1009TIP3   OH224661   5.655   1.924   7.375  0.3094  0.0141  0.8013
 1009TIP3    H124662   5.743   1.935   7.411 -0.7686 -1.3524  4.2722
 1009TIP3    H224663   5.612   2.009   7.389  0.5321  0.1275  0.8010
 1010TIP3   OH224664   1.842   3.020   0.761  0.0903 -0.1998  0.5400
 1010TIP3    H124665   1.803   2.943   0.721  0.3703  0.8618 -1.9449
 1010TIP3    H224666   1.770   3.062   0.809 -0.4185 -1.1738  0.6471
 1011TIP3   OH224667   5.151   4.824   0.871  0.4141 -0.0619 -0.7623
 1011TIP3    H124668   5.219   4.774   0.914  1.9905  1.3263 -1.5407
 1011TIP3    H224669   5.129   4.894   0.933 -1.4020 -1.3270  0.1025
 1012TIP3   OH224670   0.207   3.455   1.187 -0.1568 -0.1599  0.0853
 1012TIP3    H124671   0.263   3.469   1.264  0.7150 -1.5711 -0.2649
 1012TIP3    H224672   0.258   3.492   1.114 -0.1890 -0.4255 -0.0723
 1013TIP3   OH224673   3.268   6.738   0.342  0.1433 -0.6207 -0.4330
 1013TIP3    H124674   3.245   6.755   0.433 -0.7934  0.6627 -0.8919
 1013TIP3    H224675   3.351   6.690   0.348  0.4729  0.0514  1.0732
 1014TIP3   OH224676   2.001   3.374   7.026  0.3124  0.2138  0.6920
 1014TIP3    H124677   1.932   3.393   7.090  0.1595  2.0134  0.0461
 1014TIP3    H224678   2.053   3.454   7.023  1.0494 -0.2839 -0.5482
 1015TIP3   OH224679   2.742   2.438   0.749 -0.4591 -0.8887 -0.2122
 1015TIP3    H124680   2.803   2.411   0.818 -1.0274 -1.1072  0.2217
 1015TIP3    H224681   2.681   2.496   0.794 -0.7521 -0.9234 -0.5643
 1016TIP3   OH224682   1.339   4.936   8.244  0.1733 -0.3166 -0.1471
 1016TIP3    H124683   1.406   4.945   8.311 -1.5415 -1.5214  1.8681
 1016TIP3    H224684   1.345   4.844   8.217 -0.1222 -0.2147 -0.5727
 1017TIP3   OH224685   2.586   5.070   1.209 -0.7561 -0.2361  0.6818
 1017TIP3    H124686   2.651   5.140   1.202  0.6246 -1.5159  0.2878
 1017TIP3    H224687   2.528   5.085   1.134 -0.4993  0.4999  0.6182
 1018TIP3   OH224688   2.825   6.442   1.528 -0.8904  0.0099 -0.3538
 1018TIP3    H124689   2.886   6.514   1.545  0.7743 -0.9161 -2.0232
 1018TIP3    H224690   2.835   6.383   1.603 -1.2479  0.8269  0.3488
 1019TIP3   OH224691   1.111   6.453   6.565 -0.7220 -0.4387 -0.0793
 1019TIP3    H124692   1.112   6.539   6.608 -0.3253  0.1948 -1.3337
 1019TIP3    H224693   1.020   6.442   6.538 -1.1730 -1.2164  1.5956
 1020TIP3   OH224694   6.613   4.973   1.123  0.0858 -0.0100 -0.3069
 1020TIP3    H124695   6.548   4.924   1.073 -2.4015  0.9398  1.7729
 1020TIP3    H224696   6.635   5.048   1.067  0.2860 -0.9117 -1.4807
 1021TIP3   OH224697   6.129   6.648   7.476  0.0206 -0.5099  0.1265
 1021TIP3    H124698   6.080   6.576   7.515 -0.7564  0.1516  0.3918
 1021TIP3    H224699   6.212   6.608   7.448 -0.2658 -1.4306  0.5522
 1022TIP3   OH224700   5.941   1.278   7.721  0.4104 -0.1055  0.0637
 1022TIP3    H124701   5.938   1.214   7.649 -0.9736  1.1479 -1.0692
 1022TIP3    H224702   5.851   1.282   7.752  0.9995 -0.6396  1.9378
 1023TIP3   OH224703   3.637   1.951   0.550 -0.3257 -0.0581  0.0276
 1023TIP3    H124704   3.591   1.932   0.632  0.0395 -0.8041  0.0677
 1023TIP3    H224705   3.673   2.039   0.562 -2.6704  1.0541 -0.4328
 1024TIP3   OH224706   3.188   0.988   1.470 -0.5543 -0.1749 -0.0728
 1024TIP3    H124707   3.271   0.988   1.422  0.0250 -0.4368  0.8897
 1024TIP3    H224708   3.131   0.929   1.422  0.1440 -0.7359 -0.2214
 1025TIP3   OH224709   3.109   6.135   1.639  0.7054  0.2250  0.3947
 1025TIP3    H124710   3.090   6.046   1.668 -0.2997  0.3688  0.2169
 1025TIP3    H224711   3.175   6.167   1.700  2.0006 -1.0561 -0.2696
 1026TIP3   OH224712   3.595   1.007   1.117 -0.7388 -0.5957  0.3744
 1026TIP3    H124713   3.588   1.077   1.181  0.0637 -1.5032  1.5026
 1026TIP3    H224714   3.672   0.957   1.144 -0.3519 -1.0031 -1.3200
 1027TIP3   OH224715   1.127   2.163   8.591  0.2507  0.4499 -0.6111
 1027TIP3    H124716   1.130   2.257   8.606 -0.4715  0.2884  0.8002
 1027TIP3    H224717   1.164   2.125   8.671  0.4946 -0.4761 -1.1406
 1028TIP3   OH224718   4.781   6.345   0.147  0.0509  0.4479 -0.1421
 1028TIP3    H124719   4.730   6.348   0.227  0.0377  0.4385 -0.1502
 1028TIP3    H224720   4.724   6.300   0.084 -0.4479  1.5932 -0.5314
 1029TIP3   OH224721   3.964   6.752   0.610  0.1716  0.0832 -0.2314
 1029TIP3    H124722   3.900   6.813   0.573  0.1252 -0.5086 -1.1816
 1029TIP3    H224723   3.970   6.775   0.702  0.5665  1.8734 -0.6712
 1030TIP3   OH224724   3.335   6.301   0.458  0.4271 -0.4047  0.1163
 1030TIP3    H124725   3.270   6.295   0.387 -0.2679 -1.2547  0.8020
 1030TIP3    H224726   3.312   6.381   0.505  0.8096  0.0941 -0.5118
 1031TIP3   OH224727   1.434   2.950   1.431 -0.1359 -0.7006  0.6301
 1031TIP3    H124728   1.472   3.024   1.479 -0.3688  1.1990 -1.8858
 1031TIP3    H224729   1.343   2.975   1.416 -0.3359 -1.6979  0.0772
 1032TIP3   OH224730   5.541   5.932   0.655  0.2304  0.5880 -0.0894
 1032TIP3    H124731   5.606   6.002   0.661  2.0760 -1.0291 -0.0794
 1032TIP3    H224732   5.532   5.916   0.561 -0.5008  1.0848 -0.1120
 1033TIP3   OH224733   4.685   6.285   1.029 -0.2450 -0.3487 -0.2680
 1033TIP3    H124734   4.682   6.375   0.996 -0.0667 -0.2454 -0.0050
 1033TIP3    H224735   4.612   6.241   0.985 -1.5512  0.4163  1.0420
 1034TIP3   OH224736   3.359   6.121   8.759 -0.2298  0.5442 -0.6322
 1034TIP3    H124737   3.415   6.188   8.798  1.4743 -0.2137 -1.6200
 1034TIP3    H224738   3.316   6.165   8.686  1.6608  0.4107 -1.9210
 1035TIP3   OH224739   5.307   6.569   0.811 -0.2320 -0.5653  0.8329
 1035TIP3    H124740   5.226   6.620   0.800 -0.8296 -1.1993  2.0944
 1035TIP3    H224741   5.280   6.478   0.797  0.9371 -0.5804 -1.9807
 1036TIP3   OH224742   0.591   3.930   1.314 -0.2132 -0.2757 -0.0603
 1036TIP3    H124743   0.644   3.850   1.317 -0.6559 -0.8194 -3.2952
 1036TIP3    H224744   0.515   3.910   1.367  0.2747 -1.5311  0.1963
 1037TIP3   OH224745   3.178   6.086   8.964  0.2756  0.1389 -0.0655
 1037TIP3    H124746   3.252   6.100   8.905 -0.3132 -0.3506 -0.9235
 1037TIP3    H224747   3.107   6.138   8.927 -0.3147 -0.7542 -0.2005
 1038TIP3   OH224748   5.568   4.348   6.735 -0.3430  0.1467  0.2572
 1038TIP3    H124749   5.506   4.390   6.675  0.7290  0.3535 -0.7419
 1038TIP3    H224750   5.612   4.281   6.682 -0.0313 -0.3102  1.0699
 1039TIP3   OH224751   5.623   1.976   8.077  0.4953  0.1349  0.7868
 1039TIP3    H124752   5.628   2.070   8.060  0.2929 -0.0150 -0.1347
 1039TIP3    H224753   5.712   1.944   8.060 -0.3160 -0.5178 -3.3080
 1040TIP3   OH224754   2.885   3.701   2.125 -0.3559  0.0181 -0.5089
 1040TIP3    H124755   2.911   3.610   2.116 -0.6630 -0.2256  0.9233
 1040TIP3    H224756   2.825   3.716   2.052  0.5797 -0.5783 -1.4213
 1041TIP3   OH224757   4.962   1.483   2.099 -0.0730 -0.2790 -0.1050
 1041TIP3    H124758   4.997   1.396   2.078 -0.4762 -0.5975  0.5045
 1041TIP3    H224759   5.017   1.513   2.171 -1.0349 -0.7863  0.8665
 1042TIP3   OH224760   2.390   1.105   1.307 -0.2618  0.3851  0.5748
 1042TIP3    H124761   2.473   1.098   1.354 -0.3971  0.2920  0.8070
 1042TIP3    H224762   2.350   1.019   1.318 -0.0638  0.1975 -0.1633
 1043TIP3   OH224763   4.646   5.750   7.775  0.2724 -0.3552  0.4284
 1043TIP3    H124764   4.678   5.671   7.817 -1.0089 -1.4271 -0.5219
 1043TIP3    H224765   4.564   5.770   7.820  0.1183 -0.1146  0.0463
 1044TIP3   OH224766   0.248   4.153   0.707 -0.5914 -0.1210  0.1278
 1044TIP3    H124767   0.273   4.244   0.692 -0.4738 -0.1393  0.2167
 1044TIP3    H224768   0.233   4.146   0.801  0.4075 -0.4464  0.2717
 1045TIP3   OH224769   6.065   3.603   7.448 -0.3485  0.9692 -0.5352
 1045TIP3    H124770   5.981   3.581   7.406 -0.8310  2.2213 -0.2764
 1045TIP3    H224771   6.099   3.519   7.479 -1.6243  0.4630 -0.4401
 1046TIP3   OH224772   4.186   2.371   7.886 -0.3448 -0.1423 -0.4435
 1046TIP3    H124773   4.266   2.384   7.837  0.9374 -1.7364  1.0781
 1046TIP3    H224774   4.194   2.430   7.962  0.0141 -1.1867  0.3577
 1047TIP3   OH224775   6.479   0.411   7.403 -0.2561 -0.2508  0.3528
 1047TIP3    H124776   6.418   0.442   7.335 -0.9705 -1.6001  0.3465
 1047TIP3    H224777   6.463   0.317   7.408  2.2213 -0.7625 -0.0153
 1048TIP3   OH224778   4.251   5.063   8.273 -0.2039 -0.2442 -0.0343
 1048TIP3    H124779   4.232   4.996   8.340  2.2897 -0.6885  0.3434
 1048TIP3    H224780   4.280   5.012   8.197  1.2833  0.3752  0.1025
 1049TIP3   OH224781   4.597   0.391   8.574  0.0439 -0.1898  0.0910
 1049TIP3    H124782   4.642   0.384   8.658 -0.2702  1.4580  0.4379
 1049TIP3    H224783   4.614   0.308   8.530  0.4277 -0.9789  1.6752
 1050TIP3   OH224784   0.942   4.722   0.588  0.1528  0.4856 -0.3151
 1050TIP3    H124785   0.933   4.733   0.683 -3.5473 -0.7458 -0.3707
 1050TIP3    H224786   0.986   4.638   0.578 -2.3272 -1.0140  0.4736
 1051TIP3   OH224787   5.758   4.663   7.647 -0.3391  0.3866  0.0664
 1051TIP3    H124788   5.828   4.671   7.582 -1.3446  1.0526 -0.9804
 1051TIP3    H224789   5.767   4.741   7.702  0.8905 -0.4838  1.1364
 1052TIP3   OH224790   2.725   0.817   7.315  0.1802  0.2330 -0.3246
 1052TIP3    H124791   2.683   0.777   7.392  1.5375  0.5465  0.6194
 1052TIP3    H224792   2.700   0.909   7.319  0.5400  0.3212 -0.0427
 1053TIP3   OH224793   1.309   1.937   8.034 -0.0604 -0.5948 -0.3363
 1053TIP3    H124794   1.367   1.998   8.080  1.0408 -0.8148 -1.3639
 1053TIP3    H224795   1.367   1.865   8.009 -0.1613  0.2624 -3.4903
 1054TIP3   OH224796   6.537   1.673   6.774  0.1207 -0.3139 -0.2018
 1054TIP3    H124797   6.564   1.596   6.823 -0.6987  0.2488  1.2076
 1054TIP3    H224798   6.618   1.714   6.745  0.8085  0.5366  2.6313
 1055TIP3   OH224799   0.661   4.862   2.348  0.2628 -0.5829 -0.3022
 1055TIP3    H124800   0.625   4.951   2.355  0.8240 -0.3460 -0.3390
 1055TIP3    H224801   0.715   4.852   2.426  0.3157 -0.8388 -0.3701
 1056TIP3   OH224802   3.533   1.121   6.947  0.4304  0.2874  0.1330
 1056TIP3    H124803   3.572   1.206   6.926 -0.7526  0.5848 -0.9706
 1056TIP3    H224804   3.447   1.123   6.906  1.2524 -2.3472 -2.0184
 1057TIP3   OH224805   3.374   1.542   8.746 -0.3672 -0.1691  0.4689
 1057TIP3    H124806   3.316   1.478   8.706  0.7013 -1.5316  1.0131
 1057TIP3    H224807   3.458   1.497   8.754  0.6070  1.5092  0.3151
 1058TIP3   OH224808   3.545   6.132   0.049 -1.0098 -0.0543  0.9488
 1058TIP3    H124809   3.478   6.110   0.114 -0.4778 -0.1151  1.4767
 1058TIP3    H224810   3.517   6.217   0.014 -4.3778 -2.3139 -2.7504
 1059TIP3   OH224811   1.195   4.038   1.611 -0.7605  0.1411  0.3963
 1059TIP3    H124812   1.239   3.953   1.606 -1.3318 -0.1108 -0.6846
 1059TIP3    H224813   1.264   4.098   1.639 -0.2085 -0.5777  0.6303
 1060TIP3   OH224814   1.532   0.644   6.423 -0.0206  0.4214  0.0904
 1060TIP3    H124815   1.579   0.613   6.500 -0.3492 -1.8330 -0.5404
 1060TIP3    H224816   1.596   0.639   6.352 -0.2168  0.7961 -0.1185
 1061TIP3   OH224817   3.344   0.360   8.746 -0.2234 -0.2070 -0.2019
 1061TIP3    H124818   3.263   0.308   8.748 -0.8320  0.4389 -3.1684
 1061TIP3    H224819   3.321   0.438   8.695  2.1469  0.2315 -0.7135
 1062TIP3   OH224820   1.869   1.981   8.692  0.0116 -0.1795 -0.5201
 1062TIP3    H124821   1.811   1.905   8.689  0.6792 -0.8159  1.3408
 1062TIP3    H224822   1.850   2.023   8.776  0.7356  0.8231 -0.8337
 1063TIP3   OH224823   1.369   3.126   0.366  0.2641  0.0140 -0.0942
 1063TIP3    H124824   1.324   3.196   0.412 -0.3239 -0.6784  0.4091
 1063TIP3    H224825   1.301   3.082   0.316  0.0233 -1.8991  1.7376
 1064TIP3   OH224826   2.028   5.320   6.941 -0.5116 -0.3427  0.3882
 1064TIP3    H124827   2.121   5.315   6.961 -0.0855  0.1049 -1.2983
 1064TIP3    H224828   1.993   5.236   6.968  0.7081 -1.1384 -0.3794
 1065TIP3   OH224829   5.631   3.374   7.095 -0.4369 -0.6950 -0.4569
 1065TIP3    H124830   5.643   3.372   7.000 -0.6113  0.2308 -0.5099
 1065TIP3    H224831   5.546   3.331   7.110 -0.5689 -0.5369 -0.7493
 1066TIP3   OH224832   3.879   3.269   7.027 -0.1703  0.5322 -0.1750
 1066TIP3    H124833   3.829   3.195   6.992  0.4541 -0.0436  0.1261
 1066TIP3    H224834   3.926   3.232   7.102 -1.2110  1.6601  1.0838
 1067TIP3   OH224835   6.249   2.973   0.748  0.5980  0.3901  0.0566
 1067TIP3    H124836   6.239   3.039   0.817  2.3164  0.2059  0.5095
 1067TIP3    H224837   6.273   3.023   0.670  0.5608  0.4242  0.0671
 1068TIP3   OH224838   3.625   5.944   8.322  0.8609  0.3738 -0.3863
 1068TIP3    H124839   3.532   5.921   8.309  1.2154 -0.3296 -1.8983
 1068TIP3    H224840   3.623   6.034   8.353 -0.2923  1.0094 -2.1526
 1069TIP3   OH224841   6.107   2.519   8.291 -0.5489  0.0249 -0.1142
 1069TIP3    H124842   6.072   2.547   8.206 -0.5122  0.9831  0.1838
 1069TIP3    H224843   6.045   2.555   8.355  1.1719  2.1387  0.4633
 1070TIP3   OH224844   4.287   2.855   8.811 -0.5494 -0.3704  0.4410
 1070TIP3    H124845   4.319   2.869   8.722  0.9861  2.8979  1.3954
 1070TIP3    H224846   4.358   2.809   8.855  0.0468  0.8927  0.8079
 1071TIP3   OH224847   2.108   5.126   6.693 -0.9321 -0.0500 -0.0202
 1071TIP3    H124848   2.201   5.138   6.709 -0.6636 -1.0850 -0.7575
 1071TIP3    H224849   2.076   5.077   6.769 -0.7763 -0.1302 -0.0073
 1072TIP3   OH224850   3.927   4.290   8.206  0.7454  0.4559 -0.2683
 1072TIP3    H124851   3.964   4.210   8.168  1.1315  0.4857  0.0419
 1072TIP3    H224852   3.835   4.269   8.223  0.4985  0.5126 -1.4388
 1073TIP3   OH224853   1.329   0.152   1.048  0.5301  0.5723 -0.1893
 1073TIP3    H124854   1.263   0.192   0.992  0.6470 -0.1530 -0.8575
 1073TIP3    H224855   1.358   0.075   1.000  1.5163  0.6133  0.3160
 1074TIP3   OH224856   5.034   3.803   0.240 -0.4094 -0.3028 -0.0694
 1074TIP3    H124857   5.027   3.709   0.222  0.7514 -0.1289 -1.7543
 1074TIP3    H224858   5.117   3.812   0.287 -0.0185 -0.0517 -0.7839
 1075TIP3   OH224859   3.888   4.794   1.107  0.3323 -0.1899  0.7124
 1075TIP3    H124860   3.980   4.819   1.102  0.6179 -1.3895 -0.6513
 1075TIP3    H224861   3.846   4.865   1.156  1.9308  0.4687  1.1826
 1076TIP3   OH224862   0.868   6.009   0.240  0.4025 -0.8319 -0.5524
 1076TIP3    H124863   0.859   5.942   0.307  1.8122  0.2575  0.7943
 1076TIP3    H224864   0.789   6.000   0.186 -0.8715 -1.6400  1.3420
 1077TIP3   OH224865   3.123   6.166   8.609 -0.0118  0.5869  0.0107
 1077TIP3    H124866   3.059   6.096   8.623  0.8096 -0.2236 -0.1825
 1077TIP3    H224867   3.071   6.246   8.608 -1.2953 -0.1934 -2.0935
 1078TIP3   OH224868   2.750   5.306   8.606 -0.0970  0.3663  0.2696
 1078TIP3    H124869   2.785   5.392   8.583 -1.0339  1.2874  2.0330
 1078TIP3    H224870   2.725   5.267   8.523  0.4156  1.7928 -0.5817
 1079TIP3   OH224871   2.891   0.041   8.787 -0.6572  0.3261 -0.4923
 1079TIP3    H124872   2.925  -0.013   8.858  2.0698  0.3614 -1.6590
 1079TIP3    H224873   2.891  -0.016   8.710  1.9692  1.7485 -1.6758
 1080TIP3   OH224874   5.464   0.138   1.807  0.6092  0.0219 -0.0648
 1080TIP3    H124875   5.486   0.179   1.724 -0.0843  0.9168  0.1704
 1080TIP3    H224876   5.510   0.191   1.872 -0.1447  0.3470  0.2279
 1081TIP3   OH224877   3.596   0.169   2.090  0.5887  0.4231  0.5841
 1081TIP3    H124878   3.570   0.260   2.077  0.0111  0.5733  2.5561
 1081TIP3    H224879   3.647   0.169   2.171  0.9022 -0.9532  0.4229
 1082TIP3   OH224880   2.302   2.883   8.373  0.1529 -0.5076 -0.5608
 1082TIP3    H124881   2.337   2.905   8.286  0.0774 -0.0965 -0.4924
 1082TIP3    H224882   2.367   2.920   8.434 -0.3540  0.1996 -0.4323
 1083TIP3   OH224883   6.611   1.338   8.717  0.1544 -0.3166  0.5996
 1083TIP3    H124884   6.587   1.413   8.662 -0.5541 -1.4844 -0.7552
 1083TIP3    H224885   6.684   1.297   8.670  0.6487 -0.3879  1.4167
 1084TIP3   OH224886   3.477   5.916   7.306  0.5955 -0.6800  0.5208
 1084TIP3    H124887   3.511   6.005   7.307  2.0374 -1.1536  2.8044
 1084TIP3    H224888   3.553   5.861   7.288 -0.1243 -1.4955 -0.1363
 1085TIP3   OH224889   6.693   4.354   0.854 -0.0136  0.2170 -0.3689
 1085TIP3    H124890   6.603   4.357   0.823 -0.0053  0.7367 -0.3525
 1085TIP3    H224891   6.699   4.271   0.903 -0.5171  0.2477 -0.2535
 1086TIP3   OH224892   2.022   2.394   7.443 -0.0081 -0.2398 -0.0847
 1086TIP3    H124893   2.009   2.378   7.349 -1.4694 -0.6188  0.1495
 1086TIP3    H224894   1.999   2.486   7.455 -2.6463 -0.8548  0.2921
 1087TIP3   OH224895   0.010   1.991   8.312 -0.2425 -0.1503 -0.5269
 1087TIP3    H124896   0.082   2.047   8.341  0.1719 -0.9946  0.1336
 1087TIP3    H224897   0.048   1.934   8.245 -0.6868  0.4175 -1.2743
 1088TIP3   OH224898   0.934   3.490   7.399 -0.0936  0.3303 -0.2830
 1088TIP3    H124899   0.995   3.420   7.372  1.0132  1.9158 -2.1889
 1088TIP3    H224900   0.849   3.461   7.367 -0.0701 -1.0871  0.8240
 1089TIP3   OH224901   1.864   6.548   8.768 -0.3119 -0.0122  0.6653
 1089TIP3    H124902   1.828   6.581   8.851  0.8966 -0.7596  1.5174
 1089TIP3    H224903   1.871   6.626   8.713 -1.3895  0.4567  1.1617
 1090TIP3   OH224904   3.273   4.310   7.399  0.0462 -0.0407  0.2967
 1090TIP3    H124905   3.329   4.364   7.455 -1.3775 -0.8576  2.7080
 1090TIP3    H224906   3.187   4.352   7.404 -0.8972 -1.9572  1.5537
 1091TIP3   OH224907   4.560   0.637   8.472  0.1335 -0.1765 -0.0179
 1091TIP3    H124908   4.486   0.614   8.415  0.9254  1.3891 -1.8057
 1091TIP3    H224909   4.579   0.557   8.520 -2.0566 -0.9132 -0.2565
 1092TIP3   OH224910   1.642   1.661   8.956  0.0530  0.6282  0.2043
 1092TIP3    H124911   1.661   1.605   8.880  1.3321  2.8343 -1.2025
 1092TIP3    H224912   1.721   1.655   9.010 -1.3255 -1.9465  2.1768
 1093TIP3   OH224913   0.092   4.506   1.004  0.5482  0.1185 -0.4161
 1093TIP3    H124914   0.049   4.447   0.942  1.1001  0.5882 -1.2533
 1093TIP3    H224915   0.184   4.482   1.002  0.8747  1.3509 -1.1754
 1094TIP3   OH224916   0.476   6.420   1.593 -0.0980  0.3447 -0.2486
 1094TIP3    H124917   0.414   6.452   1.528 -0.5719 -1.1292 -0.5793
 1094TIP3    H224918   0.522   6.498   1.623  0.4491  1.0319 -2.6632
 1095TIP3   OH224919   6.238   1.550   0.009 -0.3826  0.1220  0.2690
 1095TIP3    H124920   6.284   1.493  -0.052 -1.0142 -1.2711  1.0569
 1095TIP3    H224921   6.146   1.544  -0.017 -0.7195 -0.8427  1.6108
 1096TIP3   OH224922   5.351   3.969   7.824 -0.5247  0.1246  0.4635
 1096TIP3    H124923   5.314   3.890   7.862 -1.4417  0.3352  0.0478
 1096TIP3    H224924   5.408   3.938   7.754 -1.4808 -0.1563 -0.2086
 1097TIP3   OH224925   6.001   1.605   7.037 -0.0468  0.2116  0.2611
 1097TIP3    H124926   5.999   1.527   6.982  2.6761  0.7570 -0.7778
 1097TIP3    H224927   5.913   1.611   7.074 -1.0407 -1.9800 -1.5203
 1098TIP3   OH224928   6.060   2.951   1.910 -0.1768 -0.1447  0.2484
 1098TIP3    H124929   5.987   2.917   1.961 -0.1630 -0.2017  0.2303
 1098TIP3    H224930   6.021   2.978   1.827  0.0201 -1.3490 -0.2570
 1099TIP3   OH224931   3.408   1.167   2.047 -0.2288 -0.3189  0.6488
 1099TIP3    H124932   3.429   1.077   2.070  1.3099 -0.3263 -0.6682
 1099TIP3    H224933   3.362   1.201   2.124  1.5571 -1.4088  2.2761
 1100TIP3   OH224934   1.281   3.238   7.774  0.1574 -0.3582 -0.0094
 1100TIP3    H124935   1.297   3.145   7.761 -0.8532 -0.5802  0.2192
 1100TIP3    H224936   1.284   3.250   7.869  1.1436  0.0190 -0.0747
 1101TIP3   OH224937   3.419   3.725   7.069  0.3438 -0.5965 -0.2511
 1101TIP3    H124938   3.355   3.776   7.021  0.6820  0.2387  0.1641
 1101TIP3    H224939   3.463   3.672   7.002  1.6368  1.4233 -1.0634
 1102TIP3   OH224940   3.368   0.626   1.022 -0.4125 -0.2261 -0.0388
 1102TIP3    H124941   3.393   0.652   1.111  1.4292  2.5719 -1.2107
 1102TIP3    H224942   3.431   0.557   0.999 -2.2169 -2.4990  1.4333
 1103TIP3   OH224943   3.366   3.330   2.781 -0.1592  0.1171  0.3224
 1103TIP3    H124944   3.432   3.398   2.773 -2.0815  1.8759 -1.8656
 1103TIP3    H224945   3.317   3.354   2.860  0.5094 -0.0194  0.7868
 1104TIP3   OH224946   2.530   4.304   8.720 -0.7368  0.2594 -0.4139
 1104TIP3    H124947   2.555   4.365   8.789 -0.7152  0.5685 -0.6952
 1104TIP3    H224948   2.442   4.274   8.745 -0.5712  0.0728 -0.0485
 1105TIP3   OH224949   6.296   6.465   8.510  0.1672 -0.3873  0.0998
 1105TIP3    H124950   6.266   6.411   8.436  0.9639  0.1972 -0.6695
 1105TIP3    H224951   6.228   6.454   8.577  0.0809 -1.9705 -0.2100
 1106TIP3   OH224952   5.716   5.195   8.302 -0.1274 -0.6260 -0.5187
 1106TIP3    H124953   5.696   5.283   8.269 -3.1480 -1.0549 -0.0905
 1106TIP3    H224954   5.764   5.210   8.383  1.7521  0.5230 -1.7538
 1107TIP3   OH224955   0.259   3.070   8.739  0.3289  0.3667 -0.0209
 1107TIP3    H124956   0.314   2.991   8.738  3.3560  2.3005 -0.1671
 1107TIP3    H224957   0.172   3.039   8.715  1.0970 -3.0792  1.0915
 1108TIP3   OH224958   5.661   0.627   1.391  0.0036 -0.0570  0.1350
 1108TIP3    H124959   5.623   0.707   1.354 -1.7367 -0.4959  0.8831
 1108TIP3    H224960   5.691   0.578   1.314 -1.0329  0.2863 -0.5168
 1109TIP3   OH224961   3.680   5.180   7.105 -0.1236 -0.3049  0.5153
 1109TIP3    H124962   3.743   5.188   7.177  0.5224 -0.5498 -0.0173
 1109TIP3    H224963   3.605   5.233   7.134  0.9895  1.4206  0.4127
 1110TIP3   OH224964   4.203   0.192   0.542 -0.1570  0.6751 -0.3123
 1110TIP3    H124965   4.119   0.155   0.514 -0.4450  0.6718  0.5359
 1110TIP3    H224966   4.218   0.264   0.481 -1.1440  1.1433 -0.0311
 1111TIP3   OH224967   4.013   4.986   6.841 -0.1681  0.4259 -0.0080
 1111TIP3    H124968   3.959   4.907   6.848 -0.1369  0.4018 -0.0380
 1111TIP3    H224969   4.088   4.959   6.788 -2.1118  1.4944 -3.5947
 1112TIP3   OH224970   2.223   2.653   8.034  0.3522 -0.0669  0.3162
 1112TIP3    H124971   2.268   2.731   8.002 -0.1934 -0.2052 -0.8112
 1112TIP3    H224972   2.190   2.678   8.121  0.1542  0.9643 -0.0472
 1113TIP3   OH224973   6.439   4.869   0.585 -0.0504 -0.0524 -1.0552
 1113TIP3    H124974   6.382   4.866   0.508  0.8502  0.8749 -1.7875
 1113TIP3    H224975   6.478   4.956   0.583  1.4266 -0.6648 -0.5948
 1114TIP3   OH224976   1.763   4.317   2.231  0.3292  0.4320  0.3777
 1114TIP3    H124977   1.825   4.324   2.158  0.5802  0.0037  0.5459
 1114TIP3    H224978   1.818   4.301   2.308  0.0941  1.3094  0.7335
 1115TIP3   OH224979   0.162   6.240   8.081 -0.1070 -0.7541 -0.2569
 1115TIP3    H124980   0.186   6.220   8.171  2.4639 -1.2091 -0.9599
 1115TIP3    H224981   0.074   6.205   8.071 -0.2058 -1.2322  1.8899
 1116TIP3   OH224982   4.178   4.880   8.470  0.2092  0.1016  0.2370
 1116TIP3    H124983   4.127   4.812   8.426 -1.1714  0.1804  1.6260
 1116TIP3    H224984   4.222   4.835   8.542 -0.1900  0.5313  0.7643
 1117TIP3   OH224985   3.896   5.564   7.081 -0.2547  0.4505  0.0173
 1117TIP3    H124986   3.883   5.489   7.138 -0.6200  1.1014  0.8198
 1117TIP3    H224987   3.987   5.558   7.053  0.0699  0.3651  1.0476
 1118TIP3   OH224988   0.385   0.387   1.765  0.0644  0.4061 -0.2349
 1118TIP3    H124989   0.383   0.316   1.701 -1.6163 -0.7376  0.9935
 1118TIP3    H224990   0.405   0.344   1.848  0.6375  1.6317  0.2941
 1119TIP3   OH224991   2.489   0.443   7.402 -0.4115  0.5395  0.4563
 1119TIP3    H124992   2.414   0.393   7.434 -1.0017  0.8679 -0.3549
 1119TIP3    H224993   2.491   0.425   7.308 -0.3597  1.6644  0.2216
 1120TIP3   OH224994   2.828   6.072   1.009 -0.0161  0.2071 -0.0492
 1120TIP3    H124995   2.803   6.164   1.009 -1.5873 -0.1936  0.2863
 1120TIP3    H224996   2.914   6.070   0.966 -1.3300  1.4772 -2.9918
 1121TIP3   OH224997   5.797   4.926   7.781 -0.2740 -0.3302 -0.0765
 1121TIP3    H124998   5.752   4.961   7.858 -0.8965 -1.4759  0.1010
 1121TIP3    H224999   5.733   4.935   7.710 -0.8505 -2.0460  0.1940
 1122TIP3   OH225000   3.129   5.678   0.437  0.5407  1.0729 -0.3310
 1122TIP3    H125001   3.040   5.710   0.453  0.6062  0.6226  1.0695
 1122TIP3    H225002   3.149   5.624   0.514  2.3263  1.8279 -0.2140
 1123TIP3   OH225003   1.985   0.242   8.960 -0.6826  0.0343  0.0980
 1123TIP3    H125004   1.906   0.258   9.011  0.4036 -0.4593  2.0009
 1123TIP3    H225005   1.954   0.193   8.883 -2.0425 -1.6070  1.6085
 1124TIP3   OH225006   3.211   4.897   8.378 -0.0263  0.2814 -0.1540
 1124TIP3    H125007   3.207   4.963   8.447  2.7159  1.1616 -0.7138
 1124TIP3    H225008   3.123   4.859   8.376 -0.9082  1.9861  2.0574
 1125TIP3   OH225009   0.498   3.268   0.559  0.1671 -0.2780 -0.2025
 1125TIP3    H125010   0.569   3.205   0.573  1.0096  0.7257  0.1666
 1125TIP3    H225011   0.527   3.322   0.486 -0.9683 -0.8682 -1.1353
 1126TIP3   OH225012   6.404   1.210   7.985 -0.4004  0.0129 -0.6839
 1126TIP3    H125013   6.357   1.162   7.917 -0.9866  1.6143 -1.4677
 1126TIP3    H225014   6.470   1.261   7.938 -1.3112  1.7419 -0.2111
 1127TIP3   OH225015   5.002   5.415   8.332  0.3447 -0.3248 -0.8912
 1127TIP3    H125016   4.918   5.461   8.338 -0.5036 -1.5817 -2.2430
 1127TIP3    H225017   5.062   5.479   8.294 -0.1063  0.4580 -0.3105
 1128TIP3   OH225018   1.141   2.915   0.982  0.0542 -0.1466  0.5228
 1128TIP3    H125019   1.084   2.926   0.906 -0.0763  0.7710  0.7510
 1128TIP3    H225020   1.101   2.843   1.031 -1.1748  0.7556  0.8997
 1129TIP3   OH225021   2.877   3.758   0.783 -0.2190 -0.1703  0.3960
 1129TIP3    H125022   2.786   3.746   0.812  0.0750  1.5321  2.2161
 1129TIP3    H225023   2.922   3.797   0.858  1.8302 -0.1682 -0.7479
 1130TIP3   OH225024   4.337   2.315   0.471  0.1634  0.2452 -0.1156
 1130TIP3    H125025   4.257   2.350   0.433 -0.2423  0.8084  1.1981
 1130TIP3    H225026   4.378   2.265   0.400 -0.2521  1.7295 -1.4363
 1131TIP3   OH225027   0.977   3.869   7.040  0.3476  0.3490  0.3041
 1131TIP3    H125028   1.023   3.892   6.959  1.4336 -0.9427  0.5062
 1131TIP3    H225029   0.920   3.943   7.057 -0.2940  0.4448 -1.9230
 1132TIP3   OH225030   4.067   6.660   8.741  0.1340 -0.6605  0.1222
 1132TIP3    H125031   4.156   6.681   8.767 -0.6675  0.6277  2.0770
 1132TIP3    H225032   4.012   6.717   8.794 -1.8612 -1.0418 -1.3849
 1133TIP3   OH225033   1.078   0.399   1.892  0.3408 -0.0468  0.4604
 1133TIP3    H125034   0.986   0.374   1.888  0.0236  0.9442  1.3067
 1133TIP3    H225035   1.124   0.324   1.854 -0.6210 -1.6307  2.2191
 1134TIP3   OH225036   3.842   1.516   1.174  0.2453 -0.2466 -0.2648
 1134TIP3    H125037   3.925   1.553   1.144 -0.7701  1.2104 -1.4733
 1134TIP3    H225038   3.792   1.592   1.205 -0.7613 -1.0344  0.0937
 1135TIP3   OH225039   3.985   5.042   0.832  0.1300 -0.3493 -0.1580
 1135TIP3    H125040   4.014   4.957   0.799 -0.3683 -1.0527  1.1458
 1135TIP3    H225041   3.987   5.033   0.928 -0.3191  0.9730 -0.0007
 1136TIP3   OH225042   3.255   1.122   7.159  0.5657 -0.2063  0.5121
 1136TIP3    H125043   3.236   1.029   7.173  0.3724 -0.3002 -0.3411
 1136TIP3    H225044   3.287   1.127   7.069  3.1845  0.1601  1.3837
 1137TIP3   OH225045   4.541   0.026   1.275  0.2897 -0.2572  0.1665
 1137TIP3    H125046   4.606   0.044   1.342  0.8992 -0.1503 -0.4425
 1137TIP3    H225047   4.586   0.045   1.192 -0.8283  0.8253 -0.2179
 1138TIP3   OH225048   6.178   1.381   7.282  0.0812  0.7235  0.1660
 1138TIP3    H125049   6.127   1.309   7.246 -0.4849  0.9852  0.4292
 1138TIP3    H225050   6.113   1.450   7.300  0.5696  1.1864  0.1936
 1139TIP3   OH225051   0.073   1.983   1.791  0.5534 -0.3483 -0.5003
 1139TIP3    H125052   0.129   2.000   1.715  1.6316 -0.9736  0.1329
 1139TIP3    H225053  -0.013   1.963   1.753  0.6058  1.1171 -1.4686
 1140TIP3   OH225054   4.420   1.580   2.120 -0.0290  0.1702  0.4843
 1140TIP3    H125055   4.392   1.572   2.211  2.5377 -0.0768  1.3487
 1140TIP3    H225056   4.511   1.609   2.126 -1.2362  5.7719 -2.0999
 1141TIP3   OH225057   0.981   5.074   1.286  0.7695  0.1565 -0.0479
 1141TIP3    H125058   1.004   5.167   1.282 -0.6524  0.7199  2.3487
 1141TIP3    H225059   0.914   5.063   1.218 -0.1310  1.2915  0.6062
 1142TIP3   OH225060   4.200   0.198   1.220 -0.0353  0.6676  0.2672
 1142TIP3    H125061   4.141   0.245   1.161 -0.7057 -0.5417 -0.0516
 1142TIP3    H225062   4.222   0.118   1.174  0.1397  0.1077  1.2947
 1143TIP3   OH225063   2.298   4.799   1.511  0.3965 -0.2547 -0.4608
 1143TIP3    H125064   2.350   4.831   1.437  1.2611  0.2230  0.3317
 1143TIP3    H225065   2.321   4.857   1.584 -1.4209  0.1046 -0.1186
 1144TIP3   OH225066   1.860   2.419   7.788  0.4383 -0.3238  0.6767
 1144TIP3    H125067   1.881   2.340   7.838  3.0684  0.2522  0.6617
 1144TIP3    H225068   1.939   2.435   7.735 -0.6785  1.3787 -0.5777
 1145TIP3   OH225069   0.323   5.011   7.224 -0.1161  0.0291 -0.0247
 1145TIP3    H125070   0.263   5.012   7.149  0.3140  0.3492 -0.3683
 1145TIP3    H225071   0.390   4.947   7.200  0.5215  0.7944 -0.3150
 1146TIP3   OH225072   0.174   3.652   2.589 -0.7472 -0.0856 -0.0877
 1146TIP3    H125073   0.104   3.610   2.540 -0.1783 -2.2333  0.8494
 1146TIP3    H225074   0.255   3.615   2.553 -0.0096  2.1701 -0.9933
 1147TIP3   OH225075   1.159   2.339   7.906 -0.3417  0.2097 -0.1231
 1147TIP3    H125076   1.196   2.321   7.820 -0.0979  0.9626 -0.1874
 1147TIP3    H225077   1.154   2.435   7.910 -0.6062  0.1732  0.5924
 1148TIP3   OH225078   3.306   4.908   7.314 -0.0336  0.5132  0.2597
 1148TIP3    H125079   3.253   4.984   7.291 -2.2445 -1.4631 -1.7434
 1148TIP3    H225080   3.245   4.849   7.358  0.5005 -1.6869 -1.7719
 1149TIP3   OH225081   1.114   6.184   1.040  0.0199  0.8541 -0.6896
 1149TIP3    H125082   1.021   6.179   1.062  0.3046 -0.5678  0.2894
 1149TIP3    H225083   1.120   6.149   0.951  0.0850 -3.6536  0.8159
 1150TIP3   OH225084   1.803   4.187   7.567 -0.4128 -0.5142  0.0826
 1150TIP3    H125085   1.717   4.200   7.608 -0.3453  2.8786 -0.5191
 1150TIP3    H225086   1.792   4.220   7.478  1.4717 -0.0996 -0.0422
 1151TIP3   OH225087   0.323   1.643   7.129  0.3523 -0.3052  0.3655
 1151TIP3    H125088   0.324   1.723   7.075  2.2557  1.0391  2.1995
 1151TIP3    H225089   0.233   1.637   7.161  0.0667  0.9155 -0.1263
 1152TIP3   OH225090   0.366   1.084   0.249 -0.1670  0.3034 -0.3367
 1152TIP3    H125091   0.277   1.078   0.284  0.6920 -1.4868  1.7606
 1152TIP3    H225092   0.410   1.147   0.306  0.5129 -0.6261  0.2115
 1153TIP3   OH225093   5.397   2.458   8.750 -0.5568  0.0448  0.6910
 1153TIP3    H125094   5.469   2.520   8.757 -0.8980  0.4085  1.0076
 1153TIP3    H225095   5.401   2.406   8.830 -0.3121 -0.2989  0.4571
 1154TIP3   OH225096   5.543   5.107   1.556 -0.0759 -0.5158  0.0973
 1154TIP3    H125097   5.563   5.200   1.550 -0.6278 -0.4716 -1.6622
 1154TIP3    H225098   5.611   5.071   1.613  0.6264  0.8198  0.1388
 1155TIP3   OH225099   4.504   2.572   0.087  0.3539 -0.4577  0.2208
 1155TIP3    H125100   4.477   2.481   0.096  0.4825 -0.7286 -1.7417
 1155TIP3    H225101   4.424   2.623   0.102 -0.3391 -1.0428 -1.3000
 1156TIP3   OH225102   3.351   0.868   0.871 -0.5758 -0.3975 -0.1863
 1156TIP3    H125103   3.435   0.899   0.905 -0.1221 -1.0717 -0.6783
 1156TIP3    H225104   3.349   0.775   0.892 -1.8261 -0.1269  1.0738
 1157TIP3   OH225105   5.076   5.442   1.014 -0.0801 -0.0724  0.6175
 1157TIP3    H125106   5.104   5.471   1.101 -1.6028  1.6241  0.5743
 1157TIP3    H225107   5.051   5.522   0.968 -0.9976 -1.1156 -0.7725
 1158TIP3   OH225108   2.981   4.055   8.216  0.3622  0.1052 -0.1658
 1158TIP3    H125109   2.978   4.008   8.299 -0.7338  1.8976  0.8531
 1158TIP3    H225110   2.914   4.012   8.162  1.4462 -1.4119 -0.3764
 1159TIP3   OH225111   4.487   4.208   1.177 -0.4112  0.2575 -0.2301
 1159TIP3    H125112   4.529   4.200   1.092  0.2250 -1.8266  0.2184
 1159TIP3    H225113   4.426   4.280   1.167  0.8903  1.1979 -1.9109
 1160TIP3   OH225114   0.319   4.208   7.264 -0.4225 -0.3513  0.5954
 1160TIP3    H125115   0.371   4.202   7.184 -2.7210 -0.9253 -0.9712
 1160TIP3    H225116   0.264   4.285   7.252  1.2796  1.4210  3.0846
 1161TIP3   OH225117   1.090   2.322   2.014  0.2866  0.2802  0.2539
 1161TIP3    H125118   1.054   2.408   1.990  0.4967  0.1358 -0.6125
 1161TIP3    H225119   1.184   2.330   1.999  0.3110 -0.0862  0.2092
 1162TIP3   OH225120   4.527   1.643   8.348 -0.0646 -0.1730 -0.0651
 1162TIP3    H125121   4.559   1.618   8.434 -1.0187 -0.0464  0.3340
 1162TIP3    H225122   4.475   1.569   8.319  1.4742 -0.8692 -1.2180
 1163TIP3   OH225123   2.726   3.150   0.842  0.4530  0.1416  0.3611
 1163TIP3    H125124   2.710   3.056   0.856  0.4023  0.1124  0.1080
 1163TIP3    H225125   2.651   3.193   0.883  0.7053  0.0930  0.8791
 1164TIP3   OH225126   2.754   6.699   7.875  0.2183  0.3242 -0.6377
 1164TIP3    H125127   2.801   6.742   7.803 -0.8703  0.0217 -1.5492
 1164TIP3    H225128   2.675   6.752   7.888  0.3500  0.3208  0.2892
 1165TIP3   OH225129   5.739   3.257   2.066  0.4527 -0.6292 -0.0626
 1165TIP3    H125130   5.712   3.182   2.013 -0.8076 -0.9435  0.9751
 1165TIP3    H225131   5.657   3.300   2.090  1.0096 -0.3861  1.4741
 1166TIP3   OH225132   5.899   0.383   2.226 -0.0434  0.2719 -0.0274
 1166TIP3    H125133   5.968   0.356   2.166 -1.2586  0.0878 -1.4054
 1166TIP3    H225134   5.945   0.414   2.304  1.6784  1.9038 -1.5798
 1167TIP3   OH225135   6.551   3.497   8.425  0.4376  0.4248  0.0289
 1167TIP3    H125136   6.499   3.421   8.398  1.1965 -0.4257  0.8719
 1167TIP3    H225137   6.545   3.558   8.352 -1.7865  0.3970  0.1266
 1168TIP3   OH225138   2.517   0.710   7.458  0.0831  0.2340 -0.1352
 1168TIP3    H125139   2.449   0.718   7.525 -0.0937  0.6738 -0.3648
 1168TIP3    H225140   2.536   0.616   7.454  0.1195  0.2076  0.5565
 1169TIP3   OH225141   6.679   5.106   1.373 -0.2507  0.6365 -0.1143
 1169TIP3    H125142   6.765   5.140   1.349  0.3521 -0.0633  0.9793
 1169TIP3    H225143   6.659   5.040   1.306  1.3587 -1.2185  1.1203
 1170TIP3   OH225144   4.107   5.712   8.776 -0.5916  0.1429 -0.3513
 1170TIP3    H125145   4.130   5.678   8.690  2.1105  3.3003 -1.0859
 1170TIP3    H225146   4.140   5.646   8.837 -1.0823 -1.3873 -1.6765
 1171TIP3   OH225147   0.815   4.748   1.427  0.1374  0.0564  0.3321
 1171TIP3    H125148   0.832   4.797   1.508  0.9864  0.2061  0.0754
 1171TIP3    H225149   0.724   4.719   1.435 -0.6730  2.3612  0.1269
 1172TIP3   OH225150   6.423   1.246   1.587 -0.1924 -0.0972 -0.6568
 1172TIP3    H125151   6.456   1.212   1.670  0.0071  0.8351 -0.3313
 1172TIP3    H225152   6.435   1.175   1.525 -1.4425 -1.2243  0.3552
 1173TIP3   OH225153   3.546   5.954   8.671 -0.4723  0.4170 -0.4090
 1173TIP3    H125154   3.552   5.860   8.689  0.2804  0.4336 -0.5674
 1173TIP3    H225155   3.481   5.986   8.734  0.1202 -0.0080  0.4393
 1174TIP3   OH225156   3.769   5.916   7.995 -0.2165  0.5726 -0.6302
 1174TIP3    H125157   3.722   5.948   8.073 -1.2266  1.3610 -1.5221
 1174TIP3    H225158   3.810   5.835   8.023 -0.4185  0.9290  0.7775
 1175TIP3   OH225159   6.545   1.646   1.507 -0.1508  0.7079  0.5548
 1175TIP3    H125160   6.599   1.696   1.446 -0.9956  0.9527 -0.0132
 1175TIP3    H225161   6.601   1.575   1.536 -0.0683 -0.1035 -1.4123
 1176TIP3   OH225162   4.543   3.210   2.014 -0.2704  0.2398 -0.3235
 1176TIP3    H125163   4.517   3.167   1.933 -0.8140 -0.5256  0.2550
 1176TIP3    H225164   4.514   3.301   2.003  1.1202  0.5621 -1.6559
 1177TIP3   OH225165   4.514   4.782   8.624 -0.2931 -0.7526 -0.4997
 1177TIP3    H125166   4.540   4.837   8.698  2.3540 -0.2928 -1.6585
 1177TIP3    H225167   4.430   4.744   8.650  1.1011 -1.6455  3.2696
 1178TIP3   OH225168   3.162   1.486   8.494  0.4312  0.0744  0.0786
 1178TIP3    H125169   3.132   1.459   8.407  2.2733 -1.0323 -0.2713
 1178TIP3    H225170   3.248   1.447   8.502  1.1840  1.8994  1.5855
 1179TIP3   OH225171   1.152   0.008   8.296  0.1738  0.9298 -0.0393
 1179TIP3    H125172   1.088   0.032   8.230  1.0160  0.9873 -0.8483
 1179TIP3    H225173   1.187   0.092   8.328  0.9774  0.8704 -0.7384
 1180TIP3   OH225174   1.183   0.925   7.491 -0.3004  0.0321 -0.5739
 1180TIP3    H125175   1.212   0.859   7.555 -0.5406  0.0721 -0.4240
 1180TIP3    H225176   1.260   0.981   7.479 -0.0056 -0.4374 -0.9143
 1181TIP3   OH225177   3.102   3.395   1.672 -0.2350 -0.0013 -0.3238
 1181TIP3    H125178   3.111   3.485   1.703 -1.5193  0.6030 -1.5719
 1181TIP3    H225179   3.175   3.383   1.611  1.3133 -0.6396  1.5456
 1182TIP3   OH225180   4.623   5.974   0.909  0.0647  0.6206 -0.5944
 1182TIP3    H125181   4.709   6.016   0.902  0.5998 -0.4652 -0.8214
 1182TIP3    H225182   4.643   5.883   0.929 -1.0073  0.1668 -1.4765
 1183TIP3   OH225183   4.334   2.300   1.155  0.2362 -0.4851  0.1580
 1183TIP3    H125184   4.329   2.340   1.242  2.2731  0.0828  0.0670
 1183TIP3    H225185   4.311   2.371   1.095  0.9050 -0.2699  0.1468
 1184TIP3   OH225186   0.185   3.867   0.756 -0.1015  1.1824 -0.0093
 1184TIP3    H125187   0.168   3.878   0.849  2.4568 -0.3522  0.7341
 1184TIP3    H225188   0.100   3.843   0.719 -0.7384 -0.6862  2.3886
 1185TIP3   OH225189   1.185   6.276   7.613  0.1513 -0.5244  0.3617
 1185TIP3    H125190   1.135   6.283   7.531  0.5888 -0.1448  0.1171
 1185TIP3    H225191   1.227   6.362   7.622 -0.3665 -0.3586  1.3034
 1186TIP3   OH225192   6.346   6.749   1.335  0.6950 -0.4392 -0.0890
 1186TIP3    H125193   6.270   6.692   1.319 -1.5339  1.9086  1.3421
 1186TIP3    H225194   6.369   6.731   1.426 -0.2235  1.0511  0.4725
 1187TIP3   OH225195   2.532   4.889   7.239 -0.0457 -0.5844  0.6889
 1187TIP3    H125196   2.486   4.971   7.222  2.5334  0.9419  0.6903
 1187TIP3    H225197   2.606   4.889   7.178 -0.3461 -3.2785  0.2071
 1188TIP3   OH225198   1.028   0.848   2.087  0.3206  0.3522  0.5830
 1188TIP3    H125199   1.062   0.901   2.160  0.4707  0.9983  0.0544
 1188TIP3    H225200   0.939   0.824   2.114  0.0700  1.2902  0.6277
 1189TIP3   OH225201   0.288   2.117   1.152  0.0624  0.2380 -0.5174
 1189TIP3    H125202   0.349   2.062   1.201  0.6538  1.4194  0.1044
 1189TIP3    H225203   0.305   2.094   1.060  0.2623 -0.6447 -0.2727
 1190TIP3   OH225204   4.791   6.067   0.574  0.0263 -0.0705 -0.1367
 1190TIP3    H125205   4.796   6.138   0.637  1.3019 -0.9677  0.8179
 1190TIP3    H225206   4.709   6.083   0.527 -0.1266  1.5430  0.6066
 1191TIP3   OH225207   6.103   3.328   7.562  0.5352  0.4773 -0.5570
 1191TIP3    H125208   6.129   3.237   7.573  1.2513  0.6572 -0.6686
 1191TIP3    H225209   6.010   3.330   7.584  1.0014  0.1271  1.6306
 1192TIP3   OH225210   0.561   0.655   0.746 -0.0582 -0.5185  0.2445
 1192TIP3    H125211   0.540   0.650   0.653 -0.8188  0.1320  0.3705
 1192TIP3    H225212   0.476   0.652   0.791 -0.0453  2.6904  0.7352
 1193TIP3   OH225213   5.109   3.134   1.305  0.1449 -0.0582 -0.5835
 1193TIP3    H125214   5.135   3.084   1.382 -0.2098 -0.3591 -0.6570
 1193TIP3    H225215   5.021   3.102   1.284  0.2468  0.0051 -1.1258
 1194TIP3   OH225216   5.823   5.409   2.281 -0.4441  0.1947 -0.7252
 1194TIP3    H125217   5.770   5.331   2.269 -0.2561  0.2394 -2.0080
 1194TIP3    H225218   5.759   5.480   2.289 -0.5930  0.1575 -1.5425
 1195TIP3   OH225219   6.000   5.469   8.698  0.3593 -0.0657  0.4731
 1195TIP3    H125220   5.962   5.557   8.695  1.3721  0.3712 -0.3579
 1195TIP3    H225221   6.053   5.464   8.619  0.4355 -1.3799  0.5936
 1196TIP3   OH225222   1.387   5.361   7.200  0.2219  0.0975  0.1310
 1196TIP3    H125223   1.425   5.426   7.141  0.5570  0.5948  0.8798
 1196TIP3    H225224   1.452   5.351   7.270 -0.5356  0.1389  0.8544
 1197TIP3   OH225225   3.148   2.831   2.236  0.3727  0.1907 -0.0706
 1197TIP3    H125226   3.176   2.907   2.286 -1.4855  0.6347  0.3755
 1197TIP3    H225227   3.223   2.809   2.182  0.1701  4.0277 -2.2865
 1198TIP3   OH225228   6.482   4.641   1.952  0.2691 -0.2672  1.1087
 1198TIP3    H125229   6.431   4.567   1.985 -1.3162 -0.2511 -1.0628
 1198TIP3    H225230   6.571   4.607   1.942 -0.3800 -1.8492  0.3360
 1199TIP3   OH225231   3.854   1.241   8.728  0.0591 -0.4764 -0.1345
 1199TIP3    H125232   3.765   1.261   8.700 -0.1711 -1.4434 -0.1481
 1199TIP3    H225233   3.851   1.246   8.824 -0.1415 -0.9908 -0.1108
 1200TIP3   OH225234   6.183   3.764   6.727 -0.3459 -0.4996  0.3427
 1200TIP3    H125235   6.162   3.737   6.638  0.9110 -1.1839  0.2354
 1200TIP3    H225236   6.271   3.730   6.743  0.1680  1.1050  1.2238
 1201TIP3   OH225237   1.162   3.759   7.597 -0.4653  0.6207  0.4913
 1201TIP3    H125238   1.227   3.829   7.594 -1.5965  1.7813  1.5896
 1201TIP3    H225239   1.187   3.706   7.672 -0.5594  0.8390  0.6773
 1202TIP3   OH225240   2.445   6.267   1.060 -0.2237 -0.2369 -0.1823
 1202TIP3    H125241   2.470   6.189   1.109 -0.5036 -1.0287 -1.2507
 1202TIP3    H225242   2.366   6.298   1.104 -0.2581 -0.7110  0.0978
 1203TIP3   OH225243   0.471   2.353   6.597  0.3436  0.0509 -0.5410
 1203TIP3    H125244   0.458   2.349   6.692 -0.2041  1.1889 -0.5386
 1203TIP3    H225245   0.566   2.354   6.585  0.4496  1.5543  0.1295
 1204TIP3   OH225246   2.791   2.262   6.919 -0.2814  0.0017 -0.0085
 1204TIP3    H125247   2.788   2.169   6.942 -0.7442 -0.4702 -1.8541
 1204TIP3    H225248   2.766   2.307   7.000 -5.0574 -1.6401 -0.2515
 1205TIP3   OH225249   0.962   1.504   1.859 -0.3953 -0.1668  0.7861
 1205TIP3    H125250   0.966   1.551   1.776 -0.7149  2.0060  1.9139
 1205TIP3    H225251   1.054   1.485   1.880 -0.3622 -1.4761 -0.4078
 1206TIP3   OH225252   5.247   6.448   1.677  0.1140  0.0881 -0.2219
 1206TIP3    H125253   5.278   6.528   1.719  0.5332 -0.2285  0.0820
 1206TIP3    H225254   5.216   6.476   1.590  0.2161  0.5809 -0.0976
 1207TIP3   OH225255   4.754   3.515   8.587 -0.0948 -0.2496  0.1151
 1207TIP3    H125256   4.666   3.486   8.562  0.0967  0.1553 -1.1036
 1207TIP3    H225257   4.751   3.611   8.581  0.5332 -0.2484 -0.3622
 1208TIP3   OH225258   4.826   4.910   0.621  0.1614 -1.0959 -0.4371
 1208TIP3    H125259   4.776   4.847   0.673  0.8898 -1.1698  0.1786
 1208TIP3    H225260   4.907   4.923   0.669  1.2351 -1.8119 -1.9568
 1209TIP3   OH225261   4.020   6.233   8.379 -0.4384 -0.1106 -0.0620
 1209TIP3    H125262   4.011   6.315   8.428  0.9301 -0.3586  0.6778
 1209TIP3    H225263   4.034   6.167   8.447 -1.6959 -1.0025 -0.6353
 1210TIP3   OH225264   0.689   4.222   0.726  0.4495  0.5945  0.2313
 1210TIP3    H125265   0.762   4.281   0.704  0.7739 -0.0078 -0.3329
 1210TIP3    H225266   0.671   4.241   0.818  1.1483  0.9348  0.3095
 1211TIP3   OH225267   1.341   6.134   0.037  0.3127 -0.2810  0.6635
 1211TIP3    H125268   1.376   6.082   0.109 -2.4060 -0.7449  1.7880
 1211TIP3    H225269   1.250   6.104   0.028  0.1144  0.8312 -1.9898
 1212TIP3   OH225270   5.787   0.933   1.710  0.1072 -0.5577  0.3929
 1212TIP3    H125271   5.810   0.842   1.728 -2.1489 -0.9373  1.6924
 1212TIP3    H225272   5.719   0.928   1.643  2.3126  0.4302 -2.0776
 1213TIP3   OH225273   6.428   2.615   1.674 -0.0203 -0.1384 -0.1891
 1213TIP3    H125274   6.379   2.554   1.729  1.1629 -0.0354  1.0181
 1213TIP3    H225275   6.387   2.606   1.587 -2.8855  0.7454  0.9304
 1214TIP3   OH225276   0.185   4.955   8.289  0.3186 -0.2725  0.0770
 1214TIP3    H125277   0.173   5.049   8.297  0.8458 -0.1425 -0.5896
 1214TIP3    H225278   0.269   4.944   8.246  0.2471 -1.0500  0.1056
 1215TIP3   OH225279   2.862   1.050   7.550 -0.2276  0.5388  0.0493
 1215TIP3    H125280   2.891   1.138   7.572 -0.2935  0.4085  0.6793
 1215TIP3    H225281   2.788   1.034   7.609  0.0814 -0.1145  0.2653
 1216TIP3   OH225282   6.240   4.182   8.828  0.1308  0.2824  0.3196
 1216TIP3    H125283   6.221   4.101   8.780 -1.5333  0.2736  0.9213
 1216TIP3    H225284   6.309   4.159   8.890  0.6164 -0.3124 -0.4269
 1217TIP3   OH225285   6.458   3.943   0.407 -0.0653 -0.1161  0.4157
 1217TIP3    H125286   6.435   3.852   0.424  1.2535 -0.8145 -1.2739
 1217TIP3    H225287   6.445   3.954   0.312 -1.1300  1.7524  0.7228
 1218TIP3   OH225288   2.645   2.454   7.734  0.5326  0.3966 -0.0663
 1218TIP3    H125289   2.658   2.396   7.809  0.5396 -0.6676 -0.8820
 1218TIP3    H225290   2.557   2.434   7.702  1.1828 -0.4502 -1.4194
 1219TIP3   OH225291   0.028   6.265   0.694 -0.4265 -0.3923  0.0259
 1219TIP3    H125292   0.090   6.279   0.766 -0.5462 -1.0222  0.2530
 1219TIP3    H225293  -0.054   6.302   0.725 -0.3036 -0.0429 -0.0619
 1220TIP3   OH225294   3.445   6.453   6.982 -0.1361 -0.2972 -0.4930
 1220TIP3    H125295   3.521   6.511   6.974  0.5853 -1.0346  0.7021
 1220TIP3    H225296   3.394   6.491   7.054 -0.7610  0.0166 -1.0875
 1221TIP3   OH225297   6.272   5.787   8.111  0.5687  0.2844 -0.1602
 1221TIP3    H125298   6.198   5.777   8.052 -0.4355 -0.0473  1.1002
 1221TIP3    H225299   6.297   5.697   8.134 -0.7258  0.3733  1.8718
 1222TIP3   OH225300   3.872   1.694   6.757 -0.1513  0.1246 -0.7893
 1222TIP3    H125301   3.816   1.742   6.696  0.3189  1.4907 -0.1908
 1222TIP3    H225302   3.844   1.724   6.844  1.0523  0.3370 -0.4564
 1223TIP3   OH225303   5.065   2.749   6.191 -0.0811  0.1708  0.7036
 1223TIP3    H125304   4.996   2.739   6.125  0.2282 -0.7607  0.5043
 1223TIP3    H225305   5.038   2.691   6.262 -0.6170  1.4626  1.6001
 1224TIP3   OH225306   6.158   3.526   1.977  0.2168 -0.0661  0.6508
 1224TIP3    H125307   6.246   3.548   1.948 -0.0565 -0.7744 -0.7783
 1224TIP3    H225308   6.127   3.605   2.021  1.2607  0.4641  0.4665
 1225TIP3   OH225309   4.311   0.075   0.775  0.2161 -0.2534  0.5992
 1225TIP3    H125310   4.287   0.097   0.685 -0.7458  0.8349  1.0947
 1225TIP3    H225311   4.236   0.103   0.827  0.8281 -0.7230  1.7585
 1226TIP3   OH225312   3.776   4.645   7.262 -0.4950  0.3293  0.4559
 1226TIP3    H125313   3.713   4.575   7.243 -0.0350  0.1617 -0.5172
 1226TIP3    H225314   3.859   4.600   7.275 -0.4899  0.5813  1.3643
 1227TIP3   OH225315   4.605   4.230   6.423  0.1669  0.4911 -0.1000
 1227TIP3    H125316   4.654   4.221   6.341 -0.1006 -0.5980 -0.1532
 1227TIP3    H225317   4.587   4.140   6.450  0.7090  0.8124  1.4429
 1228TIP3   OH225318   4.468   3.869   8.090  0.6737 -0.5672 -0.0726
 1228TIP3    H125319   4.428   3.909   8.167  0.5454 -0.3645 -0.2433
 1228TIP3    H225320   4.501   3.784   8.121 -1.5390 -1.5909 -0.3356
 1229TIP3   OH225321   3.984   1.538   1.858 -0.0726 -1.1253 -0.2537
 1229TIP3    H125322   4.076   1.512   1.862  0.9300  1.7390 -1.7185
 1229TIP3    H225323   3.966   1.578   1.943  1.5389  2.3302 -1.3689
 1230TIP3   OH225324   5.313   5.553   1.803  0.5016  0.9568 -0.3746
 1230TIP3    H125325   5.274   5.606   1.872  0.3009 -1.0085  1.0978
 1230TIP3    H225326   5.405   5.546   1.827 -0.1908 -2.8637  2.0294
 1231TIP3   OH225327   0.259   2.493   8.022 -0.1151 -0.4919  0.3210
 1231TIP3    H125328   0.206   2.419   8.053 -0.9934  0.9756  2.5618
 1231TIP3    H225329   0.204   2.570   8.036  2.3820  1.0981  2.4557
 1232TIP3   OH225330   1.976   0.662   2.025 -0.4956  1.0195  0.1331
 1232TIP3    H125331   2.016   0.727   1.967 -0.2821  2.1357  1.4559
 1232TIP3    H225332   1.943   0.594   1.967  2.5932  0.4238 -1.1362
 1233TIP3   OH225333   3.980   2.470   2.270  0.3774 -0.0782 -0.5597
 1233TIP3    H125334   4.063   2.494   2.311 -0.8711  2.6663  0.6329
 1233TIP3    H225335   3.961   2.383   2.305  1.2755  0.5400  1.6505
 1234TIP3   OH225336   5.658   5.353   0.294  1.2124 -0.4419  0.2400
 1234TIP3    H125337   5.609   5.293   0.350  1.8036 -0.4558  0.7524
 1234TIP3    H225338   5.652   5.316   0.207 -0.9651  0.3322 -0.0098
 1235TIP3   OH225339   2.800   1.304   1.932 -0.0671 -0.5164 -0.1677
 1235TIP3    H125340   2.843   1.219   1.935  0.5012 -0.2453  2.6256
 1235TIP3    H225341   2.872   1.367   1.927 -0.4231 -0.1580 -0.8796
 1236TIP3   OH225342   1.030   0.977   0.370 -0.1265  0.6238  0.0448
 1236TIP3    H125343   0.969   0.964   0.298  1.3381 -0.5086 -1.0485
 1236TIP3    H225344   1.072   0.892   0.383  0.6419  1.1543  1.3062
 1237TIP3   OH225345   5.074   2.319   7.473  0.1137  0.3189  0.0761
 1237TIP3    H125346   5.090   2.401   7.519 -0.5245  1.0965 -1.0415
 1237TIP3    H225347   5.031   2.345   7.391  0.6847 -1.0509 -0.6995
 1238TIP3   OH225348   5.755   4.474   2.492 -0.0226  0.6539 -0.5045
 1238TIP3    H125349   5.827   4.413   2.476  0.7474  1.0811  1.0658
 1238TIP3    H225350   5.676   4.426   2.466  0.7908  0.0336 -1.9049
 1239TIP3   OH225351   6.154   3.552   0.449 -0.2442 -0.1168 -0.1024
 1239TIP3    H125352   6.246   3.533   0.467  0.0809  0.9864 -0.4604
 1239TIP3    H225353   6.156   3.607   0.371 -1.1726  0.3218  0.1635
 1240TIP3   OH225354   4.644   3.630   7.347 -0.0181  0.2068  0.0680
 1240TIP3    H125355   4.582   3.658   7.414 -1.5055  0.5111 -1.3465
 1240TIP3    H225356   4.600   3.556   7.304  0.7647  0.2035 -0.7545
 1241TIP3   OH225357   3.594   0.398   6.978  0.2062  0.0951  0.1916
 1241TIP3    H125358   3.616   0.463   7.045  1.6046  0.9565 -1.0194
 1241TIP3    H225359   3.679   0.369   6.945 -0.3978 -2.2064  0.5090
 1242TIP3   OH225360   5.278   4.605   1.982 -0.2494 -0.1497  0.1005
 1242TIP3    H125361   5.200   4.660   1.991  1.4652  2.8014 -1.5693
 1242TIP3    H225362   5.290   4.565   2.068 -2.6563  0.5840  0.8449
 1243TIP3   OH225363   5.772   3.290   7.550 -0.3612  0.2086 -0.3389
 1243TIP3    H125364   5.761   3.198   7.572  2.5196 -0.3481 -0.8369
 1243TIP3    H225365   5.765   3.335   7.635 -0.2882 -0.6310  0.1255
 1244TIP3   OH225366   3.269   3.599   8.586  0.2109  0.7909  0.2526
 1244TIP3    H125367   3.351   3.577   8.543  0.4643 -1.2893  1.6541
 1244TIP3    H225368   3.206   3.609   8.515  1.4068  1.3221 -0.7751
 1245TIP3   OH225369   1.708   1.901   8.211 -0.0837  0.1252  0.0301
 1245TIP3    H125370   1.791   1.937   8.242 -0.8161  2.7002 -0.6885
 1245TIP3    H225371   1.643   1.935   8.272 -0.8491  0.0383 -0.7235
 1246TIP3   OH225372   4.285   0.896   0.262  0.4275  0.0514  0.0283
 1246TIP3    H125373   4.369   0.936   0.284  0.9178 -0.8274 -0.2053
 1246TIP3    H225374   4.241   0.961   0.206  1.5243 -0.0506 -0.9733
 1247TIP3   OH225375   2.590   2.408   6.038  0.3675  0.3990  0.0345
 1247TIP3    H125376   2.626   2.493   6.062 -0.8444  1.8737 -2.8198
 1247TIP3    H225377   2.541   2.425   5.957  0.6482 -3.1429 -1.0658
 1248TIP3   OH225378   2.593   4.028   1.119 -0.3531  0.5040 -0.6909
 1248TIP3    H125379   2.673   3.978   1.131 -0.6354  0.3358  0.6907
 1248TIP3    H225380   2.523   3.966   1.139 -0.7855  0.9755 -0.7232
 1249TIP3   OH225381   5.723   1.550   6.811  0.1487 -0.6544 -0.4919
 1249TIP3    H125382   5.759   1.582   6.894  0.7388 -1.4946 -0.4022
 1249TIP3    H225383   5.796   1.555   6.749  0.3108 -1.9244 -0.4332
 1250TIP3   OH225384   4.702   3.338   8.221  0.3159  0.1689  0.0260
 1250TIP3    H125385   4.663   3.319   8.307  0.0231 -2.0715 -0.5294
 1250TIP3    H225386   4.772   3.400   8.240  0.8490 -0.9332  2.0491
 1251TIP3   OH225387   4.237   1.093   0.104 -0.3409  0.0554  0.2390
 1251TIP3    H125388   4.299   1.069   0.034  0.0533  0.7961  0.3256
 1251TIP3    H225389   4.167   1.140   0.059 -0.1089  0.4935  0.3275
 1252TIP3   OH225390   5.521   2.146   2.271  0.3093  0.1089  0.1131
 1252TIP3    H125391   5.453   2.124   2.335  0.1026 -0.2562 -0.2303
 1252TIP3    H225392   5.535   2.065   2.222 -0.4540  0.7267 -1.1775
 1253TIP3   OH225393   4.845   2.798   8.781 -0.3888 -0.4220  0.6321
 1253TIP3    H125394   4.840   2.704   8.798  0.9047 -0.6467 -0.1094
 1253TIP3    H225395   4.889   2.834   8.859 -0.6065 -0.4766  0.7800
 1254TIP3   OH225396   5.623   2.515   1.482  0.3649 -0.0483  0.2027
 1254TIP3    H125397   5.634   2.436   1.430 -1.4251 -0.3065  0.1363
 1254TIP3    H225398   5.703   2.521   1.534  2.0066 -0.0198 -2.1945
 1255TIP3   OH225399   6.689   2.529   1.216 -0.2592 -0.1397 -0.7996
 1255TIP3    H125400   6.683   2.625   1.208  0.2888 -0.0165  0.1216
 1255TIP3    H225401   6.772   2.514   1.261  0.1149 -1.1120 -1.7787
 1256TIP3   OH225402   0.330   3.894   0.217 -0.1031  0.2611 -0.0661
 1256TIP3    H125403   0.409   3.897   0.163  0.2176  1.3554  0.4273
 1256TIP3    H225404   0.312   3.801   0.229  1.7601 -0.0464  0.7585
 1257TIP3   OH225405   5.940   6.557   8.971 -0.5006  0.1722 -0.2070
 1257TIP3    H125406   5.943   6.463   8.957 -0.2179  0.1890 -0.2843
 1257TIP3    H225407   5.857   6.574   9.014 -0.7496 -0.0616 -0.5966
 1258TIP3   OH225408   2.694   4.988   8.718  0.6296 -0.3991 -0.6968
 1258TIP3    H125409   2.619   5.009   8.662 -1.0093  0.6648  1.6951
 1258TIP3    H225410   2.752   5.064   8.710  0.1069  0.0282 -0.5256
 1259TIP3   OH225411   0.494   6.646   8.280  0.2122 -0.3305  0.2463
 1259TIP3    H125412   0.508   6.600   8.363 -1.7698 -0.7861  0.3766
 1259TIP3    H225413   0.566   6.708   8.275  0.7608 -0.7633  1.9716
 1260TIP3   OH225414   3.039   3.244   0.433 -0.0987 -0.6486 -0.4276
 1260TIP3    H125415   3.054   3.166   0.379 -0.6424 -0.0183 -1.5264
 1260TIP3    H225416   3.011   3.311   0.371 -0.3964  0.2106  0.6011
 1261TIP3   OH225417   0.211   2.882   7.183  0.4193 -0.1780  0.5496
 1261TIP3    H125418   0.237   2.962   7.228  0.1778  0.5228 -0.5357
 1261TIP3    H225419   0.117   2.893   7.166  0.3561 -0.7484  0.5134
 1262TIP3   OH225420   6.178   5.320   1.452  0.2702 -0.0691 -0.5468
 1262TIP3    H125421   6.154   5.282   1.536  0.3327 -0.0461 -0.5196
 1262TIP3    H225422   6.268   5.349   1.462  0.6332 -1.0211 -0.9475
 1263TIP3   OH225423   2.583   0.334   7.141  0.0082 -0.0441 -0.3967
 1263TIP3    H125424   2.663   0.377   7.113 -0.0172  0.7667  0.7086
 1263TIP3    H225425   2.535   0.316   7.060  1.6915 -1.3689 -1.1530
 1264TIP3   OH225426   0.222   1.549   1.014 -0.1148  0.3537 -0.0442
 1264TIP3    H125427   0.201   1.496   1.091 -0.9253  0.0611 -0.4549
 1264TIP3    H225428   0.138   1.566   0.973  0.1526  1.8166 -0.0302
 1265TIP3   OH225429   5.404   3.298   7.527  0.0976  0.0868 -0.0444
 1265TIP3    H125430   5.326   3.282   7.474 -0.7375  0.3011  1.0764
 1265TIP3    H225431   5.444   3.211   7.538 -0.7431 -0.2442  0.4877
 1266TIP3   OH225432   6.233   0.316   8.736  0.2088 -0.0907 -0.5350
 1266TIP3    H125433   6.221   0.252   8.666 -1.3468 -2.0124  1.3146
 1266TIP3    H225434   6.290   0.272   8.799  1.1077  1.3500 -0.3014
 1267TIP3   OH225435   6.701   3.513   7.342  0.0024 -0.5072  0.7189
 1267TIP3    H125436   6.711   3.556   7.427  1.8408 -1.7989  1.2172
 1267TIP3    H225437   6.690   3.585   7.280  0.6611  0.5741  1.8028
 1268TIP3   OH225438   1.204   3.573   1.237 -0.1524 -0.2914 -0.1924
 1268TIP3    H125439   1.142   3.552   1.307  0.4606  1.2669  0.8728
 1268TIP3    H225440   1.206   3.668   1.235  0.7906 -0.3171 -1.5059
 1269TIP3   OH225441   3.397   3.001   7.959 -0.2043 -0.6493  0.1950
 1269TIP3    H125442   3.438   2.973   8.041 -1.0150 -2.5944 -0.0024
 1269TIP3    H225443   3.466   2.995   7.894 -0.1064 -1.2583  0.3502
 1270TIP3   OH225444   5.261   5.844   0.973  0.6259  0.0534 -0.3287
 1270TIP3    H125445   5.245   5.912   0.907  0.6174  0.1901 -0.1859
 1270TIP3    H225446   5.179   5.838   1.022  1.1776  1.1848  0.8003
 1271TIP3   OH225447   2.728   0.898   0.928 -0.1939  0.5000  0.5660
 1271TIP3    H125448   2.686   0.984   0.941 -0.0770  1.2310 -2.7897
 1271TIP3    H225449   2.707   0.876   0.837  0.6266 -2.6262  1.0334
 1272TIP3   OH225450   4.177   6.076   1.273  0.1954 -0.6917 -0.0508
 1272TIP3    H125451   4.164   6.090   1.367  0.1915 -1.8707  0.1371
 1272TIP3    H225452   4.091   6.089   1.234  0.4172  0.9837 -0.0730
 1273TIP3   OH225453   4.784   2.675   0.709 -0.0233  0.0149 -0.3719
 1273TIP3    H125454   4.844   2.698   0.780  2.1713 -0.3251 -2.0025
 1273TIP3    H225455   4.792   2.580   0.700 -0.9494 -0.0605 -0.5255
 1274TIP3   OH225456   2.396   2.440   7.105 -0.1119 -0.1090  0.8792
 1274TIP3    H125457   2.426   2.530   7.099 -2.9790  0.9979  1.5113
 1274TIP3    H225458   2.413   2.403   7.018  1.9578  0.6863  0.8971
 1275TIP3   OH225459   6.482   4.944   1.480 -0.3588  0.0016 -0.3367
 1275TIP3    H125460   6.527   4.862   1.462 -0.2761 -0.2480  0.9583
 1275TIP3    H225461   6.550   5.011   1.473 -0.7245  0.2178 -3.0266
 1276TIP3   OH225462   3.602   0.477   0.647  0.2003  0.7918  0.4063
 1276TIP3    H125463   3.680   0.505   0.694  0.9405  0.0849 -0.3631
 1276TIP3    H225464   3.588   0.546   0.581  1.1280  0.1478 -0.4939
 1277TIP3   OH225465   5.837   0.647   8.826  0.1053  0.5322 -0.8340
 1277TIP3    H125466   5.802   0.590   8.757 -1.6949  1.1359 -0.4748
 1277TIP3    H225467   5.829   0.735   8.791  1.3714  0.6908 -0.7519
 1278TIP3   OH225468   5.798   3.310   0.669 -0.0251 -0.3259  0.3302
 1278TIP3    H125469   5.722   3.308   0.727 -1.0868 -0.8613 -1.0381
 1278TIP3    H225470   5.857   3.373   0.710 -2.7467  3.0221 -0.4604
 1279TIP3   OH225471   4.756   2.069   0.539  0.4596 -0.1538  0.2383
 1279TIP3    H125472   4.838   2.116   0.519  0.2887 -0.2054 -0.6135
 1279TIP3    H225473   4.778   2.016   0.616  0.8689  0.7577  0.7804
 1280TIP3   OH225474   1.937   0.895   8.706 -0.1744 -0.3495 -0.4084
 1280TIP3    H125475   1.870   0.853   8.760  0.7356 -0.7815  0.4088
 1280TIP3    H225476   1.969   0.826   8.649  0.7453 -0.5684  0.3645
 1281TIP3   OH225477   5.136   0.797   0.704 -0.0555 -0.2624 -0.2149
 1281TIP3    H125478   5.083   0.720   0.688 -0.3745 -0.0303 -0.2920
 1281TIP3    H225479   5.122   0.852   0.626 -0.2168  0.0908  0.0624
 1282TIP3   OH225480   3.560   2.403   0.664  0.7232  0.0556  0.2362
 1282TIP3    H125481   3.525   2.324   0.624  1.4732 -1.7681  2.9753
 1282TIP3    H225482   3.505   2.474   0.629  0.1572 -1.5655 -2.4365
 1283TIP3   OH225483   3.585   1.280   8.713  0.5051 -0.2242 -0.5510
 1283TIP3    H125484   3.550   1.227   8.784  0.7246  0.0238 -0.2512
 1283TIP3    H225485   3.582   1.224   8.636  0.7639 -0.6804 -0.2310
 1284TIP3   OH225486   2.828   1.035   8.971  0.1546  0.6615  0.3841
 1284TIP3    H125487   2.899   0.994   8.921 -1.6446  0.9556 -2.6274
 1284TIP3    H225488   2.813   0.976   9.045  1.7007 -0.8026 -0.4108
 1285TIP3   OH225489   4.221   2.723   6.724  0.0310 -0.3098 -0.2983
 1285TIP3    H125490   4.165   2.646   6.737  1.1852 -1.1554 -0.2365
 1285TIP3    H225491   4.190   2.761   6.641 -0.0276 -1.3013 -0.7454
 1286TIP3   OH225492   4.488   0.144   8.294 -1.1232  0.1882  0.1954
 1286TIP3    H125493   4.568   0.147   8.347 -1.9789 -0.2592  1.5661
 1286TIP3    H225494   4.500   0.068   8.236 -1.4226 -1.2262  1.9004
 1287TIP3   OH225495   4.483   6.572   8.561 -0.3185  0.2562  0.0754
 1287TIP3    H125496   4.478   6.492   8.613 -1.5583  0.5048  0.3865
 1287TIP3    H225497   4.446   6.639   8.618  0.0048  0.8994 -0.4607
 1288TIP3   OH225498   1.249   0.368   0.656 -0.5611 -0.4030 -0.4020
 1288TIP3    H125499   1.162   0.374   0.617 -0.6896 -0.0607 -0.0634
 1288TIP3    H225500   1.244   0.291   0.713 -0.7228 -0.2325 -0.1844
 1289TIP3   OH225501   5.364   2.787   1.085 -0.7093 -0.0815 -0.6696
 1289TIP3    H125502   5.272   2.805   1.104 -0.6431  0.4097 -0.7884
 1289TIP3    H225503   5.411   2.833   1.154 -0.4972  0.9653 -1.4845
 1290TIP3   OH225504   4.842   2.619   6.645 -0.3450 -0.0090 -0.1259
 1290TIP3    H125505   4.798   2.704   6.637  0.3320  0.4017  0.3895
 1290TIP3    H225506   4.920   2.627   6.590 -0.4774 -0.4394 -0.3820
 1291TIP3   OH225507   0.407   1.972   8.199  0.0236  0.1307  0.0722
 1291TIP3    H125508   0.464   1.897   8.217  0.2218  0.4240  0.6929
 1291TIP3    H225509   0.392   2.012   8.285  0.2730  1.0598 -0.3036
 1292TIP3   OH225510   0.587   6.654   1.290 -0.3988 -0.0171 -0.5235
 1292TIP3    H125511   0.532   6.669   1.214 -0.3937 -0.3170 -0.5862
 1292TIP3    H225512   0.559   6.569   1.325 -0.3426  0.0766 -0.2437
 1293TIP3   OH225513   4.700   0.881   8.447 -0.4122  0.6477  0.0288
 1293TIP3    H125514   4.780   0.847   8.488 -1.3477  0.9247  2.2338
 1293TIP3    H225515   4.641   0.806   8.442 -1.8925  1.3963  3.4227
 1294TIP3   OH225516   4.021   6.524   0.812 -0.1967  0.0190 -0.1009
 1294TIP3    H125517   3.984   6.603   0.773 -0.5677 -0.0315  0.1382
 1294TIP3    H225518   4.087   6.494   0.749  0.2018  0.7171 -0.0267
 1295TIP3   OH225519   1.986   6.142   0.869 -0.7516 -0.3271 -0.2258
 1295TIP3    H125520   2.064   6.198   0.870 -1.5523  0.8331 -1.0007
 1295TIP3    H225521   1.997   6.088   0.791 -0.1984 -0.9514  0.2735
 1296TIP3   OH225522   6.580   1.065   6.895  0.1550 -0.7451  0.2247
 1296TIP3    H125523   6.643   1.034   6.829 -1.4983 -0.4640 -1.5811
 1296TIP3    H225524   6.585   1.160   6.889  0.5706 -0.7015  1.1241
 1297TIP3   OH225525   4.245   0.442   2.120 -0.1685  0.0470 -0.7085
 1297TIP3    H125526   4.210   0.398   2.043 -1.1610 -0.2983 -0.0880
 1297TIP3    H225527   4.228   0.382   2.192  1.8145 -0.1637 -0.3647
 1298TIP3   OH225528   6.770   6.237   1.092 -0.1188 -0.4118 -0.2261
 1298TIP3    H125529   6.787   6.286   1.012  1.4085  1.7067  1.2862
 1298TIP3    H225530   6.699   6.177   1.069 -1.2294  1.6246 -2.5529
 1299TIP3   OH225531   4.320   5.346   8.499 -0.2142 -0.2016  0.5044
 1299TIP3    H125532   4.320   5.341   8.403  1.3380  0.0017  0.4649
 1299TIP3    H225533   4.383   5.280   8.527  0.1167  0.4378  1.3254
 1300TIP3   OH225534   2.121   5.654   0.461  0.1440 -0.1837  0.1653
 1300TIP3    H125535   2.072   5.724   0.504  1.2022 -0.2259  1.5070
 1300TIP3    H225536   2.210   5.687   0.455  0.9480 -1.8333  1.9220
 1301TIP3   OH225537   3.409   1.490   8.236 -0.4974 -0.5414 -0.2892
 1301TIP3    H125538   3.441   1.540   8.311 -1.5343 -0.3652  0.0531
 1301TIP3    H225539   3.422   1.547   8.161 -0.2316 -0.3852 -0.1246
 1302TIP3   OH225540   1.808   4.818   8.213  0.0281  0.3248  0.2334
 1302TIP3    H125541   1.737   4.863   8.260 -0.8724  0.3434 -1.0985
 1302TIP3    H225542   1.868   4.888   8.187  0.2694  0.3711  0.8874
 1303TIP3   OH225543   4.518   2.568   8.778  0.7854 -0.4463  0.1060
 1303TIP3    H125544   4.524   2.618   8.859  1.5016 -0.9367  0.3564
 1303TIP3    H225545   4.602   2.524   8.769 -0.3905 -3.0812  0.8553
 1304TIP3   OH225546   4.905   1.394   8.781  0.3661 -0.0861 -0.3927
 1304TIP3    H125547   4.843   1.320   8.785  0.3607 -0.0692  3.3433
 1304TIP3    H225548   4.908   1.417   8.688 -2.3570 -2.4864 -1.2468
 1305TIP3   OH225549   4.740   0.191   8.462 -1.1573  0.2440 -0.4978
 1305TIP3    H125550   4.767   0.121   8.403 -1.2172 -1.4412  1.3531
 1305TIP3    H225551   4.818   0.209   8.515 -1.5906  0.4763  0.0716
 1306TIP3   OH225552   2.178   0.631   8.736  0.3583  0.1307  0.4118
 1306TIP3    H125553   2.230   0.555   8.709 -0.2898 -0.7071  1.4143
 1306TIP3    H225554   2.235   0.706   8.722  0.7173 -0.4447 -1.3933
 1307TIP3   OH225555   4.328   6.652   8.851 -0.0204  0.2947  0.1219
 1307TIP3    H125556   4.324   6.557   8.865  0.3955  0.0519 -1.3098
 1307TIP3    H225557   4.378   6.684   8.926 -0.5159 -0.5439  0.8488
 1308TIP3   OH225558   4.751   0.129   6.809 -0.4978  0.3659  0.2813
 1308TIP3    H125559   4.823   0.192   6.807  2.8185 -3.0491  1.0858
 1308TIP3    H225560   4.703   0.151   6.889  1.5958  0.9137  1.4649
 1309TIP3   OH225561   6.752   4.546   1.279 -0.5650  0.0075 -0.1134
 1309TIP3    H125562   6.788   4.634   1.285  0.6986 -0.5446  1.0254
 1309TIP3    H225563   6.773   4.517   1.190  1.5958 -0.1568  0.3929
 1310TIP3   OH225564   4.793   6.500   0.600  0.1817 -1.0355  0.0869
 1310TIP3    H125565   4.803   6.595   0.604 -0.5065 -0.8973 -1.0832
 1310TIP3    H225566   4.734   6.484   0.526  0.9532 -2.4202 -0.2752
 1311TIP3   OH225567   6.445   3.167   8.757 -0.1655 -0.2347  0.1724
 1311TIP3    H125568   6.390   3.245   8.756  0.1017 -0.0307  0.9647
 1311TIP3    H225569   6.445   3.139   8.849  1.9994  0.4410  0.4218
 1312TIP3   OH225570   6.494   1.760   7.082 -0.0018 -0.5235 -0.4457
 1312TIP3    H125571   6.487   1.769   6.987 -2.3437 -0.5446 -0.3249
 1312TIP3    H225572   6.403   1.756   7.113  0.6938 -0.1991  1.8301
 1313TIP3   OH225573   4.846   1.606   0.682 -0.6053  0.4724  0.6508
 1313TIP3    H125574   4.813   1.536   0.626  0.1901  0.0636  0.6862
 1313TIP3    H225575   4.845   1.569   0.770 -1.3547  0.9362  0.8503
 1314TIP3   OH225576   0.833   3.785   7.931 -0.5887  0.0314  0.0617
 1314TIP3    H125577   0.839   3.770   7.837 -0.7447  2.0210 -0.3103
 1314TIP3    H225578   0.740   3.797   7.948 -0.8977 -2.9308  0.9832
 1315TIP3   OH225579   4.494   6.656   0.673 -0.5338 -0.3777 -0.2780
 1315TIP3    H125580   4.411   6.683   0.711 -0.2442 -1.9171  1.5671
 1315TIP3    H225581   4.525   6.733   0.625 -2.6057  0.4739 -0.3202
 1316TIP3   OH225582   2.389   0.455   8.976  0.0840 -0.2077  0.1785
 1316TIP3    H125583   2.314   0.511   8.996  1.2427  1.5475 -0.2101
 1316TIP3    H225584   2.410   0.474   8.885  2.0265  0.6410  0.7595
 1317TIP3   OH225585   2.441   1.618   8.386 -0.1705 -0.0602 -0.4583
 1317TIP3    H125586   2.369   1.681   8.372  0.4147  0.5351 -0.8455
 1317TIP3    H225587   2.413   1.567   8.461 -0.6537  0.6881 -0.1118
 1318TIP3   OH225588   2.332   4.883   0.524 -0.2806  0.5924  0.1285
 1318TIP3    H125589   2.399   4.951   0.537  0.8214 -0.4709  0.1613
 1318TIP3    H225590   2.287   4.878   0.609  1.6396 -0.7917  1.1363
 1319TIP3   OH225591   0.498   2.280   0.019  0.1450 -0.1156  0.2901
 1319TIP3    H125592   0.451   2.327   0.088  0.6419  1.1863 -0.2170
 1319TIP3    H225593   0.505   2.344  -0.052  0.3002 -1.1820 -0.6839
 1320TIP3   OH225594   3.116   4.291   7.714 -0.5476  0.2223 -0.4528
 1320TIP3    H125595   3.174   4.281   7.639 -0.1551  3.3860 -0.7010
 1320TIP3    H225596   3.173   4.320   7.785 -1.4016  0.4520  0.1536
 1321TIP3   OH225597   3.235   1.840   7.200 -0.3732  0.8802 -0.9495
 1321TIP3    H125598   3.273   1.760   7.162  1.1610  1.2238 -0.2000
 1321TIP3    H225599   3.308   1.902   7.204 -0.8136  1.3499  1.1707
 1322TIP3   OH225600   0.924   1.762   1.129  0.2667  0.3483 -0.5217
 1322TIP3    H125601   0.966   1.704   1.193 -0.2320  0.8495  0.2691
 1322TIP3    H225602   0.832   1.733   1.128  0.3149  0.2008 -1.1810
 1323TIP3   OH225603   6.697   5.604   7.185 -0.2440  0.0131  0.0096
 1323TIP3    H125604   6.699   5.513   7.215 -1.4096  0.3749  1.3321
 1323TIP3    H225605   6.619   5.609   7.129 -0.1495  0.1669 -0.1091
 1324TIP3   OH225606   2.327   4.628   7.853 -0.9111 -0.1967  0.5029
 1324TIP3    H125607   2.388   4.612   7.925 -2.4271 -0.3550  1.8021
 1324TIP3    H225608   2.268   4.696   7.886 -0.7124  0.8682 -1.1911
 1325TIP3   OH225609   1.407   1.029   8.325  0.4228 -0.5075  0.0663
 1325TIP3    H125610   1.467   1.016   8.398 -2.9157 -1.4010  2.8791
 1325TIP3    H225611   1.367   1.114   8.342 -0.4340 -0.7469 -0.6940
 1326TIP3   OH225612   2.615   6.544   0.181 -0.2338  0.0592 -0.0182
 1326TIP3    H125613   2.525   6.544   0.215  0.0504  0.6113  0.7718
 1326TIP3    H225614   2.625   6.458   0.140 -1.1007 -0.0347 -0.0576
 1327TIP3   OH225615   4.118   1.154   8.824  0.6632  0.2194  0.1624
 1327TIP3    H125616   4.092   1.064   8.844  1.4130  0.1984  1.1208
 1327TIP3    H225617   4.046   1.189   8.772  0.3486 -0.9212 -0.2022
 1328TIP3   OH225618   6.343   4.415   0.504 -0.7602  0.2391  0.2053
 1328TIP3    H125619   6.322   4.329   0.539  1.7505 -0.4588  0.1845
 1328TIP3    H225620   6.437   4.412   0.486 -1.2287  1.6823 -3.4585
 1329TIP3   OH225621   0.111   0.816   0.238 -0.3917  0.2583 -0.1744
 1329TIP3    H125622   0.107   0.910   0.256  2.6806  0.4433  0.1305
 1329TIP3    H225623   0.155   0.809   0.154  1.8347 -0.8471  0.9812
 1330TIP3   OH225624   4.634   0.148   0.579  0.1859 -0.2013 -0.6024
 1330TIP3    H125625   4.599   0.231   0.611 -1.0787 -0.5081 -1.0922
 1330TIP3    H225626   4.631   0.155   0.484  0.0135 -0.8163 -0.6530
 1331TIP3   OH225627   1.488   0.059   0.622 -0.2584  0.1266  0.2163
 1331TIP3    H125628   1.411   0.017   0.661 -0.3972  0.8009  0.6855
 1331TIP3    H225629   1.540  -0.014   0.589 -2.9771 -0.2822 -3.8611
 1332TIP3   OH225630   6.718   4.262   8.653  0.0819  0.5310 -0.6043
 1332TIP3    H125631   6.627   4.281   8.677 -0.5245 -0.8927 -1.6465
 1332TIP3    H225632   6.769   4.294   8.727 -1.3388  0.5366  0.4165
 1333TIP3   OH225633   3.980   1.069   0.641 -0.5371 -0.1873 -0.4138
 1333TIP3    H125634   3.945   1.158   0.649 -0.8075 -0.0791 -2.2630
 1333TIP3    H225635   3.921   1.027   0.579 -0.4668 -1.7084  0.5111
 1334TIP3   OH225636   0.656   3.186   7.854  0.7666 -0.0025 -0.9331
 1334TIP3    H125637   0.577   3.134   7.871  0.0852  0.7410 -1.7690
 1334TIP3    H225638   0.700   3.192   7.939 -0.8821  0.9009 -0.1178
 1335TIP3   OH225639   5.419   0.417   0.999 -0.1906  0.6072 -0.2729
 1335TIP3    H125640   5.324   0.410   0.993 -0.3783  0.8255  1.8307
 1335TIP3    H225641   5.451   0.383   0.915 -2.0463 -1.2082 -0.3143
 1336TIP3   OH225642   5.545   6.378   7.964 -0.2458 -0.3375 -0.2435
 1336TIP3    H125643   5.467   6.422   7.931 -1.6331 -0.4077  2.5973
 1336TIP3    H225644   5.588   6.343   7.886 -0.7369  3.2763 -2.3420
 1337TIP3   OH225645   0.480   0.094   0.095  0.5379 -0.0442 -0.0487
 1337TIP3    H125646   0.446   0.170   0.143  0.0782  0.2812 -0.8737
 1337TIP3    H225647   0.569   0.082   0.130 -0.0958 -0.3982  1.5501
 1338TIP3   OH225648   0.589   1.494   8.915 -0.4524 -0.0471 -0.3898
 1338TIP3    H125649   0.532   1.493   8.991 -1.0194 -0.9031 -0.8186
 1338TIP3    H225650   0.667   1.543   8.944 -1.3842  1.1345  0.1955
 1339TIP3   OH225651   4.239   3.252   7.628  0.1408 -0.2121  0.4349
 1339TIP3    H125652   4.320   3.212   7.599 -0.4838 -1.0649 -0.1896
 1339TIP3    H225653   4.234   3.233   7.722  1.0757  0.6041  0.6614
 1340TIP3   OH225654   0.155   5.853   1.038  0.5394  0.2927  0.0456
 1340TIP3    H125655   0.219   5.790   1.005  0.3235  0.1449 -0.0895
 1340TIP3    H225656   0.101   5.803   1.100  0.1768  0.2656 -0.2884
 1341TIP3   OH225657   4.454   1.442   7.482 -0.0317 -0.4340 -0.0571
 1341TIP3    H125658   4.446   1.537   7.473  2.6852 -0.0798  0.4434
 1341TIP3    H225659   4.417   1.407   7.402 -1.7807  0.9702  0.0668
 1342TIP3   OH225660   1.739   2.999   8.257 -0.1560 -0.3383  0.1008
 1342TIP3    H125661   1.734   3.003   8.353 -0.1642 -2.2435  0.2322
 1342TIP3    H225662   1.808   2.935   8.239 -0.2892 -0.1564 -1.1700
 1343TIP3   OH225663   0.084   3.467   6.523  0.0706  0.0554  0.4428
 1343TIP3    H125664   0.131   3.408   6.582  0.1436  1.0754  1.4415
 1343TIP3    H225665   0.007   3.495   6.573  0.0777  0.8592  0.0322
 1344TIP3   OH225666   3.242   2.266   6.887 -0.0990 -0.3374  0.1508
 1344TIP3    H125667   3.217   2.175   6.874  0.5374 -0.4330 -0.4677
 1344TIP3    H225668   3.273   2.295   6.801  0.7739  0.1179  0.5995
 1345TIP3   OH225669   5.089   3.749   7.881 -0.1355  0.1856  1.2045
 1345TIP3    H125670   5.161   3.759   7.943 -0.6258  0.8506  1.6963
 1345TIP3    H225671   5.040   3.674   7.913  0.7706 -0.7685  0.4068
 1346TIP3   OH225672   5.867   4.005   7.792  0.6877 -0.2323 -0.5265
 1346TIP3    H125673   5.919   3.924   7.784 -0.5052 -0.9457 -1.3747
 1346TIP3    H225674   5.839   4.024   7.702  0.0833  0.5394 -0.1842
 1347TIP3   OH225675   5.301   0.551   7.212  0.3073  0.1807  0.5394
 1347TIP3    H125676   5.213   0.558   7.174  0.5944  0.2994 -0.1181
 1347TIP3    H225677   5.340   0.638   7.198  0.5465  0.1173  0.7936
 1348TIP3   OH225678   3.506   1.723   1.037  0.4995  0.3323 -0.2720
 1348TIP3    H125679   3.530   1.643   0.992  3.7093  1.3417 -0.5474
 1348TIP3    H225680   3.465   1.693   1.119  1.1413 -1.5616 -0.6076
 1349TIP3   OH225681   3.788   0.714   8.373 -0.1259  0.7177 -0.0011
 1349TIP3    H125682   3.815   0.623   8.368 -1.0453  0.5229 -2.7071
 1349TIP3    H225683   3.858   0.763   8.329 -1.3273  0.8496 -1.8626
 1350TIP3   OH225684   0.550   2.516   0.548  0.2520 -0.7620 -0.0080
 1350TIP3    H125685   0.484   2.496   0.482 -0.6507  0.4626  0.4842
 1350TIP3    H225686   0.628   2.539   0.498  0.0771 -1.4476 -0.6138
 1351TIP3   OH225687   1.395   4.192   8.522 -0.1608 -0.2438 -0.0210
 1351TIP3    H125688   1.479   4.212   8.482 -0.9124  0.4309 -1.3354
 1351TIP3    H225689   1.394   4.243   8.603  0.2317  0.6569 -0.5756
 1352TIP3   OH225690   0.832   5.276   1.609  0.0973  0.3824  1.2585
 1352TIP3    H125691   0.871   5.334   1.543 -1.1035  0.9905  1.0449
 1352TIP3    H225692   0.905   5.224   1.642  0.5690 -0.7219 -1.3252
 1353TIP3   OH225693   2.693   2.193   7.455 -0.6469  0.3082  0.1959
 1353TIP3    H125694   2.715   2.284   7.436  2.2122 -0.2894  0.2126
 1353TIP3    H225695   2.711   2.146   7.373 -0.3172 -0.4824  0.7099
 1354TIP3   OH225696   3.313   1.791   0.358 -0.3046  0.1120  0.3920
 1354TIP3    H125697   3.236   1.736   0.373  0.5777 -0.9678  1.0747
 1354TIP3    H225698   3.387   1.739   0.390  0.7461  1.0257 -0.4658
 1355TIP3   OH225699   2.668   1.240   8.933 -0.3087 -0.1414 -0.4557
 1355TIP3    H125700   2.648   1.283   9.016  0.2534  0.0426 -0.4152
 1355TIP3    H225701   2.699   1.153   8.957 -0.4128 -0.1893 -0.4905
 1356TIP3   OH225702   6.072   1.847   8.719 -0.8529  0.4283 -0.2452
 1356TIP3    H125703   5.990   1.800   8.732 -0.8098  0.7401  1.3055
 1356TIP3    H225704   6.095   1.881   8.806  1.5194 -0.6391 -0.3648
 1357TIP3   OH225705   6.719   5.640   0.789  0.1423  0.4459  0.0099
 1357TIP3    H125706   6.638   5.626   0.739  0.2617  1.8659 -0.6284
 1357TIP3    H225707   6.723   5.735   0.801  1.6766  0.3897  0.0911
 1358TIP3   OH225708   4.473   3.082   0.845 -0.2155  0.1717  0.1244
 1358TIP3    H125709   4.438   3.160   0.802 -2.8039 -1.0852 -0.3144
 1358TIP3    H225710   4.560   3.071   0.808 -0.0168  2.4737 -0.2582
 1359TIP3   OH225711   1.441   3.196   1.569  0.1634  0.3658  0.1840
 1359TIP3    H125712   1.386   3.262   1.528  2.5659  2.7067  0.4735
 1359TIP3    H225713   1.455   3.228   1.658  0.7327 -0.9676  0.6091
 1360TIP3   OH225714   5.633   3.159   1.681 -0.1693  0.0073  0.1218
 1360TIP3    H125715   5.650   3.252   1.694 -1.8833  0.2417  0.9484
 1360TIP3    H225716   5.645   3.120   1.768  1.5512 -0.7689 -0.4090
 1361TIP3   OH225717   0.097   1.821   8.090 -0.2404 -0.6423 -0.3939
 1361TIP3    H125718   0.086   1.835   7.996  1.2257 -0.9156 -0.6346
 1361TIP3    H225719   0.192   1.826   8.104 -0.4974  0.4245  1.2424
 1362TIP3   OH225720   3.995   6.058   8.982  0.0219  0.2954  0.3023
 1362TIP3    H125721   3.919   6.006   8.960 -1.1479  2.6197 -1.6125
 1362TIP3    H225722   4.052   6.051   8.905  0.4107  0.8292  0.5344
 1363TIP3   OH225723   1.430   5.517   1.615 -0.7067 -0.2581  0.0897
 1363TIP3    H125724   1.466   5.496   1.529  0.1873 -1.4247  0.7209
 1363TIP3    H225725   1.343   5.478   1.615 -0.1885 -1.4586  0.1791
 1364TIP3   OH225726   6.534   5.476   2.115 -0.4742 -0.0322  0.2609
 1364TIP3    H125727   6.628   5.494   2.109 -0.1658 -1.1773  1.2527
 1364TIP3    H225728   6.529   5.382   2.133 -1.8683 -0.2563 -1.1496
 1365TIP3   OH225729   0.776   0.007   0.119 -0.4694  0.5431 -0.1958
 1365TIP3    H125730   0.776   0.083   0.061 -0.2418  2.0573  1.6912
 1365TIP3    H225731   0.738  -0.063   0.066 -0.4023  1.8565 -2.1075
 1366TIP3   OH225732   4.978   2.375   7.221  0.5669  0.4007 -0.4251
 1366TIP3    H125733   4.897   2.418   7.194  0.6232  0.2877 -0.7868
 1366TIP3    H225734   4.977   2.292   7.172  1.6651  1.0879 -1.6796
 1367TIP3   OH225735   5.160   6.558   6.747  0.2300 -0.2662  0.0500
 1367TIP3    H125736   5.205   6.612   6.682 -0.6678  1.6097  0.9145
 1367TIP3    H225737   5.201   6.472   6.739  1.1166  0.2896 -1.9885
 1368TIP3   OH225738   3.042   3.142   6.906  0.7013  0.7484 -0.5319
 1368TIP3    H125739   3.049   3.104   6.818  1.5387 -1.3428  0.3675
 1368TIP3    H225740   3.099   3.087   6.960  0.6588  2.3430  1.2221
 1369TIP3   OH225741   4.717   4.749   0.829  0.7834  0.2534  0.2637
 1369TIP3    H125742   4.666   4.691   0.886  1.6787 -1.2461 -0.4118
 1369TIP3    H225743   4.768   4.802   0.890  1.0222 -0.6747  0.8916
 1370TIP3   OH225744   5.378   0.774   8.967 -0.0598 -0.4936  0.4159
 1370TIP3    H125745   5.317   0.739   9.032  1.6937 -2.6866  0.9734
 1370TIP3    H225746   5.414   0.853   9.008 -3.1850  1.5496 -0.3751
 1371TIP3   OH225747   4.238   5.355   6.900 -0.5823 -0.1086  0.0389
 1371TIP3    H125748   4.293   5.396   6.967 -0.9685  0.3539  0.0726
 1371TIP3    H225749   4.188   5.289   6.947  1.0816 -1.6774 -0.2461
 1372TIP3   OH225750   4.379   0.659   7.766  0.3193  0.6929 -0.1472
 1372TIP3    H125751   4.387   0.729   7.831 -0.8515  0.8486 -0.1440
 1372TIP3    H225752   4.436   0.685   7.694  2.3305  0.0978  1.1451
 1373TIP3   OH225753   5.783   1.328   0.512  0.2154 -0.4868  0.6986
 1373TIP3    H125754   5.688   1.322   0.524 -0.7160  1.3582 -3.8396
 1373TIP3    H225755   5.805   1.249   0.462  0.7585 -0.2256  0.5178
 1374TIP3   OH225756   2.671   6.396   7.006  0.5019 -0.5142  0.4609
 1374TIP3    H125757   2.666   6.406   6.911 -0.6994 -2.0244  0.3235
 1374TIP3    H225758   2.632   6.476   7.041  3.4571  1.3955 -0.1805
 1375TIP3   OH225759   2.867   2.890   0.223  0.0318 -0.1329 -0.6226
 1375TIP3    H125760   2.947   2.929   0.257 -2.3085  2.3652  2.6303
 1375TIP3    H225761   2.858   2.808   0.272  1.0852 -1.0501 -1.8807
 1376TIP3   OH225762   3.576   5.254   7.550  0.4491  0.5663  0.2019
 1376TIP3    H125763   3.565   5.326   7.488  0.0936  1.3815  1.1816
 1376TIP3    H225764   3.669   5.254   7.571  0.2473  1.6785  1.2486
 1377TIP3   OH225765   1.353   0.937   6.872 -0.1614 -0.4218 -0.5789
 1377TIP3    H125766   1.390   0.946   6.960 -1.6243  0.6928 -0.0409
 1377TIP3    H225767   1.362   1.023   6.832  3.5860 -1.6608 -2.9043
 1378TIP3   OH225768   2.093   2.846   7.451  0.3320  0.0382 -0.7045
 1378TIP3    H125769   2.039   2.771   7.426  0.5039 -0.4679  0.3699
 1378TIP3    H225770   2.183   2.818   7.433  0.2965  0.6221 -1.8496
 1379TIP3   OH225771   3.598   5.346   6.858  0.3899 -0.6179 -0.3721
 1379TIP3    H125772   3.628   5.325   6.946  0.7386 -0.3781 -0.4291
 1379TIP3    H225773   3.504   5.361   6.867  0.5532  0.1878  0.1059
 1380TIP3   OH225774   6.377   1.716   0.182  0.5063 -0.2094 -0.6847
 1380TIP3    H125775   6.345   1.670   0.104  1.3614 -0.1719 -1.0790
 1380TIP3    H225776   6.393   1.647   0.246 -0.4986 -0.2092 -0.4295
 1381TIP3   OH225777   1.076   6.197   8.813  0.2655  0.3683  0.4664
 1381TIP3    H125778   1.097   6.291   8.817 -0.2433  0.6514 -2.1276
 1381TIP3    H225779   0.993   6.193   8.766 -1.6271 -1.2408  3.6186
 1382TIP3   OH225780   5.383   0.485   7.478 -0.0653  0.1852  0.4104
 1382TIP3    H125781   5.331   0.520   7.406 -1.5669 -1.2245  0.7611
 1382TIP3    H225782   5.473   0.487   7.445 -0.4327  1.6717 -0.6160
 1383TIP3   OH225783   5.592   0.223   1.575  0.5770 -0.0771 -0.0280
 1383TIP3    H125784   5.546   0.260   1.499 -0.7686 -2.5736 -0.5357
 1383TIP3    H225785   5.660   0.167   1.538  0.8055 -0.2547  0.6431
 1384TIP3   OH225786   6.533   2.065   1.961  0.4732 -0.3525 -0.4233
 1384TIP3    H125787   6.499   2.134   2.018 -0.5968 -0.4962 -0.8555
 1384TIP3    H225788   6.573   2.113   1.888 -2.8281 -0.0748 -2.2327
 1385TIP3   OH225789   5.813   1.351   1.851  0.4017  0.5693  0.1934
 1385TIP3    H125790   5.764   1.290   1.906 -1.0852  1.8369  0.3307
 1385TIP3    H225791   5.824   1.429   1.906  1.4398  0.7943 -0.3141
 1386TIP3   OH225792   0.789   4.037   7.485  0.1689  0.3347 -0.2517
 1386TIP3    H125793   0.733   4.087   7.426 -0.3900  1.8228  1.4560
 1386TIP3    H225794   0.769   4.070   7.573  1.9763 -0.7901  0.6731
 1387TIP3   OH225795   3.578   2.907   8.145  0.4090  0.4588  0.0818
 1387TIP3    H125796   3.645   2.976   8.141  0.6230  0.2057 -2.4862
 1387TIP3    H225797   3.626   2.827   8.161  0.2978  0.6796  1.7140
 1388TIP3   OH225798   5.737   0.761   0.529 -0.1351 -0.6254  0.2831
 1388TIP3    H125799   5.810   0.799   0.482 -1.0612  0.7805 -0.0819
 1388TIP3    H225800   5.768   0.755   0.620 -0.0471  1.4186  0.4515
 1389TIP3   OH225801   1.441   4.842   1.549 -0.3439 -0.1564 -0.6845
 1389TIP3    H125802   1.352   4.808   1.540 -0.3368 -0.6433  0.8334
 1389TIP3    H225803   1.483   4.822   1.465 -1.4451 -0.5553 -1.1617
 1390TIP3   OH225804   4.354   0.167   6.759 -0.7539  1.0894  0.2328
 1390TIP3    H125805   4.380   0.247   6.806 -2.8397  1.9197  0.0655
 1390TIP3    H225806   4.260   0.161   6.773 -0.6313 -1.5011  0.4206
 1391TIP3   OH225807   2.913   3.897   8.472  0.2856  0.1223  0.0270
 1391TIP3    H125808   2.826   3.932   8.452 -0.3190 -1.7516 -0.8470
 1391TIP3    H225809   2.899   3.844   8.551  0.9743  0.9685  0.7395
 1392TIP3   OH225810   1.916   6.152   0.568 -0.4035  0.0675  0.2091
 1392TIP3    H125811   1.925   6.247   0.556 -1.9032  0.0876 -1.0531
 1392TIP3    H225812   1.830   6.131   0.532  0.9570 -2.1664 -2.1558
 1393TIP3   OH225813   1.316   1.744   1.040  0.0251 -0.0255  0.6631
 1393TIP3    H125814   1.402   1.785   1.029 -0.3163  0.4498 -0.3751
 1393TIP3    H225815   1.307   1.731   1.134  1.7759 -1.2702  0.7184
 1394TIP3   OH225816   2.873   6.583   1.188  0.8871  0.4762  0.1207
 1394TIP3    H125817   2.864   6.555   1.097  3.1136 -1.8819  0.5044
 1394TIP3    H225818   2.808   6.531   1.235 -0.0508  1.4668 -0.0619
 1395TIP3   OH225819   6.096   5.700   7.435  0.2243  0.2502 -0.2314
 1395TIP3    H125820   6.009   5.678   7.401  0.1769 -0.0481  0.0802
 1395TIP3    H225821   6.157   5.651   7.379  0.3021  1.7295 -1.5159
 1396TIP3   OH225822   5.024   6.608   8.117  0.5531 -0.2571  0.1786
 1396TIP3    H125823   5.046   6.518   8.141  3.5354  0.5213  0.7052
 1396TIP3    H225824   4.973   6.599   8.036  0.8754 -2.3878  0.1595
 1397TIP3   OH225825   1.602   6.480   8.975 -0.1287 -0.1737 -0.2739
 1397TIP3    H125826   1.583   6.421   9.047  1.0150  1.2716  1.2802
 1397TIP3    H225827   1.539   6.551   8.984 -0.3723 -0.2658 -1.0956
 1398TIP3   OH225828   1.372   1.180   0.406  0.7267  0.8107 -0.0830
 1398TIP3    H125829   1.359   1.111   0.341  1.1034 -0.2492  0.9203
 1398TIP3    H225830   1.307   1.247   0.385  0.3873  0.1697 -1.1132
 1399TIP3   OH225831   2.797   1.438   6.925 -0.4808 -0.0070  0.1585
 1399TIP3    H125832   2.737   1.510   6.945 -0.4028  0.2301 -0.4410
 1399TIP3    H225833   2.884   1.477   6.931 -0.3725 -0.4002  1.2271
 1400TIP3   OH225834   0.894   4.023   2.616 -1.0237  0.1764 -0.1975
 1400TIP3    H125835   0.989   4.025   2.610 -1.0563  0.8361 -0.6645
 1400TIP3    H225836   0.872   3.930   2.621 -0.2243  0.0323  2.6773
 1401TIP3   OH225837   4.655   5.708   0.955 -0.5437  0.2763  0.8226
 1401TIP3    H125838   4.605   5.634   0.923 -1.1936  1.3670 -0.8037
 1401TIP3    H225839   4.688   5.680   1.041  0.1088 -2.2535 -0.1860
 1402TIP3   OH225840   1.495   2.582   8.236 -0.1173  0.2162  0.3823
 1402TIP3    H125841   1.414   2.628   8.262 -0.4212  1.7617 -2.8541
 1402TIP3    H225842   1.495   2.585   8.141  1.9838 -3.0388  0.1175
 1403TIP3   OH225843   5.280   0.612   1.829 -0.0805  0.2433 -0.3468
 1403TIP3    H125844   5.291   0.536   1.771  0.4880  0.7638 -0.9406
 1403TIP3    H225845   5.185   0.619   1.842 -0.2040 -0.0330 -1.0264
 1404TIP3   OH225846   1.277   1.814   0.636  0.1623  0.0679 -0.1603
 1404TIP3    H125847   1.371   1.801   0.647  0.2605  0.7589 -0.1140
 1404TIP3    H225848   1.270   1.891   0.578 -0.3698 -0.2064 -0.4671
 1405TIP3   OH225849   6.741   6.544   1.317  0.0386  0.1740 -0.1395
 1405TIP3    H125850   6.654   6.569   1.285  0.4890  0.1761 -1.4103
 1405TIP3    H225851   6.732   6.452   1.341 -0.3056  0.1603 -0.3093
 1406TIP3   OH225852   3.782   3.649   1.871 -0.0358 -0.3719 -0.3573
 1406TIP3    H125853   3.801   3.700   1.793 -0.7724  1.4061  0.5717
 1406TIP3    H225854   3.863   3.600   1.889  0.9785  1.0716 -0.8512
 1407TIP3   OH225855   1.709   2.843   8.007 -0.1982  0.3131  0.6689
 1407TIP3    H125856   1.780   2.788   8.037  0.0214 -0.4173 -1.0957
 1407TIP3    H225857   1.711   2.919   8.066  2.1685  0.4225  0.5224
 1408TIP3   OH225858   2.665   1.151   0.928  0.4436  0.1618  0.0043
 1408TIP3    H125859   2.699   1.219   0.987  1.7012 -1.1353  0.8266
 1408TIP3    H225860   2.713   1.165   0.846 -0.1335  0.9572 -0.2143
 1409TIP3   OH225861   5.991   2.858   6.775 -0.3941 -0.0780 -0.3973
 1409TIP3    H125862   6.032   2.780   6.738 -0.4162  1.1935 -3.3724
 1409TIP3    H225863   5.900   2.853   6.744 -0.6776  0.5908  0.3098
 1410TIP3   OH225864   3.673   3.823   6.258 -0.0776  0.1181  0.2892
 1410TIP3    H125865   3.591   3.864   6.230 -0.8429  0.0287  2.3063
 1410TIP3    H225866   3.740   3.871   6.209 -1.2144  1.2493 -0.2402
 1411TIP3   OH225867   2.748   4.773   7.589 -0.3931  0.5241  0.5792
 1411TIP3    H125868   2.815   4.711   7.618  1.0877  2.0662  0.6181
 1411TIP3    H225869   2.773   4.795   7.499 -1.8617 -0.1479 -0.0301
 1412TIP3   OH225870   3.222   4.390   1.287 -0.0591 -0.0557  0.4884
 1412TIP3    H125871   3.247   4.478   1.314 -1.2447  1.1559 -1.9882
 1412TIP3    H225872   3.298   4.357   1.239  0.3258 -0.3523  1.2831
 1413TIP3   OH225873   3.020   6.525   0.813  0.2301 -0.2256 -0.2714
 1413TIP3    H125874   2.940   6.490   0.853  0.0073  0.6569  0.0813
 1413TIP3    H225875   3.083   6.529   0.885 -0.1008  1.1464 -0.0186
 1414TIP3   OH225876   0.672   1.012   8.161 -0.3292  0.3109  0.3122
 1414TIP3    H125877   0.620   0.931   8.160 -0.4757  0.4055  0.2316
 1414TIP3    H225878   0.760   0.983   8.185 -0.9240  0.4592  2.9837
 1415TIP3   OH225879   1.413   4.357   8.043 -0.3527  0.8762 -0.3757
 1415TIP3    H125880   1.404   4.262   8.043 -0.5815  0.8832  0.6155
 1415TIP3    H225881   1.324   4.391   8.040 -0.2749  1.0593 -0.6704
 1416TIP3   OH225882   0.202   3.553   7.323  0.5712 -0.0081 -0.2434
 1416TIP3    H125883   0.120   3.504   7.331  0.2164  0.6798  0.6189
 1416TIP3    H225884   0.210   3.573   7.230 -1.4017  1.7736 -0.1277
 1417TIP3   OH225885   3.234   0.427   0.578 -0.3501  0.0769 -0.1126
 1417TIP3    H125886   3.238   0.335   0.553 -0.4584  0.5422 -1.9830
 1417TIP3    H225887   3.254   0.474   0.497  1.0070  1.6869  1.0951
 1418TIP3   OH225888   2.450   2.106   2.096 -0.4919  0.2468  0.8515
 1418TIP3    H125889   2.543   2.127   2.086 -0.2880 -0.9176  0.2203
 1418TIP3    H225890   2.426   2.060   2.016 -1.8092  1.1298  0.6952
 1419TIP3   OH225891   4.500   2.874   1.555  0.4564  0.2377  0.1983
 1419TIP3    H125892   4.507   2.837   1.468 -1.5795  1.2128 -0.4555
 1419TIP3    H225893   4.446   2.812   1.604 -1.4753  1.3881 -0.3765
 1420TIP3   OH225894   6.726   5.781   0.406 -0.8383 -0.1058  0.0465
 1420TIP3    H125895   6.810   5.805   0.366 -0.2818 -1.1262  0.5662
 1420TIP3    H225896   6.735   5.810   0.497 -1.7151  1.2984 -0.2736
 1421TIP3   OH225897   6.565   5.310   0.423  0.1230 -0.8865  0.4837
 1421TIP3    H125898   6.633   5.370   0.392 -0.2836 -0.1978  0.8995
 1421TIP3    H225899   6.486   5.337   0.376 -0.7166  0.7357  2.6560
 1422TIP3   OH225900   1.828   4.979   0.353  0.2723 -0.5107 -0.4282
 1422TIP3    H125901   1.819   5.070   0.382 -0.1519 -0.0657 -1.8413
 1422TIP3    H225902   1.918   4.973   0.320  0.3576 -0.6555 -0.1702
 1423TIP3   OH225903   5.142   1.266   7.638 -0.1391 -0.1616  0.4592
 1423TIP3    H125904   5.088   1.343   7.655 -0.1506 -0.2091  0.6432
 1423TIP3    H225905   5.088   1.192   7.667 -0.4447 -0.3044 -0.4410
 1424TIP3   OH225906   4.920   5.344   1.904  0.0139 -0.4823 -0.3437
 1424TIP3    H125907   4.848   5.300   1.859  0.4472 -0.7642 -0.7894
 1424TIP3    H225908   4.887   5.365   1.991 -0.9856  0.4322 -0.9300
 1425TIP3   OH225909   2.230   4.510   1.597 -0.0136 -0.6768 -0.0329
 1425TIP3    H125910   2.302   4.449   1.580  0.1364 -0.3008 -0.7639
 1425TIP3    H225911   2.269   4.597   1.589  0.0541 -0.4461  2.2065
 1426TIP3   OH225912   2.719   4.518   7.803 -0.5711  0.6243  0.0126
 1426TIP3    H125913   2.773   4.520   7.724 -0.5010  1.1577  0.0679
 1426TIP3    H225914   2.780   4.537   7.874 -0.6478  0.2164  0.1900
 1427TIP3   OH225915   3.036   6.438   6.865  0.4999  0.1123 -0.1060
 1427TIP3    H125916   3.117   6.388   6.875 -0.6762 -2.3610 -1.8423
 1427TIP3    H225917   3.017   6.436   6.771 -1.6205  0.4744  0.2569
 1428TIP3   OH225918   3.775   3.043   6.890 -0.1514 -0.3592  0.5034
 1428TIP3    H125919   3.830   2.970   6.863  1.8367  0.7702  1.2801
 1428TIP3    H225920   3.753   3.089   6.809 -0.4309 -1.1199  0.1399
 1429TIP3   OH225921   1.062   2.737   1.781 -0.4883 -0.2214  0.0111
 1429TIP3    H125922   1.101   2.758   1.866 -0.5488  1.0790 -0.2674
 1429TIP3    H225923   1.051   2.821   1.737 -2.4595 -0.6429 -0.4276
 1430TIP3   OH225924   6.505   1.172   1.848 -0.1868 -0.2906 -0.5177
 1430TIP3    H125925   6.586   1.221   1.862 -1.0787  0.7872  1.1746
 1430TIP3    H225926   6.511   1.099   1.909  0.2177 -1.1426 -1.5613
 1431TIP3   OH225927   5.976   1.387   6.838  0.7315  0.0966 -0.4655
 1431TIP3    H125928   5.959   1.438   6.759  0.1862  0.8507  0.1257
 1431TIP3    H225929   5.924   1.307   6.826  1.8175 -0.4718 -1.5238
 1432TIP3   OH225930   4.091   3.378   6.736 -0.1130  0.3124  0.1447
 1432TIP3    H125931   4.131   3.431   6.668  0.2622  0.1607  0.2421
 1432TIP3    H225932   4.038   3.439   6.786 -0.7301  0.3446 -0.5372
 1433TIP3   OH225933   0.719   3.098   7.371  0.0878  0.2682 -0.4213
 1433TIP3    H125934   0.672   3.139   7.444 -0.4831 -3.0854  1.2564
 1433TIP3    H225935   0.811   3.123   7.385 -0.2127  0.8870  0.5551
 1434TIP3   OH225936   0.804   4.011   6.812  0.1293 -0.1745 -0.0755
 1434TIP3    H125937   0.888   3.971   6.791 -0.3139 -2.4944  2.0809
 1434TIP3    H225938   0.815   4.044   6.901 -0.5230  1.8012 -0.6811
 1435TIP3   OH225939   2.953   3.042   8.445  0.0201 -0.4335  0.1128
 1435TIP3    H125940   2.988   3.087   8.522  2.0475 -1.6466 -0.0190
 1435TIP3    H225941   2.995   2.956   8.447 -0.0817 -0.5826 -2.2027
 1436TIP3   OH225942   0.044   4.195   6.852  0.1831 -0.4499 -0.7104
 1436TIP3    H125943  -0.051   4.202   6.858  0.2276  4.8591 -0.9381
 1436TIP3    H225944   0.061   4.182   6.759 -0.4644  1.5389 -1.1720
 1437TIP3   OH225945   6.378   2.231   7.245 -0.2143 -0.1842  0.7015
 1437TIP3    H125946   6.375   2.177   7.324 -0.8154  1.4433  1.8514
 1437TIP3    H225947   6.300   2.206   7.196 -0.6883 -0.1008  1.4013
 1438TIP3   OH225948   5.298   0.278   7.287  0.6198  0.1052  0.1592
 1438TIP3    H125949   5.319   0.372   7.291 -0.1685  0.3758 -1.2383
 1438TIP3    H225950   5.265   0.258   7.374 -1.1157  1.6604 -0.0585
 1439TIP3   OH225951   6.134   2.240   1.214  0.1403 -0.4978 -0.1842
 1439TIP3    H125952   6.063   2.297   1.181  0.2903  2.1606  3.5134
 1439TIP3    H225953   6.179   2.211   1.135 -0.8265  3.4642 -2.4824
 1440TIP3   OH225954   3.348   5.078   7.642 -0.1145 -0.2471 -0.6927
 1440TIP3    H125955   3.404   5.145   7.603 -0.0412  0.1938  0.1300
 1440TIP3    H225956   3.401   5.041   7.713 -1.4978  1.5602  1.4371
 1441TIP3   OH225957   3.312   6.757   8.658 -0.2857 -0.1845 -0.1736
 1441TIP3    H125958   3.223   6.756   8.623 -1.1026 -1.2201  1.7706
 1441TIP3    H225959   3.324   6.846   8.691 -0.7082 -0.1162 -0.1998
 1442TIP3   OH225960   1.694   6.308   8.434  0.5445  0.4475  0.0441
 1442TIP3    H125961   1.662   6.218   8.424 -1.7208  1.1545  0.2079
 1442TIP3    H225962   1.717   6.315   8.526 -0.2536  0.3134  0.2594
 1443TIP3   OH225963   2.957   1.123   7.223 -0.9881  0.1431  0.4927
 1443TIP3    H125964   3.006   1.043   7.207  0.5428  1.1967 -0.2307
 1443TIP3    H225965   3.005   1.167   7.293 -0.1535  1.7578 -1.0403
 1444TIP3   OH225966   2.116   2.937   0.755 -0.2367 -0.1207  0.2540
 1444TIP3    H125967   2.035   2.988   0.761  0.0931  0.2718  1.9701
 1444TIP3    H225968   2.088   2.846   0.747 -0.8332  0.0705  0.1499
 1445TIP3   OH225969   5.606   0.792   7.743  0.4404  0.2143 -0.2579
 1445TIP3    H125970   5.528   0.737   7.745  1.1928 -1.0291 -2.2987
 1445TIP3    H225971   5.668   0.749   7.802  0.9976 -1.1622 -1.7831
 1446TIP3   OH225972   3.581   0.109   8.762 -0.1205 -0.0105  0.4744
 1446TIP3    H125973   3.632   0.031   8.785  1.2051  0.9838  1.0360
 1446TIP3    H225974   3.570   0.103   8.667  0.9867 -0.3116  0.3470
 1447TIP3   OH225975   4.910   5.666   1.431 -0.2274 -0.0900  0.1079
 1447TIP3    H125976   4.959   5.744   1.458  1.9315 -0.8532 -1.2657
 1447TIP3    H225977   4.943   5.597   1.489  0.7706 -0.7153 -1.1558
 1448TIP3   OH225978   5.312   3.761   8.064 -0.0707 -0.4681 -0.1469
 1448TIP3    H125979   5.363   3.841   8.077  0.9779 -0.9759 -0.9458
 1448TIP3    H225980   5.344   3.701   8.132 -1.0459 -0.1503  0.6244
 1449TIP3   OH225981   4.624   1.178   2.029  0.3217  0.0450  0.1872
 1449TIP3    H125982   4.684   1.104   2.019  0.9029  0.5095  0.1507
 1449TIP3    H225983   4.540   1.138   2.051  0.9355 -0.5752  1.5452
 1450TIP3   OH225984   5.739   1.210   1.605 -0.2067  0.4143 -0.3155
 1450TIP3    H125985   5.751   1.260   1.686  0.2935 -0.9526  0.4815
 1450TIP3    H225986   5.773   1.123   1.625 -1.6746 -0.4627 -1.4442
 1451TIP3   OH225987   1.319   5.054   6.915  0.0347 -0.0583 -0.0197
 1451TIP3    H125988   1.302   4.962   6.933  0.2997 -0.4090 -1.4311
 1451TIP3    H225989   1.391   5.078   6.974 -0.6601 -0.4798  1.0187
 1452TIP3   OH225990   6.264   0.836   7.894  0.2872  0.1213 -0.1613
 1452TIP3    H125991   6.184   0.878   7.862  0.1836  1.3030  1.4997
 1452TIP3    H225992   6.335   0.878   7.845  0.0196  0.5614 -0.1765
 1453TIP3   OH225993   2.660   5.508   0.517  0.0602 -0.4314 -0.2436
 1453TIP3    H125994   2.578   5.499   0.566  0.6554  0.4539  0.9700
 1453TIP3    H225995   2.709   5.429   0.540  0.2301 -0.1448  0.4182
 1454TIP3   OH225996   5.857   0.982   6.449 -0.2635 -0.4384 -0.1032
 1454TIP3    H125997   5.884   1.057   6.502 -1.3504 -0.1476  0.0573
 1454TIP3    H225998   5.916   0.912   6.476 -0.4698 -0.1599  1.1609
 1455TIP3   OH225999   4.194   2.545   1.279 -0.0259 -0.6497 -0.1919
 1455TIP3    H126000   4.124   2.489   1.245  0.5294 -1.1987 -0.4574
 1455TIP3    H226001   4.223   2.500   1.359  1.6647 -1.7760 -1.3645
 1456TIP3   OH226002   1.586   4.865   7.979  0.1349  0.0458  0.5132
 1456TIP3    H126003   1.541   4.808   8.042 -0.4885  1.4467  1.3878
 1456TIP3    H226004   1.668   4.820   7.960 -0.7769 -1.6301  0.3803
 1457TIP3   OH226005   0.268   0.983   7.584  0.3352 -0.4039  0.6437
 1457TIP3    H126006   0.315   0.901   7.570  1.1100 -0.1699  1.7839
 1457TIP3    H226007   0.176   0.961   7.566  0.6587 -1.2658 -0.0278
 1458TIP3   OH226008   0.620   1.375   2.721  0.0185  0.0088 -0.2054
 1458TIP3    H126009   0.622   1.361   2.626  0.3249  1.7975 -0.4948
 1458TIP3    H226010   0.710   1.393   2.745 -0.1105 -0.0910  0.3759
 1459TIP3   OH226011   4.827   3.802   0.826  0.0216 -0.2087 -0.1039
 1459TIP3    H126012   4.790   3.728   0.777  2.1394 -1.1197 -0.4132
 1459TIP3    H226013   4.839   3.768   0.915  0.3392 -0.0051 -0.0700
 1460TIP3   OH226014   0.239   6.673   6.683  0.3797 -0.1898 -0.2772
 1460TIP3    H126015   0.313   6.614   6.670  1.3259  0.6059  1.1293
 1460TIP3    H226016   0.256   6.747   6.624  0.0322 -0.5914 -0.8812
 1461TIP3   OH226017   4.309   6.198   7.132 -0.4796 -0.5200  0.3073
 1461TIP3    H126018   4.347   6.226   7.049  0.6028 -1.6545  0.4023
 1461TIP3    H226019   4.293   6.280   7.179 -2.1558  0.2273 -1.4152
 1462TIP3   OH226020   5.227   2.373   0.917  0.0018 -0.1552  0.7126
 1462TIP3    H126021   5.296   2.356   0.980  0.3572 -2.1167 -0.1557
 1462TIP3    H226022   5.271   2.415   0.843  0.6886 -2.9757 -0.5960
 1463TIP3   OH226023   3.866   4.537   6.947  0.4669 -0.6545 -0.2095
 1463TIP3    H126024   3.872   4.621   6.901 -1.0749 -1.0904 -1.2894
 1463TIP3    H226025   3.787   4.544   7.000 -0.0468 -1.6419 -0.8155
 1464TIP3   OH226026   1.699   4.519   8.452  0.3727  0.0887 -0.8700
 1464TIP3    H126027   1.727   4.496   8.363  2.7278 -0.3467 -0.0960
 1464TIP3    H226028   1.740   4.604   8.469 -1.5668  1.0502 -0.8146
 1465TIP3   OH226029   5.173   0.664   8.689 -0.8934 -0.4395 -0.4753
 1465TIP3    H126030   5.172   0.569   8.701  0.0227 -0.5294 -1.0919
 1465TIP3    H226031   5.260   0.691   8.716 -0.7728  0.0867 -1.3566
 1466TIP3   OH226032   4.408   2.226   7.484  0.0393  0.1454  0.0893
 1466TIP3    H126033   4.335   2.236   7.545 -0.4853 -1.4292 -0.2400
 1466TIP3    H226034   4.378   2.161   7.421  1.0443  0.8305 -1.1342
 1467TIP3   OH226035   1.376   1.456   1.308  0.2970  0.2238  0.0553
 1467TIP3    H126036   1.309   1.392   1.285 -0.5338  1.2870 -0.5501
 1467TIP3    H226037   1.446   1.441   1.245 -0.0076  0.0840 -0.2500
 1468TIP3   OH226038   0.973   2.202   1.802 -0.4215  0.5670 -0.2632
 1468TIP3    H126039   1.033   2.225   1.873 -1.0109 -1.0268  0.8021
 1468TIP3    H226040   0.931   2.284   1.778  1.1132  1.4517 -0.0306
 1469TIP3   OH226041   1.919   4.398   0.098  0.5946  0.1351 -0.3095
 1469TIP3    H126042   1.896   4.401   0.191  0.0812  0.9313 -0.4549
 1469TIP3    H226043   1.841   4.363   0.055  0.4082  0.8497 -0.5645
 1470TIP3   OH226044   6.508   1.909   7.498  0.5196  0.7056 -0.1198
 1470TIP3    H126045   6.430   1.966   7.498 -0.2628 -0.3258  0.3760
 1470TIP3    H226046   6.582   1.970   7.500 -0.2017  1.7636 -2.4501
 1471TIP3   OH226047   0.139   0.198   7.686 -0.0939 -0.1105 -0.4941
 1471TIP3    H126048   0.198   0.222   7.615  0.5129 -1.6927 -0.5463
 1471TIP3    H226049   0.057   0.176   7.642 -0.4248  1.0276 -0.5003
 1472TIP3   OH226050   2.837   3.357   1.724 -0.0123 -0.2416  0.2078
 1472TIP3    H126051   2.786   3.428   1.686 -0.2390 -1.1725 -1.3140
 1472TIP3    H226052   2.928   3.386   1.718 -0.0649 -0.3016 -0.9143
 1473TIP3   OH226053   6.736   2.565   7.328 -0.0657 -0.3459 -0.3030
 1473TIP3    H126054   6.673   2.551   7.258  0.4575 -2.0566 -0.4911
 1473TIP3    H226055   6.690   2.537   7.407 -0.3098  0.5974 -0.1099
 1474TIP3   OH226056   1.893   1.406   0.266  0.5263 -0.4183  0.2961
 1474TIP3    H126057   1.884   1.359   0.349  2.7073 -0.5580  0.5275
 1474TIP3    H226058   1.925   1.339   0.205 -1.9929 -0.5490 -0.9720
 1475TIP3   OH226059   1.670   3.270   7.251  0.1084 -0.1530 -0.3099
 1475TIP3    H126060   1.668   3.354   7.204  1.7510  0.0629 -0.0493
 1475TIP3    H226061   1.753   3.271   7.298 -1.9094  0.2077  3.7065
 1476TIP3   OH226062   6.219   1.013   7.528  0.0843  0.1536 -0.1951
 1476TIP3    H126063   6.221   0.932   7.477  0.8433 -0.5853  0.9596
 1476TIP3    H226064   6.126   1.025   7.548  0.1020 -1.3996  1.0546
 1477TIP3   OH226065   6.418   0.361   6.509  0.6081 -0.2094 -0.0984
 1477TIP3    H126066   6.440   0.280   6.463 -0.1008  0.2708 -1.3405
 1477TIP3    H226067   6.449   0.347   6.598  1.6003 -1.3656 -0.5974
 1478TIP3   OH226068   3.086   4.918   8.070 -0.1169  0.1195 -0.1294
 1478TIP3    H126069   3.099   5.001   8.117 -0.5721 -0.7218  1.5526
 1478TIP3    H226070   2.996   4.924   8.037 -0.7018 -0.2697  1.2832
 1479TIP3   OH226071   0.277   5.403   1.911  0.1445  0.3689  0.5510
 1479TIP3    H126072   0.283   5.498   1.920  0.7099  0.3415  0.5051
 1479TIP3    H226073   0.250   5.372   1.998  1.0137  0.4896  0.8785
 1480TIP3   OH226074   5.813   0.680   1.776 -0.0869  0.0949 -0.2997
 1480TIP3    H126075   5.759   0.601   1.783 -0.7395  0.6075  0.8451
 1480TIP3    H226076   5.886   0.665   1.836  0.3722 -0.0830 -0.9013
 1481TIP3   OH226077   3.994   2.294   8.532 -0.6177  0.2085  0.0646
 1481TIP3    H126078   4.082   2.331   8.520  0.0345 -0.4286  2.3680
 1481TIP3    H226079   3.973   2.312   8.624 -1.8404 -1.8239  0.2424
 1482TIP3   OH226080   0.669   5.309   2.760 -0.3664  0.3733  0.4141
 1482TIP3    H126081   0.670   5.355   2.676 -3.4657  0.3305  0.2409
 1482TIP3    H226082   0.668   5.217   2.737  0.7921  0.2892  0.6169
 1483TIP3   OH226083   3.121   3.724   0.330  0.0229 -0.0661  0.0017
 1483TIP3    H126084   3.043   3.684   0.369 -1.1427  0.9204 -1.2226
 1483TIP3    H226085   3.134   3.805   0.379  0.2676 -0.1953  0.1586
 1484TIP3   OH226086   1.713   0.121   0.862 -0.0665  0.2672  0.0133
 1484TIP3    H126087   1.675   0.067   0.793 -0.9835 -0.2742  0.9067
 1484TIP3    H226088   1.663   0.202   0.860 -1.9636 -0.7564  1.7301
 1485TIP3   OH226089   3.257   0.456   1.388  0.2889 -0.5582 -0.3386
 1485TIP3    H126090   3.349   0.471   1.367  0.9647  1.0312  3.0407
 1485TIP3    H226091   3.256   0.372   1.434  0.0591 -0.5791 -0.3785
 1486TIP3   OH226092   1.484   2.556   0.713  0.4251 -0.3756  0.4162
 1486TIP3    H126093   1.401   2.588   0.677  0.3516 -2.1176 -1.1301
 1486TIP3    H226094   1.474   2.461   0.715  2.0968 -0.5670  0.9502
 1487TIP3   OH226095   0.228   4.118   0.030 -0.4730 -0.4724 -0.1567
 1487TIP3    H126096   0.239   4.059   0.105  0.0048  0.5363  0.5839
 1487TIP3    H226097   0.133   4.124   0.019 -0.5527 -0.5455  0.4374
 1488TIP3   OH226098   5.114   5.244   8.020 -0.4649  0.4889 -0.0687
 1488TIP3    H126099   5.081   5.329   7.991 -0.8848  0.1507 -0.6001
 1488TIP3    H226100   5.147   5.202   7.940  1.0842  0.7262  0.3962
 1489TIP3   OH226101   3.039   3.443   6.717 -0.4343  0.2682 -0.4215
 1489TIP3    H126102   3.060   3.535   6.702  0.9962 -0.1044 -0.8197
 1489TIP3    H226103   3.111   3.410   6.770 -1.1498 -0.5341  0.0798
 1490TIP3   OH226104   2.582   1.790   0.369  0.5483 -0.1970  0.0215
 1490TIP3    H126105   2.588   1.856   0.438 -1.2017 -0.5900  0.5964
 1490TIP3    H226106   2.563   1.841   0.290 -0.2150  0.0573  0.3541
 1491TIP3   OH226107   1.160   4.537   0.580 -0.1288  0.7762 -0.5739
 1491TIP3    H126108   1.214   4.512   0.506  2.4933 -0.3198  1.5335
 1491TIP3    H226109   1.208   4.610   0.621 -0.3925  0.0363  1.1478
 1492TIP3   OH226110   1.553   5.881   0.562  0.1382  0.0609  0.0542
 1492TIP3    H126111   1.541   5.824   0.486 -0.4108  0.7029 -0.3609
 1492TIP3    H226112   1.522   5.830   0.636 -3.4834  0.8810 -0.6984
 1493TIP3   OH226113   6.014   4.652   1.173  0.2971  0.3522 -0.6088
 1493TIP3    H126114   6.076   4.586   1.204 -0.9061  0.2289  1.7546
 1493TIP3    H226115   6.032   4.729   1.228  0.1821  1.2553 -1.8000
 1494TIP3   OH226116   0.567   6.417   0.356  0.5591 -0.2669 -0.0929
 1494TIP3    H126117   0.546   6.406   0.263  0.4638 -0.2189 -0.0772
 1494TIP3    H226118   0.647   6.469   0.356 -0.2896  1.0993 -0.1268
 1495TIP3   OH226119   6.627   2.811   1.165 -0.3216  0.0210  0.4590
 1495TIP3    H126120   6.686   2.871   1.211  0.4680  0.4594 -1.0513
 1495TIP3    H226121   6.548   2.810   1.219  1.0411 -0.6411  2.5937
 1496TIP3   OH226122   1.374   2.820   7.142  0.1984  0.0573  0.1978
 1496TIP3    H126123   1.289   2.828   7.183  1.0300 -0.8065  2.1927
 1496TIP3    H226124   1.436   2.813   7.214  2.2846  3.0973 -1.0870
 1497TIP3   OH226125   2.112   2.253   8.913  0.6143  0.0208 -0.1274
 1497TIP3    H126126   2.125   2.345   8.891  1.8462  0.0485  0.6502
 1497TIP3    H226127   2.147   2.244   9.002  2.7636 -1.6926 -1.0680
 1498TIP3   OH226128   3.767   6.486   6.610 -1.1740 -0.0628  0.1807
 1498TIP3    H126129   3.713   6.417   6.648  0.4896 -2.7758 -1.9964
 1498TIP3    H226130   3.721   6.512   6.531 -1.5431  1.0152  0.7334
 1499TIP3   OH226131   4.995   2.486   0.771  0.4760 -0.1247  0.2976
 1499TIP3    H126132   5.058   2.437   0.823 -0.1074 -1.6991 -0.3934
 1499TIP3    H226133   4.933   2.419   0.741 -1.0884  1.2563  0.3466
 1500TIP3   OH226134   5.315   5.849   7.378  0.2077 -0.0238 -0.0514
 1500TIP3    H126135   5.224   5.830   7.399 -0.1202  1.6209  0.1974
 1500TIP3    H226136   5.328   5.816   7.289 -0.4647 -0.7281  0.1016
 1501TIP3   OH226137   2.123   5.113   0.968  0.2859 -0.3552  0.7209
 1501TIP3    H126138   2.128   5.018   0.982 -1.0805 -0.5050  0.3890
 1501TIP3    H226139   2.061   5.144   1.034 -0.1729  0.1122  0.0916
 1502TIP3   OH226140   5.095   3.278   0.264  0.0357  0.0798 -0.2424
 1502TIP3    H126141   5.059   3.202   0.217  1.9923 -0.0672 -1.6416
 1502TIP3    H226142   5.160   3.241   0.324 -0.8712  0.4702  1.0257
 1503TIP3   OH226143   2.436   6.358   1.429  0.2623  0.2201 -0.7978
 1503TIP3    H126144   2.387   6.346   1.510  2.0021  0.1428  0.2734
 1503TIP3    H226145   2.368   6.358   1.360 -1.1793 -0.3446  0.5652
 1504TIP3   OH226146   2.795   4.055   7.313 -0.2286 -0.4020 -0.4197
 1504TIP3    H126147   2.779   4.121   7.246  1.5223 -0.5507 -1.0426
 1504TIP3    H226148   2.754   4.090   7.392 -0.1386  0.9837 -0.9646
 1505TIP3   OH226149   0.827   6.195   8.677  0.1327 -0.3261  0.3150
 1505TIP3    H126150   0.856   6.276   8.635  3.8153 -0.7144  1.7408
 1505TIP3    H226151   0.765   6.224   8.743  2.3567  1.6322  1.7147
 1506TIP3   OH226152   2.928   2.274   8.933 -0.2339 -0.3624  0.7849
 1506TIP3    H126153   2.895   2.190   8.963  0.1124  0.0216  2.3393
 1506TIP3    H226154   2.869   2.299   8.862 -0.4534 -1.8090  0.4132
 1507TIP3   OH226155   2.191   5.921   7.837 -0.2263  0.0085  0.0423
 1507TIP3    H126156   2.238   5.902   7.917 -0.3968 -2.2311 -0.3280
 1507TIP3    H226157   2.114   5.970   7.866  1.5601  2.6088  0.7714
 1508TIP3   OH226158   5.967   4.860   1.535  0.2891  0.2596  0.3963
 1508TIP3    H126159   5.931   4.923   1.473  0.2328 -0.9533 -0.8357
 1508TIP3    H226160   6.034   4.909   1.583 -1.2390  1.8448  0.9981
 1509TIP3   OH226161   1.442   4.524   1.380 -0.0394  0.1959  0.0798
 1509TIP3    H126162   1.399   4.438   1.387  3.1259 -1.5141  0.1375
 1509TIP3    H226163   1.512   4.522   1.445  1.1674  2.1619 -1.0590
 1510TIP3   OH226164   4.210   0.249   7.973 -0.0621 -0.9403 -0.0334
 1510TIP3    H126165   4.181   0.218   7.888  0.6340  0.8444 -0.9748
 1510TIP3    H226166   4.295   0.290   7.956 -0.7498  1.1434  1.1106
 1511TIP3   OH226167   6.487   4.024   7.801  0.7407  0.2293  0.2142
 1511TIP3    H126168   6.492   4.081   7.877  1.0396 -0.8915  1.0626
 1511TIP3    H226169   6.439   4.075   7.735 -0.2655  0.9100  1.4404
 1512TIP3   OH226170   2.535   3.847   1.678  0.2871  0.3111  0.7461
 1512TIP3    H126171   2.584   3.902   1.618 -0.6613 -0.2296 -0.5656
 1512TIP3    H226172   2.458   3.818   1.628 -0.7215  0.1235  2.3288
 1513TIP3   OH226173   4.484   5.994   8.153  0.2269 -0.5891 -0.4296
 1513TIP3    H126174   4.559   6.049   8.177 -0.6090  0.6483 -0.5933
 1513TIP3    H226175   4.409   6.052   8.157 -0.7978 -1.8900  0.0341
 1514TIP3   OH226176   1.879   1.734   7.527 -0.8285 -0.1739  0.1461
 1514TIP3    H126177   1.896   1.639   7.528  1.1160  0.0692 -2.0000
 1514TIP3    H226178   1.787   1.742   7.549 -1.4305 -2.6861 -1.0671
 1515TIP3   OH226179   6.120   3.513   8.357  0.4868  0.3070  0.0601
 1515TIP3    H126180   6.168   3.570   8.296  0.3225  0.7780  0.3620
 1515TIP3    H226181   6.145   3.424   8.332  0.6170  0.5062 -0.5288
 1516TIP3   OH226182   3.443   5.421   1.604  0.3408 -0.0201  0.0340
 1516TIP3    H126183   3.524   5.472   1.611 -0.0759  0.5043  1.4028
 1516TIP3    H226184   3.377   5.485   1.575  0.6980 -0.7984 -2.7759
 1517TIP3   OH226185   1.679   1.176   6.201 -0.4024 -0.5459  0.2887
 1517TIP3    H126186   1.693   1.269   6.181  1.4506  0.0959  3.7527
 1517TIP3    H226187   1.766   1.137   6.199 -1.2274 -2.5039 -1.8560
 1518TIP3   OH226188   1.269   2.005   8.411 -0.2758  0.9091  0.5051
 1518TIP3    H126189   1.242   2.036   8.324 -1.2076 -0.7589  0.1634
 1518TIP3    H226190   1.214   2.055   8.471 -2.5804 -0.7192 -0.0937
 1519TIP3   OH226191   6.643   2.163   7.493 -0.0766  0.0572  0.6396
 1519TIP3    H126192   6.644   2.173   7.398  0.1349 -0.3122  0.5996
 1519TIP3    H226193   6.568   2.214   7.522 -0.1187  0.2038  0.2776
 1520TIP3   OH226194   5.485   6.478   0.527  0.4198  0.0326  0.0328
 1520TIP3    H126195   5.435   6.417   0.471  0.8324 -1.3928  1.1582
 1520TIP3    H226196   5.435   6.481   0.609  0.4182  1.2377  0.0095
 1521TIP3   OH226197   5.523   2.339   0.570  0.6702  0.3902 -0.0672
 1521TIP3    H126198   5.581   2.370   0.500  0.6203 -0.7015 -0.6091
 1521TIP3    H226199   5.465   2.414   0.588 -0.3410  0.2099 -2.2885
 1522TIP3   OH226200   3.091   0.008   7.958 -0.4704  0.1485  0.6590
 1522TIP3    H126201   3.063   0.050   7.877  1.5872  0.0356 -0.1768
 1522TIP3    H226202   3.088  -0.086   7.939 -1.8971  0.0098  1.4230
 1523TIP3   OH226203   0.618   5.798   8.289  0.0998  0.3154 -0.5528
 1523TIP3    H126204   0.666   5.824   8.211  0.1532 -0.5536 -0.8169
 1523TIP3    H226205   0.651   5.711   8.310 -0.7926  0.0336 -0.2754
 1524TIP3   OH226206   3.619   4.850   8.083  0.6158 -0.2050  0.5969
 1524TIP3    H126207   3.675   4.925   8.101  1.0558 -0.8120  1.9329
 1524TIP3    H226208   3.553   4.851   8.152 -2.2447  1.5034 -1.9115
 1525TIP3   OH226209   1.994   3.977   0.955 -0.2963  0.0057  0.0205
 1525TIP3    H126210   2.021   3.885   0.951  0.7972  0.2801  0.8762
 1525TIP3    H226211   2.042   4.019   0.883 -0.9137 -0.1027 -0.4688
 1526TIP3   OH226212   5.340   0.626   2.178  0.0810 -0.5996  0.3422
 1526TIP3    H126213   5.410   0.572   2.141 -0.7875 -0.2074 -2.1084
 1526TIP3    H226214   5.385   0.690   2.233  1.4045 -1.8158  0.7256
 1527TIP3   OH226215   0.094   3.222   0.890  0.3722 -0.0019 -0.4361
 1527TIP3    H126216   0.048   3.139   0.900 -2.7739  1.5001 -0.9572
 1527TIP3    H226217   0.148   3.210   0.812  0.6904 -1.8177  0.0234
 1528TIP3   OH226218   6.552   3.472   7.039 -0.4228  0.4560 -0.4740
 1528TIP3    H126219   6.575   3.427   6.958 -1.5234  1.4171 -1.3761
 1528TIP3    H226220   6.628   3.462   7.096  0.4389 -0.0985 -1.6934
 1529TIP3   OH226221   3.538   1.274   1.030  0.2822  0.6136  0.2494
 1529TIP3    H126222   3.533   1.179   1.035 -0.4526  0.6683  0.7624
 1529TIP3    H226223   3.493   1.305   1.109 -0.2131  1.3929 -0.3190
 1530TIP3   OH226224   2.310   3.493   6.800  0.0137  0.6749 -0.4771
 1530TIP3    H126225   2.358   3.414   6.827 -1.8490  0.1549  1.5970
 1530TIP3    H226226   2.378   3.561   6.794  1.1754 -0.2393  1.3916
 1531TIP3   OH226227   4.772   6.778   0.803 -0.0889 -0.5736 -0.3488
 1531TIP3    H126228   4.716   6.817   0.737 -0.6074  0.4300  0.6447
 1531TIP3    H226229   4.857   6.768   0.760 -0.3916  0.1250 -1.1268
 1532TIP3   OH226230   6.632   5.799   7.750 -0.4350  0.2474 -0.3487
 1532TIP3    H126231   6.716   5.757   7.731 -0.5334  0.3649 -1.0656
 1532TIP3    H226232   6.581   5.731   7.794 -0.6198 -0.4274 -1.5570
 1533TIP3   OH226233   0.668   3.760   8.907  0.1591 -0.1513  1.1166
 1533TIP3    H126234   0.609   3.819   8.954 -1.6100 -0.7901 -0.1708
 1533TIP3    H226235   0.609   3.697   8.865  1.7825 -0.8378 -0.2394
 1534TIP3   OH226236   0.236   3.685   6.661 -0.1761 -0.5669 -0.2148
 1534TIP3    H126237   0.329   3.672   6.642 -0.4212 -1.7891 -0.6420
 1534TIP3    H226238   0.192   3.614   6.616 -1.4787  0.8414 -1.2498
 1535TIP3   OH226239   4.575   0.655   8.754  0.2286 -0.0343  0.5519
 1535TIP3    H126240   4.525   0.710   8.814  1.4821  0.6899  0.9844
 1535TIP3    H226241   4.550   0.686   8.667 -1.1080 -0.6447  0.6943
 1536TIP3   OH226242   4.931   6.162   8.746  0.1577 -0.1902  1.0415
 1536TIP3    H126243   4.977   6.079   8.730 -0.9558 -0.4892 -1.0632
 1536TIP3    H226244   4.993   6.230   8.718 -0.2118 -0.5393 -0.7633
 1537TIP3   OH226245   4.457   6.154   2.000  0.3551  0.3371 -0.1036
 1537TIP3    H126246   4.459   6.216   2.072  0.6675  0.7124 -0.4273
 1537TIP3    H226247   4.549   6.129   1.987  0.5119  1.4118 -1.3256
 1538TIP3   OH226248   3.461   4.829   8.310 -0.5911 -0.0423  0.6350
 1538TIP3    H126249   3.520   4.884   8.361 -0.6025  0.6817 -0.1171
 1538TIP3    H226250   3.375   4.866   8.324 -0.6350 -0.0292  0.3344
 1539TIP3   OH226251   2.636   0.956   0.652  0.1973 -0.4496  0.7506
 1539TIP3    H126252   2.720   0.939   0.611 -0.5826  0.9839 -1.6206
 1539TIP3    H226253   2.620   1.049   0.638 -2.2913 -0.9108  0.0405
 1540TIP3   OH226254   0.960   3.813   1.218  0.4162  0.5158  0.3636
 1540TIP3    H126255   0.882   3.759   1.230  2.3535 -2.5197  0.2897
 1540TIP3    H226256   0.976   3.852   1.304 -1.0314  1.0825  0.4138
 1541TIP3   OH226257   0.630   6.631   0.558 -0.0305  0.6812 -0.0247
 1541TIP3    H126258   0.566   6.666   0.496  0.5160  0.3608 -0.7803
 1541TIP3    H226259   0.709   6.620   0.506 -0.2408 -1.9503  0.1088
 1542TIP3   OH226260   5.357   1.738   0.493 -0.2371 -0.5080  0.2961
 1542TIP3    H126261   5.296   1.672   0.526  0.7659 -0.7852  1.6408
 1542TIP3    H226262   5.427   1.742   0.558  0.8871  0.2446 -0.9095
 1543TIP3   OH226263   4.327   0.862   2.643 -0.6722 -0.1732 -0.0978
 1543TIP3    H126264   4.295   0.890   2.558  0.6780  1.3275 -0.1700
 1543TIP3    H226265   4.397   0.800   2.623 -1.4944 -1.1493 -0.0151
 1544TIP3   OH226266   2.798   2.904   0.524  0.1861 -0.1229 -0.3201
 1544TIP3    H126267   2.860   2.972   0.550 -1.1100  1.6609 -1.6450
 1544TIP3    H226268   2.807   2.898   0.429 -1.8256  0.4074 -0.5949
 1545TIP3   OH226269   1.802   1.666   0.760  0.0219 -0.1144 -0.0939
 1545TIP3    H126270   1.828   1.629   0.676  0.4134 -2.0360  0.8189
 1545TIP3    H226271   1.883   1.698   0.799 -0.3159  1.8203 -0.8805
 1546TIP3   OH226272   5.527   2.195   6.457  0.1527  0.7186 -0.0568
 1546TIP3    H126273   5.464   2.247   6.507  1.0186  0.4926  1.3283
 1546TIP3    H226274   5.479   2.115   6.435 -0.6276  1.3426 -0.6707
 1547TIP3   OH226275   5.634   0.861   1.224  0.0054  0.2507  0.0911
 1547TIP3    H126276   5.717   0.897   1.192  0.5853 -1.2153 -0.1561
 1547TIP3    H226277   5.579   0.855   1.147  0.3555 -0.5141 -0.1154
 1548TIP3   OH226278   3.460   5.760   8.959  0.0014 -0.6398  1.2326
 1548TIP3    H126279   3.464   5.671   8.994 -0.8989 -0.5907  1.4805
 1548TIP3    H226280   3.468   5.816   9.036 -1.2377 -0.5267  1.2952
 1549TIP3   OH226281   2.685   2.669   6.940 -0.9578 -0.3223 -0.4824
 1549TIP3    H126282   2.743   2.733   6.981 -0.0311 -1.0429 -0.6150
 1549TIP3    H226283   2.679   2.698   6.849 -0.0786 -0.7095 -0.6821
 1550TIP3   OH226284   2.667   2.906   0.751  0.2951  0.3104 -0.2781
 1550TIP3    H126285   2.718   2.839   0.797 -1.3943 -1.3096 -0.6517
 1550TIP3    H226286   2.695   2.900   0.660 -2.1597 -2.3363 -0.9910
 1551TIP3   OH226287   5.338   1.314   0.208 -0.1457  0.2302  0.2491
 1551TIP3    H126288   5.262   1.368   0.231 -1.0060 -0.8764  0.0951
 1551TIP3    H226289   5.393   1.371   0.155 -1.1201  0.8947 -0.0726
 1552TIP3   OH226290   0.772   3.219   1.860  0.0498  0.7640 -0.6230
 1552TIP3    H126291   0.705   3.182   1.917 -1.3509  1.5333 -1.6866
 1552TIP3    H226292   0.744   3.309   1.846 -0.4421  0.2398 -3.5858
 1553TIP3   OH226293   0.298   4.693   7.657  0.0362 -0.5944 -0.1412
 1553TIP3    H126294   0.246   4.648   7.590 -1.1924  1.8255 -0.9473
 1553TIP3    H226295   0.243   4.691   7.735 -0.7333  0.7773 -0.6141
 1554TIP3   OH226296   5.953   1.101   7.495  0.1507  0.2480  0.5843
 1554TIP3    H126297   5.912   1.020   7.463  0.3990  0.7314 -1.0718
 1554TIP3    H226298   5.937   1.164   7.425 -0.4629  1.7923  2.0664
 1555TIP3   OH226299   0.846   0.788   0.251  0.4983  0.1525  0.6620
 1555TIP3    H126300   0.784   0.859   0.269  0.7191  0.1230  1.5925
 1555TIP3    H226301   0.881   0.808   0.165 -1.7045 -0.4713 -0.4743
 1556TIP3   OH226302   1.951   0.588   8.058 -0.2875 -0.1075 -0.3094
 1556TIP3    H126303   1.896   0.580   8.136 -1.1854  1.5755 -0.7270
 1556TIP3    H226304   2.040   0.580   8.092 -0.6996 -1.7472  0.5356
 1557TIP3   OH226305   4.164   2.612   0.877 -0.0660  0.0616  0.2050
 1557TIP3    H126306   4.216   2.688   0.852  0.5232 -0.4291 -0.1009
 1557TIP3    H226307   4.075   2.632   0.848  0.0053  0.7968  0.4878
 1558TIP3   OH226308   6.023   3.128   6.975 -0.0497  0.3998  0.7073
 1558TIP3    H126309   5.983   3.198   6.923 -0.5115  0.1047  0.6641
 1558TIP3    H226310   6.045   3.171   7.058 -1.0600  0.4174  0.9823
 1559TIP3   OH226311   2.674   5.928   7.526  0.6879  0.1990  0.4721
 1559TIP3    H126312   2.735   5.885   7.586  0.8421  0.5580  0.5712
 1559TIP3    H226313   2.587   5.910   7.563  0.5057 -2.3198 -0.8942
 1560TIP3   OH226314   2.662   0.013   0.855 -0.3915 -0.2490 -0.2296
 1560TIP3    H126315   2.713  -0.029   0.786 -0.3733  0.6002 -0.7479
 1560TIP3    H226316   2.624  -0.060   0.904  1.8244 -0.9318  0.5991
 1561TIP3   OH226317   1.760   6.352   1.267 -0.7301 -0.6535 -0.1211
 1561TIP3    H126318   1.785   6.422   1.327 -0.4708  0.7323 -1.7613
 1561TIP3    H226319   1.841   6.304   1.251 -0.0846  0.8035 -1.5901
 1562TIP3   OH226320   3.361   3.770   1.132 -0.3531  0.2526 -0.2751
 1562TIP3    H126321   3.428   3.834   1.154 -0.2383  0.6767 -1.7327
 1562TIP3    H226322   3.278   3.815   1.150 -0.2604  0.1336  0.4608
 1563TIP3   OH226323   5.287   0.005   0.330 -0.0908  0.3031  0.0166
 1563TIP3    H126324   5.218  -0.037   0.381 -0.3594 -0.4223 -0.9022
 1563TIP3    H226325   5.285   0.096   0.357 -0.6072  0.0486  0.8738
 1564TIP3   OH226326   2.441   3.207   1.406  0.1534  0.3987  0.1275
 1564TIP3    H126327   2.456   3.114   1.386 -0.0690  0.6086 -1.1453
 1564TIP3    H226328   2.463   3.216   1.498 -1.7984 -1.3555  0.8560
 1565TIP3   OH226329   6.372   6.567   7.310 -0.2171 -0.5896 -0.6573
 1565TIP3    H126330   6.389   6.527   7.225  1.6560 -0.7135 -0.2661
 1565TIP3    H226331   6.458   6.579   7.349 -0.9150  0.9617  0.5587
 1566TIP3   OH226332   1.160   3.885   8.448 -0.2508  0.1442  0.6597
 1566TIP3    H126333   1.117   3.801   8.429  0.9230 -0.0104 -1.5583
 1566TIP3    H226334   1.204   3.909   8.367  0.7390  2.1686  1.7168
 1567TIP3   OH226335   3.489   6.071   0.872  0.1691 -0.0171  0.0505
 1567TIP3    H126336   3.411   6.127   0.880  0.6876  0.4631  3.0703
 1567TIP3    H226337   3.486   6.037   0.783 -0.8045  3.9188 -1.6145
 1568TIP3   OH226338   0.756   2.604   6.628  0.3412  0.0212 -0.0474
 1568TIP3    H126339   0.835   2.613   6.575 -0.6218 -1.5069 -1.8877
 1568TIP3    H226340   0.718   2.521   6.600 -0.2540 -0.9115  3.1249
 1569TIP3   OH226341   5.951   6.186   0.184 -0.7384  0.4358 -0.7454
 1569TIP3    H126342   5.970   6.184   0.090 -1.1140 -2.1298 -0.8318
 1569TIP3    H226343   5.993   6.267   0.214 -0.1187  1.0512 -3.0049
 1570TIP3   OH226344   2.075   1.966   7.004  0.2531 -0.1764  0.7137
 1570TIP3    H126345   1.981   1.967   7.025  0.3958 -1.5616  1.4562
 1570TIP3    H226346   2.112   2.035   7.059 -0.3150  0.4140  0.3820
 1571TIP3   OH226347   4.995   4.745   8.931  0.0447 -0.3474  0.3531
 1571TIP3    H126348   5.073   4.750   8.986 -0.3314  1.3005  0.7921
 1571TIP3    H226349   5.002   4.821   8.873  0.3661 -1.9600 -1.8593
 1572TIP3   OH226350   1.370   0.774   8.544  0.0884  0.1322 -0.1769
 1572TIP3    H126351   1.352   0.810   8.631  0.7200  1.1440 -0.4471
 1572TIP3    H226352   1.464   0.787   8.531  0.2301 -1.0998 -0.5426
 1573TIP3   OH226353   4.613   3.993   0.919 -0.6431  0.2291  0.4610
 1573TIP3    H126354   4.586   3.939   0.993 -1.4422 -1.2921 -0.8606
 1573TIP3    H226355   4.708   3.984   0.915 -0.6814 -0.3439  0.8147
 1574TIP3   OH226356   2.132   5.416   1.134  0.1012  0.4657  0.1437
 1574TIP3    H126357   2.183   5.365   1.198 -1.3303 -0.8884  0.2636
 1574TIP3    H226358   2.196   5.440   1.067  1.1088 -0.3571  0.7619
 1575TIP3   OH226359   4.987   1.724   1.652  0.0608 -0.4530 -0.1864
 1575TIP3    H126360   5.062   1.692   1.602 -0.9937 -2.2769 -0.6863
 1575TIP3    H226361   5.000   1.819   1.657  2.8395 -0.7770  0.5191
 1576TIP3   OH226362   6.379   3.308   8.289 -0.0923  0.2485 -0.0712
 1576TIP3    H126363   6.329   3.359   8.225  0.1908  0.1834 -0.3470
 1576TIP3    H226364   6.342   3.220   8.284 -0.8274  0.5019  0.6650
 1577TIP3   OH226365   4.107   4.283   0.373  0.1141  0.0267 -0.1378
 1577TIP3    H126366   4.069   4.324   0.295 -0.4858 -0.1097  0.0788
 1577TIP3    H226367   4.162   4.213   0.338 -0.7716 -0.5497 -0.4234
 1578TIP3   OH226368   5.136   4.919   1.115 -0.1753 -0.1023  0.8232
 1578TIP3    H126369   5.204   4.987   1.122  0.0570 -0.1796 -0.4380
 1578TIP3    H226370   5.095   4.917   1.202 -1.4343  2.9790  0.4364
 1579TIP3   OH226371   2.184   1.536   0.815 -0.0782 -0.3729 -0.3237
 1579TIP3    H126372   2.141   1.618   0.791 -2.0410 -0.5262  2.2857
 1579TIP3    H226373   2.133   1.468   0.772  0.0393 -0.3766 -0.4613
 1580TIP3   OH226374   1.927   5.372   6.456  0.2499 -0.1563  0.1441
 1580TIP3    H126375   1.941   5.435   6.386  1.1510 -1.1674 -0.6310
 1580TIP3    H226376   1.983   5.402   6.527 -1.8694  1.7887  1.1193
 1581TIP3   OH226377   0.689   2.707   8.565  0.0864 -0.5938 -0.1740
 1581TIP3    H126378   0.710   2.769   8.495 -0.0667  0.5524  0.7688
 1581TIP3    H226379   0.615   2.656   8.530  0.0846 -0.1150 -0.8903
 1582TIP3   OH226380   0.864   3.819   0.897  0.0623 -0.2280  0.1163
 1582TIP3    H126381   0.824   3.900   0.928 -0.2561  0.0074 -0.8623
 1582TIP3    H226382   0.934   3.801   0.959  0.7199  1.2912 -0.1344
 1583TIP3   OH226383   5.133   6.351   1.300 -0.4821  0.1298 -0.0371
 1583TIP3    H126384   5.083   6.324   1.377 -0.0942 -0.0012  0.1713
 1583TIP3    H226385   5.196   6.416   1.333 -0.1854 -0.0674 -0.2066
 1584TIP3   OH226386   5.586   4.195   0.167 -0.0472 -0.7901 -0.7913
 1584TIP3    H126387   5.575   4.270   0.224 -1.2732 -1.5314  0.0172
 1584TIP3    H226388   5.499   4.181   0.129  0.1769 -1.7377 -0.9910
 1585TIP3   OH226389   6.091   3.131   0.485 -0.2576 -0.2720  0.5452
 1585TIP3    H126390   6.043   3.114   0.566 -1.9447 -0.0928 -0.3528
 1585TIP3    H226391   6.025   3.168   0.426  0.7096 -1.2201 -1.2050
 1586TIP3   OH226392   2.030   1.092   0.995 -0.0680  0.1544  0.0135
 1586TIP3    H126393   2.006   1.171   1.042  1.1891 -1.0623  2.9404
 1586TIP3    H226394   2.125   1.084   1.009  0.1274 -1.0126 -1.6540
 1587TIP3   OH226395   5.417   6.061   0.022 -0.3068  0.0680  0.2371
 1587TIP3    H126396   5.367   6.112  -0.042  1.8042  2.0577 -0.0042
 1587TIP3    H226397   5.389   6.095   0.107  0.1157  0.7060  0.1314
 1588TIP3   OH226398   1.088   4.909   7.738  0.0379 -0.4140 -0.2992
 1588TIP3    H126399   1.142   4.958   7.676 -1.1183 -0.1216 -1.1046
 1588TIP3    H226400   1.144   4.900   7.816  1.3306 -0.3536 -1.1784
 1589TIP3   OH226401   3.970   6.054   1.493  0.2045 -0.0332 -0.4830
 1589TIP3    H126402   3.914   5.976   1.496  1.5308 -0.9856  0.6819
 1589TIP3    H226403   3.965   6.091   1.581  2.3867 -0.9158  0.0848
 1590TIP3   OH226404   3.721   0.431   2.243 -0.1135 -0.2777 -0.3364
 1590TIP3    H126405   3.732   0.344   2.280 -0.9585  0.6407  2.3283
 1590TIP3    H226406   3.636   0.461   2.278 -0.4315  1.1621 -2.1719
 1591TIP3   OH226407   5.009   4.704   8.355  0.5858  0.1623  0.3571
 1591TIP3    H126408   4.958   4.715   8.435  0.3317 -0.2454  0.2581
 1591TIP3    H226409   4.955   4.744   8.286  0.5627  0.0540  0.3111
 1592TIP3   OH226410   5.737   6.489   1.212 -0.2922 -0.5765  0.4940
 1592TIP3    H126411   5.674   6.417   1.218  1.1296 -1.7712  3.2396
 1592TIP3    H226412   5.684   6.567   1.200 -2.1651 -1.7060  1.0094
 1593TIP3   OH226413   5.897   1.993   7.947 -0.1360 -0.1310  0.2343
 1593TIP3    H126414   5.924   2.036   8.028 -0.8839 -0.4791  0.6745
 1593TIP3    H226415   5.910   1.900   7.964 -1.0890 -0.2681  0.2685
 1594TIP3   OH226416   6.082   3.183   2.054  0.3481 -0.0796 -0.5576
 1594TIP3    H126417   6.056   3.157   2.142 -4.6037 -0.2341 -1.7366
 1594TIP3    H226418   6.082   3.101   2.004  3.0932  0.0045 -0.8676
 1595TIP3   OH226419   4.049   1.549   0.114  0.1939  0.1808 -0.1309
 1595TIP3    H126420   4.058   1.550   0.019 -2.4900 -2.3377 -0.5485
 1595TIP3    H226421   3.956   1.561   0.130  0.2979 -1.2964  2.0728
 1596TIP3   OH226422   1.685   1.438   8.784 -0.4037  0.2310  0.9432
 1596TIP3    H126423   1.601   1.405   8.814 -0.4296  0.5317  1.2076
 1596TIP3    H226424   1.670   1.462   8.692  0.2093 -2.5802  0.0227
 1597TIP3   OH226425   4.156   4.063   8.475  0.3176 -0.2012  0.2095
 1597TIP3    H126426   4.064   4.071   8.500  0.4267  1.4060  0.2381
 1597TIP3    H226427   4.203   4.050   8.558  0.2439  0.4458  0.3573
 1598TIP3   OH226428   0.393   3.769   1.726 -0.9950  0.2044 -0.1150
 1598TIP3    H126429   0.332   3.812   1.785 -0.1012  1.8965 -0.3682
 1598TIP3    H226430   0.467   3.745   1.782  0.0492  2.2072 -0.5679
 1599TIP3   OH226431   2.464   3.267   6.257 -0.2710 -0.3161 -0.3349
 1599TIP3    H126432   2.423   3.308   6.333 -2.7470 -2.9626 -0.0488
 1599TIP3    H226433   2.435   3.319   6.182 -1.9287 -0.4807  0.1456
 1600TIP3   OH226434   5.134   3.945   8.218 -0.4231 -0.3612  0.1214
 1600TIP3    H126435   5.177   3.899   8.290  0.3192  0.4665  0.2229
 1600TIP3    H226436   5.161   3.897   8.140  2.1531  1.0950 -0.0080
 1601TIP3   OH226437   5.942   5.537   0.705  0.0018 -0.0309 -0.7323
 1601TIP3    H126438   6.038   5.538   0.697  0.2695 -0.2119  1.7539
 1601TIP3    H226439   5.923   5.458   0.755 -1.4274  0.2410 -0.8022
 1602TIP3   OH226440   4.033   6.209   7.685 -0.1928 -0.0293  0.1382
 1602TIP3    H126441   4.098   6.262   7.730 -0.2589 -0.8173  1.1972
 1602TIP3    H226442   4.037   6.124   7.727 -2.1001 -0.0368  0.4278
 1603TIP3   OH226443   0.004   5.443   7.893 -0.1833  0.1157  0.5337
 1603TIP3    H126444   0.045   5.529   7.887 -0.9802  0.4741  0.0397
 1603TIP3    H226445  -0.012   5.417   7.802  0.6341 -0.8503  0.6472
 1604TIP3   OH226446   3.852   2.320   1.995 -0.0913 -0.3003 -0.1288
 1604TIP3    H126447   3.816   2.265   1.925 -0.3332 -0.3209  0.0114
 1604TIP3    H226448   3.797   2.301   2.071 -0.0701  0.0085 -0.0365
 1605TIP3   OH226449   0.673   0.972   0.392  0.1018 -0.5989  0.0795
 1605TIP3    H126450   0.664   1.032   0.466 -0.2190 -1.1808  0.5207
 1605TIP3    H226451   0.621   0.896   0.416 -1.0951 -0.2701 -1.3262
 1606TIP3   OH226452   3.590   5.583   1.221  0.0737 -0.3240 -0.1090
 1606TIP3    H126453   3.501   5.557   1.200  0.0383 -0.8138  0.6264
 1606TIP3    H226454   3.640   5.565   1.141 -0.6492  0.8852 -0.8804
 1607TIP3   OH226455   6.026   3.219   7.255 -0.2724 -0.2089  0.2444
 1607TIP3    H126456   6.038   3.126   7.236 -0.0724 -0.3480  1.0184
 1607TIP3    H226457   5.936   3.227   7.284 -0.4350 -0.0758 -0.2852
 1608TIP3   OH226458   4.097   5.442   8.868  0.0762  0.8259 -0.1498
 1608TIP3    H126459   4.172   5.387   8.889 -0.6114  0.3520  1.2003
 1608TIP3    H226460   4.050   5.452   8.951 -1.1675  1.3879 -0.8837
 1609TIP3   OH226461   1.699   1.774   8.577 -0.0050 -0.2389 -0.7438
 1609TIP3    H126462   1.619   1.722   8.582  0.1831 -0.4939 -0.3348
 1609TIP3    H226463   1.682   1.838   8.508 -0.5094 -0.3804 -0.7538
 1610TIP3   OH226464   1.754   3.482   8.309 -0.2657 -0.1669  0.0834
 1610TIP3    H126465   1.819   3.523   8.252  0.2416  0.2978  0.9601
 1610TIP3    H226466   1.725   3.405   8.261 -0.5637  0.7144 -1.2051
 1611TIP3   OH226467   2.418   1.760   0.021  0.6886  0.3573  0.1664
 1611TIP3    H126468   2.380   1.832   0.072 -1.3662 -0.0661 -0.6700
 1611TIP3    H226469   2.355   1.745  -0.049  1.9243 -1.1394 -0.6826
 1612TIP3   OH226470   4.361   6.505   7.592 -0.2941  0.4151 -0.3826
 1612TIP3    H126471   4.382   6.412   7.579 -1.4364  0.1226 -0.2495
 1612TIP3    H226472   4.434   6.539   7.643 -0.4560 -0.7104  0.6432
 1613TIP3   OH226473   3.522   4.018   6.443 -0.4774 -0.2673  0.3506
 1613TIP3    H126474   3.562   4.072   6.374  1.7867 -1.3742  0.7072
 1613TIP3    H226475   3.475   3.950   6.396  0.8615 -0.8827 -0.1476
 1614TIP3   OH226476   1.310   3.655   1.522  0.4538  0.0744  0.0369
 1614TIP3    H126477   1.394   3.648   1.477  0.1923 -2.2977 -0.2181
 1614TIP3    H226478   1.259   3.716   1.469  1.4628  0.3181 -0.6841
 1615TIP3   OH226479   5.966   6.714   2.214 -0.6382  0.0197 -0.4865
 1615TIP3    H126480   6.054   6.728   2.249 -2.1413  1.6088  3.2296
 1615TIP3    H226481   5.969   6.626   2.176  2.9357  0.7267 -2.2745
 1616TIP3   OH226482   6.236   5.408   2.211 -0.2091 -0.4911  0.1097
 1616TIP3    H126483   6.263   5.341   2.273 -1.4544 -0.7162  0.4345
 1616TIP3    H226484   6.195   5.475   2.265 -0.0801 -0.0395 -0.3407
 1617TIP3   OH226485   3.148   0.619   0.037 -0.0771  0.2765 -0.2172
 1617TIP3    H126486   3.171   0.660  -0.046 -0.9947  0.5200 -0.3598
 1617TIP3    H226487   3.088   0.548   0.014  0.3227 -0.1878  0.1640
 1618TIP3   OH226488   5.355   3.380   7.070 -0.1647  0.3363 -0.4528
 1618TIP3    H126489   5.365   3.404   6.978 -2.5419 -0.9286 -1.1382
 1618TIP3    H226490   5.319   3.458   7.112  2.8562  1.6428 -0.0252
 1619TIP3   OH226491   4.474   3.420   7.249 -0.6171  0.3796  0.0790
 1619TIP3    H126492   4.401   3.402   7.307 -0.0566  0.3796  0.7938
 1619TIP3    H226493   4.434   3.454   7.169 -1.3336  1.3544  0.8360
 1620TIP3   OH226494   5.242   4.147   0.793 -0.4641 -0.1292 -0.2369
 1620TIP3    H126495   5.214   4.183   0.708 -0.3740 -1.6629 -0.9619
 1620TIP3    H226496   5.302   4.212   0.828 -1.0309  0.8577 -1.0373
 1621TIP3   OH226497   4.429   2.425   7.779  0.4508  0.2311  0.0850
 1621TIP3    H126498   4.502   2.444   7.719  1.0096 -1.7436  0.0647
 1621TIP3    H226499   4.471   2.412   7.864  0.1416 -0.8375  0.0930
 1622TIP3   OH226500   3.270   1.113   6.880 -0.6640  0.0529 -0.5031
 1622TIP3    H126501   3.288   1.160   6.799 -1.7989  0.6638 -0.4161
 1622TIP3    H226502   3.184   1.073   6.867 -1.5835  1.4127  0.9087
 1623TIP3   OH226503   0.137   0.378   8.594  0.4690  0.8676  0.2937
 1623TIP3    H126504   0.099   0.456   8.554  1.0120  0.5270 -0.9173
 1623TIP3    H226505   0.214   0.410   8.641  0.5685  1.0882 -0.0201
 1624TIP3   OH226506   5.432   2.805   7.743 -0.1134 -0.3351 -0.0964
 1624TIP3    H126507   5.365   2.815   7.675  0.3743 -0.8425 -0.6618
 1624TIP3    H226508   5.504   2.760   7.699  0.5585  0.1039  0.5304
 1625TIP3   OH226509   6.159   1.643   1.842  0.1446  0.0433  0.2472
 1625TIP3    H126510   6.174   1.631   1.936 -1.2944  0.5732  0.5649
 1625TIP3    H226511   6.220   1.582   1.800 -1.5655 -2.7694  1.6015
 1626TIP3   OH226512   0.518   6.488   8.537 -0.0032 -0.0285 -0.7808
 1626TIP3    H126513   0.522   6.451   8.625 -2.2386  0.7843 -0.2738
 1626TIP3    H226514   0.505   6.412   8.480  0.3328 -0.4506 -0.3017
 1627TIP3   OH226515   5.483   3.795   7.654 -0.3273 -0.3656  0.1572
 1627TIP3    H126516   5.505   3.702   7.652  0.1047 -0.2901  0.8885
 1627TIP3    H226517   5.551   3.837   7.601  0.2287 -0.3376  0.8743
 1628TIP3   OH226518   3.513   3.933   8.121 -0.2195  0.5002 -0.1050
 1628TIP3    H126519   3.477   3.894   8.041 -0.4878 -0.2072  0.3585
 1628TIP3    H226520   3.485   3.875   8.191 -0.3937  1.3741  0.5684
 1629TIP3   OH226521   5.465   0.235   8.374  0.5281  0.0750 -0.6640
 1629TIP3    H126522   5.507   0.307   8.327  0.0448  0.7376 -0.1005
 1629TIP3    H226523   5.372   0.256   8.372  0.4421 -0.2204  0.0180
 1630TIP3   OH226524   4.550   4.299   7.606 -0.0663 -0.7036 -0.2031
 1630TIP3    H126525   4.471   4.329   7.649  0.8245  1.1376  0.2491
 1630TIP3    H226526   4.621   4.323   7.666  0.9550 -0.8759 -1.2991
 1631TIP3   OH226527   3.499   5.943   0.588 -0.7448  0.5262 -0.2772
 1631TIP3    H126528   3.567   5.956   0.522  0.4530  2.1137  1.1708
 1631TIP3    H226529   3.417   5.939   0.538  0.2024  0.8581 -1.9061
 1632TIP3   OH226530   2.490   4.081   6.656  0.3101 -0.1029  0.2424
 1632TIP3    H126531   2.398   4.066   6.675 -1.0783  3.7068 -2.2718
 1632TIP3    H226532   2.507   4.030   6.576 -0.1580  0.4694 -0.2335
 1633TIP3   OH226533   2.713   3.335   7.477  0.0858 -0.0764  0.5284
 1633TIP3    H126534   2.784   3.398   7.487  1.0073 -1.2419  1.6628
 1633TIP3    H226535   2.633   3.387   7.486  0.7653  1.2364 -0.6850
 1634TIP3   OH226536   1.401   0.684   2.105  0.2782  0.2706  0.1828
 1634TIP3    H126537   1.414   0.594   2.073 -0.3602  0.5176 -0.8071
 1634TIP3    H226538   1.477   0.700   2.162  1.3800 -0.2460 -1.0935
 1635TIP3   OH226539   2.383   5.427   0.428 -0.5363  0.1632  0.4542
 1635TIP3    H126540   2.350   5.340   0.449  4.1749 -1.7704  1.0716
 1635TIP3    H226541   2.403   5.422   0.334 -2.0818  1.3835  0.0234
 1636TIP3   OH226542   6.128   2.915   2.167  0.0232  0.0773  0.1071
 1636TIP3    H126543   6.188   2.840   2.165 -1.3757 -1.0862 -0.1869
 1636TIP3    H226544   6.062   2.895   2.101  0.6035  2.4838 -1.3301
 1637TIP3   OH226545   6.179   4.292   0.853  0.1353  0.1814  0.0468
 1637TIP3    H126546   6.181   4.197   0.861  1.8171  0.0785 -1.0679
 1637TIP3    H226547   6.089   4.316   0.877 -0.6149 -1.7688 -0.5756
 1638TIP3   OH226548   0.497   0.863   1.495  0.4053  0.0680 -0.3753
 1638TIP3    H126549   0.436   0.830   1.429  0.5193 -0.2125 -0.3401
 1638TIP3    H226550   0.480   0.811   1.573  0.2459  0.4241 -0.1683
 1639TIP3   OH226551   5.850   4.930   1.289  0.0550  0.2094 -0.4954
 1639TIP3    H126552   5.864   4.977   1.206 -0.2111  2.0166  0.4199
 1639TIP3    H226553   5.786   4.862   1.267 -1.4109  1.7917 -1.4682
 1640TIP3   OH226554   0.425   1.280   2.046  0.2662 -0.6249  0.0608
 1640TIP3    H126555   0.510   1.237   2.056  0.0568 -0.8858  0.7226
 1640TIP3    H226556   0.371   1.245   2.117  0.0068  0.5066  0.4468
 1641TIP3   OH226557   5.275   6.772   1.111 -0.0796 -0.3648 -0.4579
 1641TIP3    H126558   5.253   6.706   1.176 -2.4700  0.9731  0.2196
 1641TIP3    H226559   5.365   6.797   1.132  0.2185 -2.0415  0.4264
 1642TIP3   OH226560   1.274   5.791   0.976  0.1201 -0.5004  0.0279
 1642TIP3    H126561   1.219   5.713   0.976  0.4866 -0.8109  1.9836
 1642TIP3    H226562   1.283   5.814   0.883 -4.0481  0.1044 -0.4370
 1643TIP3   OH226563   3.895   6.415   6.265 -0.3030  0.3082  0.1289
 1643TIP3    H126564   3.826   6.383   6.206 -1.2294 -0.6246  1.6512
 1643TIP3    H226565   3.901   6.348   6.333  1.1744  1.0439  0.7590
 1644TIP3   OH226566   3.827   2.581   6.785  0.0225  0.4395 -0.4461
 1644TIP3    H126567   3.892   2.618   6.845  0.4427 -0.2813 -0.4537
 1644TIP3    H226568   3.776   2.521   6.840 -1.2357  1.6490 -0.2168
 1645TIP3   OH226569   2.831   3.680   1.079  0.0673 -0.3366 -0.2877
 1645TIP3    H126570   2.742   3.644   1.081  0.2426 -0.7309  0.5778
 1645TIP3    H226571   2.825   3.759   1.133  0.5203 -1.0297  0.8050
 1646TIP3   OH226572   3.018   2.521   7.886  0.0680 -0.0410 -0.0943
 1646TIP3    H126573   2.973   2.459   7.828 -1.7077 -0.4843  1.6532
 1646TIP3    H226574   3.044   2.468   7.962  0.5846  0.9006  0.4019
 1647TIP3   OH226575   6.743   0.213   7.379 -0.2779  0.5868 -0.5689
 1647TIP3    H126576   6.726   0.301   7.347  1.1367  0.0090 -3.1679
 1647TIP3    H226577   6.835   0.196   7.358 -0.5146 -1.5249 -0.1669
 1648TIP3   OH226578   2.214   6.515   8.669  0.8925 -0.4428 -0.1485
 1648TIP3    H126579   2.301   6.546   8.695  0.6413 -1.0567  1.5522
 1648TIP3    H226580   2.155   6.586   8.692  0.4638 -1.5829  2.6718
 1649TIP3   OH226581   3.762   4.096   7.562  0.5598  0.0820  0.0151
 1649TIP3    H126582   3.770   4.190   7.548 -0.0620  0.3905  1.5944
 1649TIP3    H226583   3.684   4.071   7.513  0.2853  0.5295  0.2217
 1650TIP3   OH226584   1.192   2.600   7.865 -0.5444 -0.2262 -0.1251
 1650TIP3    H126585   1.102   2.618   7.839 -0.1543 -0.8783 -2.1119
 1650TIP3    H226586   1.226   2.684   7.894 -1.3297  0.3758 -0.9070
 1651TIP3   OH226587   1.424   5.298   0.141  0.3251 -0.3617  0.1145
 1651TIP3    H126588   1.518   5.298   0.155 -0.0012  0.8187  3.1498
 1651TIP3    H226589   1.388   5.256   0.220 -1.7175  0.4022 -0.3311
 1652TIP3   OH226590   5.013   4.464   7.326  0.4471 -0.0883  0.5624
 1652TIP3    H126591   5.004   4.554   7.356 -1.0149 -0.5082  1.4846
 1652TIP3    H226592   4.977   4.411   7.397 -0.2773 -1.2980 -0.6578
 1653TIP3   OH226593   6.494   5.056   6.390  0.2522  0.1208 -0.0169
 1653TIP3    H126594   6.537   5.102   6.462  1.6222 -0.8009 -0.2140
 1653TIP3    H226595   6.546   4.976   6.378 -0.3504 -0.0607 -1.5851
 1654TIP3   OH226596   5.563   4.017   6.949  0.2345  0.7111  0.0968
 1654TIP3    H126597   5.469   4.032   6.945  0.4744  2.0346 -1.9731
 1654TIP3    H226598   5.577   3.935   6.902  0.3358  2.1780 -2.6677
 1655TIP3   OH226599   2.304   5.318   0.866  0.0113 -0.4405  0.1027
 1655TIP3    H126600   2.342   5.343   0.950 -1.6089  0.4258  0.6243
 1655TIP3    H226601   2.230   5.261   0.889  0.6729 -1.7254 -0.8489
 1656TIP3   OH226602   5.775   0.504   8.617 -0.0536 -0.0647 -0.3439
 1656TIP3    H126603   5.707   0.554   8.572  0.8896  1.3986 -0.2030
 1656TIP3    H226604   5.853   0.515   8.563  0.4890 -0.3132  0.3762
 1657TIP3   OH226605   5.220   5.155   7.042  0.4342  0.0156  0.7395
 1657TIP3    H126606   5.172   5.162   7.124 -0.4962  0.4839  0.1721
 1657TIP3    H226607   5.192   5.230   6.990  0.5810 -0.5622 -0.2172
 1658TIP3   OH226608   2.494   6.356   8.526 -0.5380 -0.0801  0.3321
 1658TIP3    H126609   2.543   6.321   8.452  1.0686  1.9674  0.3610
 1658TIP3    H226610   2.530   6.310   8.602  0.2516  0.3057  0.1936
 1659TIP3   OH226611   5.356   0.881   8.156  0.1808 -0.0095 -0.1748
 1659TIP3    H126612   5.421   0.906   8.222  0.9694  0.9787 -1.2835
 1659TIP3    H226613   5.399   0.812   8.106  0.5408  0.8865 -1.1322
 1660TIP3   OH226614   3.619   4.680   1.650  0.0223  0.1090  0.6793
 1660TIP3    H126615   3.595   4.712   1.737  0.5692 -1.6251  1.5145
 1660TIP3    H226616   3.603   4.754   1.592 -4.2355  0.1453  1.5951
 1661TIP3   OH226617   5.428   3.892   1.624 -0.5770 -0.1752 -0.4487
 1661TIP3    H126618   5.452   3.949   1.551  0.3985 -0.0348 -0.0381
 1661TIP3    H226619   5.394   3.952   1.690 -0.1826 -0.1406 -0.2743
 1662TIP3   OH226620   5.320   0.952   8.527 -0.1696 -0.2832  0.5562
 1662TIP3    H126621   5.355   0.885   8.586 -1.7780 -1.7442 -0.0659
 1662TIP3    H226622   5.383   1.024   8.533  2.2135 -2.2226  0.4937
 1663TIP3   OH226623   2.723   2.858   1.420 -0.4011  0.3594 -0.3108
 1663TIP3    H126624   2.717   2.825   1.510  1.0488  1.7549  0.3464
 1663TIP3    H226625   2.790   2.926   1.424 -0.5147  0.6552 -2.4067
 1664TIP3   OH226626   4.751   4.863   0.066 -0.2183  0.2888 -0.6605
 1664TIP3    H126627   4.808   4.812   0.009  0.2902 -0.0035  0.1021
 1664TIP3    H226628   4.677   4.888   0.010 -0.4855 -1.2782 -1.0603
 1665TIP3   OH226629   1.900   6.057   8.518  0.0542  0.2179 -0.0482
 1665TIP3    H126630   1.883   5.996   8.445  0.8418 -2.2779  1.7085
 1665TIP3    H226631   1.826   6.044   8.577 -0.3423  1.8855 -0.1260
 1666TIP3   OH226632   3.344   6.147   7.483 -0.2384 -0.2314 -0.2043
 1666TIP3    H126633   3.261   6.192   7.499  0.4437  0.7824  0.5241
 1666TIP3    H226634   3.403   6.215   7.452  0.5137 -0.8300 -0.1138
 1667TIP3   OH226635   1.048   1.905   8.805 -0.3083  0.2434 -0.2444
 1667TIP3    H126636   0.977   1.901   8.869  0.0828 -0.0097  0.1798
 1667TIP3    H226637   1.097   1.984   8.830 -0.3524  0.3331 -0.4428
 1668TIP3   OH226638   5.395   5.989   8.124  0.6111 -0.6469 -0.0310
 1668TIP3    H126639   5.479   6.023   8.094  0.3177 -0.3286 -0.5040
 1668TIP3    H226640   5.405   5.982   8.219  1.4243 -1.3165 -0.1528
 1669TIP3   OH226641   2.182   0.528   0.499  0.2396 -0.2440  0.1179
 1669TIP3    H126642   2.239   0.518   0.423  0.2233 -0.0913  0.0853
 1669TIP3    H226643   2.218   0.469   0.565  1.0668  0.6480  0.4744
 1670TIP3   OH226644   2.472   1.073   0.183  0.3317  0.4847  0.3724
 1670TIP3    H126645   2.435   1.008   0.244 -1.0647  1.1235  0.2463
 1670TIP3    H226646   2.539   1.118   0.234  1.4686 -1.1477  0.4127
 1671TIP3   OH226647   1.372   6.013   7.815 -0.2295  0.5569  0.8064
 1671TIP3    H126648   1.424   5.960   7.755  0.3260  0.7727  1.0922
 1671TIP3    H226649   1.288   6.025   7.770  0.5190  1.5767 -0.4086
 1672TIP3   OH226650   2.174   4.829   7.332  0.2841 -0.4251 -0.3690
 1672TIP3    H126651   2.243   4.763   7.320  0.4638 -0.4635  0.7798
 1672TIP3    H226652   2.183   4.887   7.257  2.5637  0.4473  0.4995
 1673TIP3   OH226653   6.432   1.718   8.431 -0.3581 -0.2514  0.0690
 1673TIP3    H126654   6.391   1.765   8.359  0.6061 -1.3402 -1.2291
 1673TIP3    H226655   6.369   1.650   8.454 -0.8190  0.3128  0.5188
 1674TIP3   OH226656   6.505   1.019   7.146 -0.0712  0.3267 -0.0198
 1674TIP3    H126657   6.542   1.036   7.059  0.9019 -1.7329 -0.0697
 1674TIP3    H226658   6.427   0.967   7.128  0.9328 -1.3669  0.3568
 1675TIP3   OH226659   1.480   0.296   0.075 -0.0440 -0.0498 -0.2515
 1675TIP3    H126660   1.570   0.329   0.073 -0.2676  0.5823 -0.0864
 1675TIP3    H226661   1.469   0.252  -0.009  0.7238 -0.9639  0.1013
 1676TIP3   OH226662   0.585   5.453   2.556 -0.1700 -0.6430  0.0294
 1676TIP3    H126663   0.537   5.450   2.474  0.0559 -1.3061 -0.0878
 1676TIP3    H226664   0.580   5.544   2.584 -0.7672 -0.5366 -0.4078
 1677TIP3   OH226665   1.475   0.605   0.174 -0.5353  0.2273 -0.0314
 1677TIP3    H126666   1.419   0.620   0.250  0.6982  1.4625  0.6684
 1677TIP3    H226667   1.525   0.527   0.195 -0.7371  0.1327  0.0995
 1678TIP3   OH226668   0.979   5.987   8.418 -0.2312  0.2411  0.0214
 1678TIP3    H126669   0.917   5.983   8.491 -1.2053  0.0253 -0.7905
 1678TIP3    H226670   0.923   5.989   8.340  0.8052 -0.6646 -0.7701
 1679TIP3   OH226671   5.396   0.842   1.086 -0.3469 -0.1134 -0.2014
 1679TIP3    H126672   5.396   0.842   1.182 -1.6672 -1.4646 -0.1652
 1679TIP3    H226673   5.304   0.853   1.062 -0.1998 -1.0633 -1.2917
 1680TIP3   OH226674   5.764   2.271   1.384  0.6828 -0.2090  0.3988
 1680TIP3    H126675   5.842   2.218   1.401  0.9120 -0.3988 -1.1090
 1680TIP3    H226676   5.710   2.216   1.328  1.3851  1.4636 -2.0951
 1681TIP3   OH226677   6.647   1.708   6.487  0.9751  0.9704 -0.4245
 1681TIP3    H126678   6.621   1.625   6.446 -0.7338  1.8306 -1.2210
 1681TIP3    H226679   6.638   1.773   6.416 -0.7863  2.3093  0.9343
 1682TIP3   OH226680   5.847   2.375   0.776  0.4737  0.3757  0.5398
 1682TIP3    H126681   5.756   2.404   0.767  0.3505 -0.4096 -1.1761
 1682TIP3    H226682   5.894   2.453   0.804 -0.4667  1.2391 -0.2016
 1683TIP3   OH226683   5.763   2.290   7.629 -0.0713  0.2877  0.0305
 1683TIP3    H126684   5.844   2.332   7.656  1.2089  0.6247 -3.6894
 1683TIP3    H226685   5.776   2.198   7.649  1.1358  0.3915 -0.1818
 1684TIP3   OH226686   5.294   6.474   8.456 -0.0480  0.5704 -0.0501
 1684TIP3    H126687   5.380   6.457   8.493  0.9849  0.0443 -2.5046
 1684TIP3    H226688   5.277   6.566   8.476  0.1435  0.1730  2.1623
 1685TIP3   OH226689   1.101   3.930   1.020 -0.2803 -0.5545 -0.1698
 1685TIP3    H126690   1.053   3.876   1.083 -0.0167 -1.3387 -0.6204
 1685TIP3    H226691   1.177   3.962   1.068 -0.6626 -0.2414  0.2257
 1686TIP3   OH226692   5.386   6.220   0.457  0.0203  0.3576 -0.6059
 1686TIP3    H126693   5.318   6.224   0.390 -1.1554  0.0473  0.5288
 1686TIP3    H226694   5.420   6.131   0.452 -2.4697 -0.8505  1.4160
 1687TIP3   OH226695   4.378   5.560   7.051  0.4456 -0.1339 -0.1002
 1687TIP3    H126696   4.379   5.635   7.112  1.8963 -2.0064  2.3677
 1687TIP3    H226697   4.436   5.587   6.980  2.6608  0.3944  1.7779
 1688TIP3   OH226698   4.658   6.576   1.030 -0.2275  0.3484  0.4810
 1688TIP3    H126699   4.682   6.638   1.099 -0.9811 -0.2462  1.3135
 1688TIP3    H226700   4.712   6.600   0.955 -1.3048  2.7857  0.3686
 1689TIP3   OH226701   1.746   2.394   6.611 -0.0534 -0.1057  0.1674
 1689TIP3    H126702   1.721   2.306   6.637  0.2019 -0.4279 -0.6196
 1689TIP3    H226703   1.679   2.451   6.648 -0.4322 -0.6710  0.3632
 1690TIP3   OH226704   4.293   3.008   0.086  0.3016  0.5549 -0.0156
 1690TIP3    H126705   4.235   3.066   0.036  0.3420  1.5195  1.0260
 1690TIP3    H226706   4.299   2.929   0.033 -1.9467  0.4344 -0.1822
 1691TIP3   OH226707   6.778   4.483   0.076  0.0173  0.0371 -0.2172
 1691TIP3    H126708   6.813   4.510   0.161  0.8441  0.5623 -0.7160
 1691TIP3    H226709   6.690   4.520   0.073 -1.0098 -2.0469  1.4284
 1692TIP3   OH226710   1.975   3.013   7.623  0.1837 -0.2603 -0.4932
 1692TIP3    H126711   2.015   2.939   7.577  1.5713  1.1396 -1.6669
 1692TIP3    H226712   1.926   3.060   7.555 -1.6519 -0.6803  0.4683
 1693TIP3   OH226713   2.544   4.342   6.696 -0.1434  0.2346  0.2876
 1693TIP3    H126714   2.532   4.250   6.672 -3.0063  0.2083  1.3629
 1693TIP3    H226715   2.638   4.353   6.705  0.4448 -1.9666 -2.1046
 1694TIP3   OH226716   2.232   0.191   0.908 -0.1008 -0.1971  0.4598
 1694TIP3    H126717   2.322   0.215   0.927  0.5678 -1.5244 -0.8381
 1694TIP3    H226718   2.218   0.111   0.958 -0.0382 -0.8296 -0.5101
 1695TIP3   OH226719   0.509   2.693   2.519 -0.0467 -0.4974  0.1654
 1695TIP3    H126720   0.599   2.692   2.552  0.4705 -0.0081 -1.1734
 1695TIP3    H226721   0.511   2.753   2.445 -1.8137  0.6716  0.9903
 1696TIP3   OH226722   0.011   3.370   7.684  0.2164  0.3243  0.0842
 1696TIP3    H126723   0.019   3.462   7.661  2.0173 -0.0531 -1.0612
 1696TIP3    H226724  -0.083   3.351   7.679 -0.0141  1.6835 -1.3754
 1697TIP3   OH226725   0.545   3.198   7.595  0.3793  0.0303 -0.0924
 1697TIP3    H126726   0.470   3.247   7.629  0.4215 -0.9991  1.6289
 1697TIP3    H226727   0.605   3.191   7.670  0.3318 -2.6776 -0.1908
 1698TIP3   OH226728   4.317   0.619   0.701 -0.4912  0.0491  0.0673
 1698TIP3    H126729   4.303   0.713   0.689 -0.8161  0.2289  1.6187
 1698TIP3    H226730   4.381   0.613   0.772  0.4601 -0.9081 -0.8226
 1699TIP3   OH226731   4.566   3.317   8.469 -0.0563 -0.0231  0.2001
 1699TIP3    H126732   4.642   3.268   8.502 -0.4477 -0.4987  0.4171
 1699TIP3    H226733   4.493   3.288   8.524 -0.1221  1.5563  1.0087
 1700TIP3   OH226734   4.401   5.249   2.601  0.0545  0.2681  0.1640
 1700TIP3    H126735   4.473   5.208   2.554  0.2620  0.7133  0.0821
 1700TIP3    H226736   4.443   5.310   2.662 -0.2458  0.4940  0.1531
 1701TIP3   OH226737   4.989   1.005   0.464 -0.0186  0.1518 -0.0712
 1701TIP3    H126738   4.941   0.982   0.384  0.8566 -2.2761  0.0423
 1701TIP3    H226739   5.073   1.039   0.433 -1.2718  3.5221 -0.2338
 1702TIP3   OH226740   4.464   1.049   0.516  0.0103 -0.0823  0.5972
 1702TIP3    H126741   4.514   1.025   0.595  0.5365 -1.0162 -0.0016
 1702TIP3    H226742   4.386   0.993   0.519  0.8014 -1.2919 -0.3376
 1703TIP3   OH226743   3.894   0.461   8.364  0.0341 -0.0761 -0.5681
 1703TIP3    H126744   3.971   0.443   8.417 -1.5280 -0.8419  1.6015
 1703TIP3    H226745   3.899   0.398   8.292  0.1016 -2.0275  1.0548
 1704TIP3   OH226746   4.132   4.962   8.951  0.5402 -0.1510 -0.1928
 1704TIP3    H126747   4.056   4.956   8.893  0.2724 -1.3930  0.2396
 1704TIP3    H226748   4.103   5.019   9.023 -0.1703 -0.9936  0.2124
 1705TIP3   OH226749   4.114   1.653   1.125  0.6159  0.1917  0.0452
 1705TIP3    H126750   4.176   1.702   1.071  1.0971  0.7910  1.1140
 1705TIP3    H226751   4.110   1.701   1.208 -0.2535 -0.5908  0.4841
 1706TIP3   OH226752   0.434   1.691   0.496 -0.4466  0.4331 -0.1218
 1706TIP3    H126753   0.348   1.734   0.497 -0.9405 -0.4663 -1.2090
 1706TIP3    H226754   0.438   1.645   0.580 -0.3501  1.7086  0.6003
 1707TIP3   OH226755   3.650   3.658   0.891  0.3110  0.4149 -0.2755
 1707TIP3    H126756   3.697   3.609   0.823 -1.0093 -1.6532  0.2154
 1707TIP3    H226757   3.657   3.603   0.969  0.9129  2.2558  1.0524
 1708TIP3   OH226758   5.917   2.378   1.085  0.2217 -0.6272  0.2362
 1708TIP3    H126759   5.885   2.357   0.998  0.0988 -0.0615  0.1411
 1708TIP3    H226760   5.839   2.409   1.132  0.3638 -0.5390  0.4159
 1709TIP3   OH226761   1.320   4.496   0.349  0.0001 -0.1695 -0.1997
 1709TIP3    H126762   1.331   4.587   0.321  1.1597 -0.4850 -0.8483
 1709TIP3    H226763   1.294   4.449   0.270  0.6059 -0.6005 -0.1484
 1710TIP3   OH226764   6.568   2.315   0.609  0.6226 -0.3935 -0.1136
 1710TIP3    H126765   6.554   2.376   0.681  1.9923 -0.1320 -0.0575
 1710TIP3    H226766   6.479   2.293   0.579  0.0734  0.3648  0.9062
 1711TIP3   OH226767   4.465   3.683   7.605  0.0701  0.5127 -0.0653
 1711TIP3    H126768   4.532   3.747   7.628 -1.2936  2.2057 -0.6410
 1711TIP3    H226769   4.419   3.667   7.688  2.4773 -2.4318  0.9151
 1712TIP3   OH226770   4.780   2.493   8.750 -0.0298 -0.3607  0.2010
 1712TIP3    H126771   4.792   2.425   8.684 -0.2238  0.3542 -0.5957
 1712TIP3    H226772   4.792   2.449   8.834  0.9950 -1.1298 -0.3405
 1713TIP3   OH226773   1.358   2.356   2.021 -0.0095 -0.1607 -0.1626
 1713TIP3    H126774   1.331   2.363   2.112  1.0092 -2.6394  0.3978
 1713TIP3    H226775   1.448   2.388   2.020 -0.4774  1.2055 -0.6133
 1714TIP3   OH226776   6.268   0.421   2.187  0.5873  0.1982 -0.4040
 1714TIP3    H126777   6.267   0.508   2.226 -0.2015  0.0638 -0.0940
 1714TIP3    H226778   6.354   0.413   2.146  0.4103  1.3873 -1.0451
 1715TIP3   OH226779   4.149   4.083   2.154  0.0079  0.4398 -0.0007
 1715TIP3    H126780   4.116   4.077   2.064  0.2314 -0.6949 -0.0200
 1715TIP3    H226781   4.148   3.993   2.186  0.7184  0.7224  0.8542
 1716TIP3   OH226782   6.209   1.625   0.502 -0.3463  0.4009  0.1990
 1716TIP3    H126783   6.151   1.594   0.433  0.1300 -0.7144  0.2817
 1716TIP3    H226784   6.247   1.546   0.540  0.6978  1.0714  0.6110
 1717TIP3   OH226785   0.035   3.522   8.508 -0.2250  0.4350 -0.1739
 1717TIP3    H126786   0.052   3.445   8.562  1.0986  0.3770 -0.6332
 1717TIP3    H226787  -0.053   3.507   8.473 -1.1407  0.5156  1.9738
 1718TIP3   OH226788   5.152   1.318   1.118 -0.1676 -0.2125 -0.2958
 1718TIP3    H126789   5.065   1.278   1.119 -0.1022 -0.3477  0.5722
 1718TIP3    H226790   5.141   1.401   1.166  0.5854 -1.1470  1.6123
 1719TIP3   OH226791   0.395   0.619   1.632 -0.7071 -0.4102 -0.5813
 1719TIP3    H126792   0.368   0.581   1.548 -2.7211  0.0087 -0.1646
 1719TIP3    H226793   0.395   0.545   1.693 -1.0172 -0.3925 -0.5604
 1720TIP3   OH226794   4.132   2.932   1.735 -0.3143 -0.0745  0.4192
 1720TIP3    H126795   4.114   2.843   1.705  1.7812  0.3067 -2.2981
 1720TIP3    H226796   4.046   2.975   1.737 -0.8789 -0.7290 -3.3915
 1721TIP3   OH226797   6.560   5.420   8.807  0.0008 -0.4967  0.1949
 1721TIP3    H126798   6.530   5.403   8.717 -3.0120  0.1785  0.9499
 1721TIP3    H226799   6.544   5.338   8.853 -1.1964 -0.0156  0.6924
 1722TIP3   OH226800   2.940   5.559   1.365  0.8777  0.2639 -0.0759
 1722TIP3    H126801   2.930   5.576   1.459  0.2074  0.4432 -0.1732
 1722TIP3    H226802   2.894   5.476   1.352  1.1489  0.1359 -0.2097
 1723TIP3   OH226803   5.825   2.500   1.669 -0.8892 -0.2385 -0.7276
 1723TIP3    H126804   5.910   2.473   1.635 -0.7088 -0.9777  0.2534
 1723TIP3    H226805   5.827   2.474   1.761 -2.4898 -1.0353 -0.8805
 1724TIP3   OH226806   1.436   0.037   7.582  0.6061  0.4787 -0.4373
 1724TIP3    H126807   1.340   0.029   7.585  0.6385 -0.3100  3.6958
 1724TIP3    H226808   1.455   0.123   7.620  1.5399 -0.5003  1.4262
 1725TIP3   OH226809   0.777   2.670   0.396 -0.0716  0.7237 -0.1582
 1725TIP3    H126810   0.763   2.765   0.389 -1.8300  0.5957  0.9874
 1725TIP3    H226811   0.859   2.662   0.446  1.2322  1.5857 -2.0372
 1726TIP3   OH226812   4.570   5.214   6.661 -0.4596 -0.2301  0.2317
 1726TIP3    H126813   4.611   5.137   6.622 -2.2383 -1.5259  0.7948
 1726TIP3    H226814   4.532   5.261   6.587  1.4426  0.6698 -0.2243
 1727TIP3   OH226815   0.090   1.224   7.756 -0.7769  0.0916  1.0423
 1727TIP3    H126816   0.103   1.144   7.807 -2.1281 -0.2261  0.9126
 1727TIP3    H226817   0.028   1.200   7.688  1.1653  0.4379 -0.9580
 1728TIP3   OH226818   2.755   6.508   6.237  0.4066  0.5074  0.6681
 1728TIP3    H126819   2.831   6.489   6.291  0.3858  1.5850  1.1223
 1728TIP3    H226820   2.700   6.563   6.293 -0.7637 -0.3379  0.3916
 1729TIP3   OH226821   5.711   2.919   0.055 -0.9538  0.2074 -0.4217
 1729TIP3    H126822   5.642   2.917   0.122 -1.4381  0.9771 -0.8905
 1729TIP3    H226823   5.791   2.937   0.104 -1.6215  3.1061 -0.2580
 1730TIP3   OH226824   6.303   4.814   8.164 -0.8558 -0.1173  0.0799
 1730TIP3    H126825   6.223   4.772   8.196 -0.7474 -1.8007 -1.7027
 1730TIP3    H226826   6.341   4.751   8.104  1.2745  1.1055  0.0535
 1731TIP3   OH226827   5.610   1.475   8.407 -0.4909  0.6728 -0.2909
 1731TIP3    H126828   5.542   1.529   8.368 -2.2966 -1.2661 -0.0181
 1731TIP3    H226829   5.644   1.423   8.335 -1.8536 -0.8891  0.1289
 1732TIP3   OH226830   2.172   0.629   1.416 -0.2261 -0.3367  0.5393
 1732TIP3    H126831   2.188   0.619   1.322 -0.0546 -0.5432  0.5929
 1732TIP3    H226832   2.216   0.555   1.457  1.4736  0.8635  0.9711
 1733TIP3   OH226833   3.499   2.058   1.338 -0.0431  0.1879 -0.2456
 1733TIP3    H126834   3.508   1.985   1.398  0.4706  0.4176 -0.0438
 1733TIP3    H226835   3.587   2.072   1.303 -0.0382  1.0185  0.0822
 1734TIP3   OH226836   4.058   0.883   8.842 -0.7771 -0.0942 -0.1222
 1734TIP3    H126837   4.055   0.831   8.923  0.8680  0.1766  0.1554
 1734TIP3    H226838   4.015   0.828   8.777 -0.1865 -1.2796  0.4504
 1735TIP3   OH226839   1.280   0.907   0.814  0.2574  0.0638 -0.3203
 1735TIP3    H126840   1.348   0.968   0.841  0.0229 -0.2428  1.0293
 1735TIP3    H226841   1.220   0.960   0.761  1.1520  0.4982 -0.9117
 1736TIP3   OH226842   5.365   4.685   0.997  0.6345  0.5344 -0.3157
 1736TIP3    H126843   5.344   4.691   1.090  0.2935  0.8191 -0.4099
 1736TIP3    H226844   5.461   4.684   0.994  0.7040 -2.1515  0.2148
 1737TIP3   OH226845   3.734   4.694   7.900  0.0656 -0.0556  0.7375
 1737TIP3    H126846   3.750   4.769   7.843 -1.0136 -0.8964 -0.7585
 1737TIP3    H226847   3.678   4.729   7.969 -0.2813  0.5724  0.1564
 1738TIP3   OH226848   1.580   0.021   7.356 -0.4101 -0.2329  0.0563
 1738TIP3    H126849   1.519  -0.008   7.288  0.0499  0.8994 -0.8720
 1738TIP3    H226850   1.529   0.017   7.437 -1.6022  0.2925 -0.6370
 1739TIP3   OH226851   6.041   1.813   6.862  0.1922 -0.1895 -0.2250
 1739TIP3    H126852   6.021   1.778   6.775  1.9618 -2.5034  0.1966
 1739TIP3    H226853   6.033   1.737   6.921  0.6885  0.9334  1.3606
 1740TIP3   OH226854   1.257   4.128   8.295 -0.2158 -0.0944 -0.2526
 1740TIP3    H126855   1.298   4.155   8.377 -0.8448 -1.6563  0.6356
 1740TIP3    H226856   1.164   4.150   8.306 -0.2194  0.1660 -0.7703
 1741TIP3   OH226857   1.588   4.087   0.634  0.0997 -0.7839 -0.1978
 1741TIP3    H126858   1.523   4.157   0.640  0.9081  0.1437 -1.4986
 1741TIP3    H226859   1.544   4.017   0.588 -0.1797 -0.4106 -0.5072
 1742TIP3   OH226860   0.473   4.088   1.648  0.6037 -0.0311  0.0095
 1742TIP3    H126861   0.520   4.011   1.682  0.0711 -0.2333  0.3115
 1742TIP3    H226862   0.386   4.054   1.627 -0.2110  0.8394  1.7849
 1743TIP3   OH226863   1.576   4.561   0.637 -0.0507  0.1702  0.8414
 1743TIP3    H126864   1.607   4.587   0.550 -1.5996  1.3011  0.5826
 1743TIP3    H226865   1.656   4.541   0.686  0.9783  1.5374 -0.2116
 1744TIP3   OH226866   5.507   2.922   7.971 -0.1003 -0.3069 -0.5044
 1744TIP3    H126867   5.601   2.924   7.956 -0.2110  1.9940 -1.2628
 1744TIP3    H226868   5.471   2.874   7.897  0.3694  0.1053 -0.9983
 1745TIP3   OH226869   6.596   0.356   7.044 -0.2649  0.2919 -0.1276
 1745TIP3    H126870   6.625   0.294   7.111 -0.6962  0.7587  0.5032
 1745TIP3    H226871   6.666   0.422   7.041 -0.3054  0.3376 -0.0544
 1746TIP3   OH226872   3.794   2.841   0.406  0.2792  0.3050 -0.0927
 1746TIP3    H126873   3.889   2.838   0.413  0.2633  0.2890  0.1244
 1746TIP3    H226874   3.775   2.927   0.369  0.4575 -0.2657 -1.5808
 1747TIP3   OH226875   1.283   1.233   7.603 -0.2200 -0.4886  0.1102
 1747TIP3    H126876   1.219   1.221   7.533  0.3141 -0.7254 -0.3377
 1747TIP3    H226877   1.241   1.296   7.662  0.3136  1.5911 -1.6327
 1748TIP3   OH226878   4.535   6.247   1.704  0.1404  1.0700 -0.4447
 1748TIP3    H126879   4.532   6.209   1.616  0.1199  2.2713 -0.9874
 1748TIP3    H226880   4.515   6.174   1.762  0.8755  0.0807 -1.3803
 1749TIP3   OH226881   3.267   1.345   1.395  0.3582 -0.2317 -0.1101
 1749TIP3    H126882   3.247   1.276   1.459 -0.3964 -0.3959 -0.5026
 1749TIP3    H226883   3.188   1.399   1.392  1.0940  0.9102  0.4969
 1750TIP3   OH226884   4.309   2.585   7.584 -0.1738  0.6816 -0.1225
 1750TIP3    H126885   4.349   2.530   7.652 -0.8525 -0.4856 -0.6386
 1750TIP3    H226886   4.376   2.591   7.516 -0.2247  0.1755 -0.2229
 1751TIP3   OH226887   0.682   6.208   8.902 -0.1020  0.1028  0.3690
 1751TIP3    H126888   0.725   6.252   8.975 -0.2586  1.3470 -0.2489
 1751TIP3    H226889   0.598   6.179   8.937  0.5997 -1.0258  1.1778
 1752TIP3   OH226890   5.894   1.224   6.569  0.1313 -0.4069  0.1615
 1752TIP3    H126891   5.802   1.243   6.587 -0.3281 -0.3312 -2.0360
 1752TIP3    H226892   5.929   1.307   6.536  0.3716 -1.0167 -1.1651
 1753TIP3   OH226893   2.571   3.677   7.513 -0.0938  0.2848 -0.1241
 1753TIP3    H126894   2.618   3.692   7.595 -1.2913  1.5562  0.3729
 1753TIP3    H226895   2.614   3.735   7.450  0.2362 -0.0146 -0.1825
 1754TIP3   OH226896   3.774   2.889   8.367 -0.4956  0.0102 -0.0863
 1754TIP3    H126897   3.692   2.875   8.415  0.5328  1.3675  2.2578
 1754TIP3    H226898   3.785   2.810   8.315 -1.9209 -1.4290  1.6458
 1755TIP3   OH226899   6.079   0.871   8.349 -0.3682 -0.5386 -0.5333
 1755TIP3    H126900   6.103   0.874   8.442 -0.7588  0.5658 -0.4559
 1755TIP3    H226901   6.151   0.916   8.305 -0.6884 -0.1220 -0.6421
 1756TIP3   OH226902   2.919   4.808   0.725 -0.2607  0.4734 -0.2730
 1756TIP3    H126903   2.928   4.751   0.802  0.3645  0.0153 -0.6820
 1756TIP3    H226904   3.009   4.831   0.701 -0.4007 -0.0266 -1.3407
 1757TIP3   OH226905   3.463   2.526   7.647 -0.8895 -0.3150 -0.4007
 1757TIP3    H126906   3.440   2.565   7.563 -0.3576  2.8632  0.8055
 1757TIP3    H226907   3.380   2.521   7.695 -0.9844 -0.9354 -0.6116
 1758TIP3   OH226908   3.743   4.812   0.586  0.5308  0.3693  0.1673
 1758TIP3    H126909   3.705   4.725   0.572 -1.1187  0.9627  0.7232
 1758TIP3    H226910   3.836   4.795   0.600  0.8545 -1.0106 -2.8358
 1759TIP3   OH226911   0.935   3.446   0.044  0.5166  0.0622  0.3331
 1759TIP3    H126912   0.927   3.521  -0.015  2.0399 -0.6551 -0.8639
 1759TIP3    H226913   0.935   3.484   0.132  2.8886  1.6865 -0.2773
 1760TIP3   OH226914   3.797   6.052   8.776  0.3820  0.2636 -0.3547
 1760TIP3    H126915   3.783   6.143   8.800  0.9977  0.3670 -0.3702
 1760TIP3    H226916   3.710   6.020   8.751  0.1761  0.8685 -0.4337
 1761TIP3   OH226917   4.037   2.637   6.973 -0.3897 -0.0998  0.1488
 1761TIP3    H126918   4.085   2.718   6.991 -1.8048  0.6809  0.5205
 1761TIP3    H226919   4.042   2.589   7.055  2.8245 -1.7565 -0.8245
 1762TIP3   OH226920   3.923   0.693   0.107  0.0754  0.1496 -0.2610
 1762TIP3    H126921   3.862   0.767   0.111 -0.9585 -0.7059  0.1166
 1762TIP3    H226922   3.889   0.637   0.037 -0.6296 -1.2207  1.1114
 1763TIP3   OH226923   5.937   5.434   0.138 -0.6226  0.4132  0.3259
 1763TIP3    H126924   5.973   5.485   0.065  0.8228 -0.3959  0.4307
 1763TIP3    H226925   5.992   5.458   0.213 -0.8863 -0.1639  0.7131
 1764TIP3   OH226926   2.754   6.190   7.542 -0.6660 -0.2411 -0.1063
 1764TIP3    H126927   2.733   6.099   7.561  0.8139 -0.6269 -0.1498
 1764TIP3    H226928   2.820   6.185   7.473 -0.1098  0.8230  0.3254
 1765TIP3   OH226929   5.614   1.783   6.694 -0.1062  0.3001 -0.1485
 1765TIP3    H126930   5.668   1.711   6.727 -1.5865  0.7760  3.8413
 1765TIP3    H226931   5.561   1.742   6.625  1.1031 -1.6706  0.0082
 1766TIP3   OH226932   2.145   3.623   6.977  0.0156 -0.1070 -0.2399
 1766TIP3    H126933   2.216   3.594   6.919  1.5828  0.3172  1.3652
 1766TIP3    H226934   2.104   3.696   6.931  1.6361  0.6281 -0.5815
 1767TIP3   OH226935   4.577   2.734   0.984 -0.5412  0.8167  0.3534
 1767TIP3    H126936   4.550   2.644   0.964  0.6524  0.6915 -0.8565
 1767TIP3    H226937   4.662   2.724   1.027 -1.2562  1.3018  1.9267
 1768TIP3   OH226938   2.695   5.967   1.832  0.2759  0.1094  0.2149
 1768TIP3    H126939   2.754   5.896   1.857  0.9478  0.5128 -0.1774
 1768TIP3    H226940   2.713   5.981   1.739 -1.3655 -0.6075 -0.2380
 1769TIP3   OH226941   4.990   3.679   7.139 -0.0563  0.0133  0.5697
 1769TIP3    H126942   4.941   3.599   7.123  0.6243  0.0162 -2.0579
 1769TIP3    H226943   4.924   3.748   7.141 -0.3691 -0.0124 -2.6514
 1770TIP3   OH226944   4.950   0.959   1.183  0.0161  0.1276  0.5278
 1770TIP3    H126945   4.947   0.997   1.271  3.1588 -0.8514  1.1754
 1770TIP3    H226946   4.882   0.892   1.183  0.2476 -0.1622  2.4188
 1771TIP3   OH226947   2.088   3.844   0.233  0.1431 -0.5022  0.2588
 1771TIP3    H126948   2.177   3.880   0.238  0.4648 -1.2651  0.1396
 1771TIP3    H226949   2.076   3.821   0.141 -0.4644  0.2794  0.1293
 1772TIP3   OH226950   1.338   4.691   1.801 -0.1066 -0.0770  0.0323
 1772TIP3    H126951   1.262   4.719   1.750  0.3607  0.2805 -0.4880
 1772TIP3    H226952   1.406   4.674   1.735  0.8711  1.4751  0.5688
 1773TIP3   OH226953   5.655   0.060   8.951  0.3134 -0.3397 -0.4361
 1773TIP3    H126954   5.611   0.037   8.870  1.3547  1.4548 -1.5666
 1773TIP3    H226955   5.709   0.136   8.929 -2.2797  2.7918  2.7464
 1774TIP3   OH226956   5.261   5.064   0.241 -0.4806  0.1748 -0.1956
 1774TIP3    H126957   5.331   5.007   0.208 -1.9215 -0.4809 -2.3084
 1774TIP3    H226958   5.180   5.025   0.208 -1.7589  1.7558  0.8970
 1775TIP3   OH226959   1.685   1.514   1.911  0.3685  0.6144 -0.4587
 1775TIP3    H126960   1.629   1.530   1.987 -0.0479  0.3552 -0.7063
 1775TIP3    H226961   1.760   1.467   1.946  0.3860  0.8837 -0.1371
 1776TIP3   OH226962   2.575   5.936   0.970 -0.3380  0.3021  0.8008
 1776TIP3    H126963   2.542   5.998   0.905  1.5186  0.4021 -0.1085
 1776TIP3    H226964   2.636   5.987   1.023 -0.3303 -0.2709  1.3547
 1777TIP3   OH226965   3.332   0.346   8.392 -0.1052 -0.5199 -0.2276
 1777TIP3    H126966   3.245   0.313   8.412 -0.3940  0.5560  0.3779
 1777TIP3    H226967   3.347   0.321   8.301 -1.2872 -0.2126 -0.5236
 1778TIP3   OH226968   2.398   1.206   1.669  0.1555  0.1557 -0.3446
 1778TIP3    H126969   2.343   1.278   1.697  0.7204  1.2964 -2.0301
 1778TIP3    H226970   2.337   1.134   1.652 -0.4585  0.3779  0.8514
 1779TIP3   OH226971   4.372   5.339   1.486  0.8335 -0.0708 -0.8962
 1779TIP3    H126972   4.382   5.299   1.399 -0.9729  2.3694 -2.3638
 1779TIP3    H226973   4.340   5.268   1.541 -3.0015 -0.7127 -3.5518
 1780TIP3   OH226974   3.412   3.134   1.089  0.0685 -0.3494  0.1774
 1780TIP3    H126975   3.481   3.176   1.140  0.5572 -1.1293  0.1691
 1780TIP3    H226976   3.412   3.180   1.005  0.7398 -0.5036  0.0928
 1781TIP3   OH226977   4.199   6.328   6.352 -0.4434 -0.1083 -0.3123
 1781TIP3    H126978   4.226   6.242   6.385 -2.7070  0.1616  2.7384
 1781TIP3    H226979   4.138   6.308   6.280  0.3504 -0.9730 -0.7653
 1782TIP3   OH226980   2.317   2.338   7.369  0.2499 -0.1632 -0.2721
 1782TIP3    H126981   2.325   2.356   7.275  0.3285  0.4057 -0.1630
 1782TIP3    H226982   2.227   2.365   7.390  0.7511  1.2603  0.1334
 1783TIP3   OH226983   4.065   4.187   0.979 -0.4023  0.0352  0.1728
 1783TIP3    H126984   4.083   4.281   0.983  0.0409  0.0548 -1.5455
 1783TIP3    H226985   3.970   4.181   0.992 -0.1965  0.5392  2.1394
 1784TIP3   OH226986   5.950   0.015   8.578 -0.2563  0.5945 -0.6056
 1784TIP3    H126987   5.970   0.091   8.524 -1.6493  0.7932 -0.8592
 1784TIP3    H226988   5.860   0.028   8.607  0.1793  0.0858  1.1007
 1785TIP3   OH226989   3.675   0.973   7.892 -0.2263  0.1239  0.4261
 1785TIP3    H126990   3.630   0.894   7.863  1.4447 -1.0759  0.8967
 1785TIP3    H226991   3.768   0.954   7.877  0.2116  2.0939  0.3748
 1786TIP3   OH226992   5.621   1.147   7.587  0.2141  0.2959 -0.1880
 1786TIP3    H126993   5.625   1.242   7.588  0.3208  0.2939 -0.3593
 1786TIP3    H226994   5.529   1.126   7.602  0.3527  0.4034  0.9295
 1787TIP3   OH226995   3.831   5.447   8.755  0.7461  0.1768 -0.1055
 1787TIP3    H126996   3.925   5.433   8.766  1.4202  2.8897 -1.6852
 1787TIP3    H226997   3.815   5.534   8.791 -1.2348 -0.2984  0.2811
 1788TIP3   OH226998   0.357   2.364   0.241 -0.5480 -0.5057 -0.0630
 1788TIP3    H126999   0.427   2.319   0.288 -0.4764  1.2943  1.6820
 1788TIP3    H227000   0.315   2.420   0.307 -0.5426  2.0777 -2.0521
 1789TIP3   OH227001   5.872   5.342   0.876  0.2595  0.8095 -0.1134
 1789TIP3    H127002   5.795   5.297   0.910  0.7846 -1.9450 -2.1732
 1789TIP3    H227003   5.922   5.365   0.954 -2.3676  2.3465  1.2764
 1790TIP3   OH227004   4.367   3.767   7.874 -0.4629 -0.0184  0.5007
 1790TIP3    H127005   4.420   3.830   7.923  0.8019 -0.0333 -0.7837
 1790TIP3    H227006   4.313   3.724   7.940  1.9822 -0.8489  2.0691
 1791TIP3   OH227007   0.932   6.502   1.417  0.1368  0.0754 -0.0992
 1791TIP3    H127008   0.897   6.570   1.359  2.2184  1.1090 -0.2572
 1791TIP3    H227009   0.872   6.429   1.406  0.6768 -0.0255 -4.0909
 1792TIP3   OH227010   4.834   4.370   1.466  0.6555 -0.2922  0.3076
 1792TIP3    H127011   4.865   4.313   1.536  2.7360  1.5629  1.0335
 1792TIP3    H227012   4.867   4.329   1.386  1.2078 -0.6917  0.7267
 1793TIP3   OH227013   2.916   1.063   1.149  0.4213 -0.3314 -0.3880
 1793TIP3    H127014   2.909   1.025   1.061  2.7672 -1.3066 -0.2270
 1793TIP3    H227015   2.920   0.987   1.208 -1.6205  0.3150  0.6624
 1794TIP3   OH227016   3.902   5.855   7.034  0.0937  0.4222 -0.8113
 1794TIP3    H127017   3.950   5.874   7.115 -1.1747  1.1788 -0.1960
 1794TIP3    H227018   3.866   5.767   7.047 -0.7440  0.8366 -0.1944
 1795TIP3   OH227019   3.019   6.044   6.902  0.5389 -0.4275  0.0274
 1795TIP3    H127020   3.095   6.101   6.890 -0.0063  0.4752  0.7558
 1795TIP3    H227021   2.977   6.043   6.816  0.1802  0.8435  0.1638
 1796TIP3   OH227022   0.144   4.335   8.490  0.3146  0.2459 -0.0624
 1796TIP3    H127023   0.213   4.293   8.542  0.5001  0.1884 -0.3497
 1796TIP3    H227024   0.062   4.309   8.532  0.4570  0.0881  0.1172
 1797TIP3   OH227025   6.617   1.541   0.392 -0.6503  0.4463  0.5032
 1797TIP3    H127026   6.696   1.490   0.411 -0.3048  0.4100 -0.9215
 1797TIP3    H227027   6.547   1.495   0.439 -0.3616 -1.4232 -0.8011
 1798TIP3   OH227028   0.932   1.052   0.861  0.2464  0.7902  0.1317
 1798TIP3    H127029   0.999   1.066   0.794 -1.1541  0.6330 -1.3631
 1798TIP3    H227030   0.887   0.972   0.833  0.0505  0.3545  1.6360
 1799TIP3   OH227031   6.554   0.337   8.976  0.3732 -0.4402 -0.0955
 1799TIP3    H127032   6.498   0.275   8.928  0.1446  0.4713 -1.0560
 1799TIP3    H227033   6.643   0.314   8.951  0.4275 -1.5716  1.0390
 1800TIP3   OH227034   4.368   5.714   1.067  0.6247  0.2263 -0.6364
 1800TIP3    H127035   4.415   5.775   1.124  0.2189 -0.5096  0.5187
 1800TIP3    H227036   4.276   5.736   1.079  0.5034 -0.3415 -0.5217
 1801TIP3   OH227037   4.221   4.142   1.261  0.6374 -0.6371  0.1456
 1801TIP3    H127038   4.288   4.193   1.215  0.0609  0.6819  0.7065
 1801TIP3    H227039   4.161   4.114   1.192  0.5927  0.0528 -0.1069
 1802TIP3   OH227040   2.781   1.656   7.789 -0.7385 -0.2219  0.1064
 1802TIP3    H127041   2.769   1.564   7.765 -1.6215  0.5515 -2.7733
 1802TIP3    H227042   2.820   1.697   7.712  0.3666  1.7111  1.5872
 1803TIP3   OH227043   2.656   3.815   7.293  0.0511 -0.3471 -0.0175
 1803TIP3    H127044   2.719   3.881   7.320  0.0065  0.2270 -1.2423
 1803TIP3    H227045   2.695   3.775   7.216 -0.7108 -0.5411 -0.3141
 1804TIP3   OH227046   0.238   5.191   8.804 -0.1620 -0.6388  0.0908
 1804TIP3    H127047   0.283   5.110   8.828  0.2800 -0.5295 -0.3633
 1804TIP3    H227048   0.147   5.177   8.831  0.1326 -0.8585  1.0279
 1805TIP3   OH227049   6.419   5.063   8.132 -0.0177  0.3667 -0.1994
 1805TIP3    H127050   6.389   4.974   8.154 -0.4730  1.0730  2.3626
 1805TIP3    H227051   6.511   5.064   8.157 -0.1750  0.7678  0.3925
 1806TIP3   OH227052   2.349   1.376   1.431  0.1660 -0.2187  0.0929
 1806TIP3    H127053   2.369   1.451   1.375  0.4285 -0.5813 -0.3157
 1806TIP3    H227054   2.378   1.300   1.379 -1.7091 -0.7392 -0.2625
 1807TIP3   OH227055   5.351   1.133   1.205  0.2499  0.6801 -0.1252
 1807TIP3    H127056   5.310   1.061   1.253  0.8901 -0.0948 -0.6961
 1807TIP3    H227057   5.278   1.184   1.172 -0.2066  1.0752  1.4101
 1808TIP3   OH227058   3.991   2.181   7.132  0.0008 -0.2125  0.1227
 1808TIP3    H127059   3.958   2.131   7.207 -1.9541  2.1685  0.9985
 1808TIP3    H227060   3.918   2.180   7.069  0.0334  1.2113  0.0373
 1809TIP3   OH227061   5.669   2.948   1.183 -0.0146  0.1279  0.2072
 1809TIP3    H127062   5.709   3.011   1.243 -0.8172  0.5395  0.3298
 1809TIP3    H227063   5.667   2.866   1.232  4.0964 -0.9941 -1.0789
 1810TIP3   OH227064   4.147   2.805   0.636  0.4487 -0.4867 -0.0866
 1810TIP3    H127065   4.078   2.872   0.638  0.8404 -0.0963  0.7350
 1810TIP3    H227066   4.203   2.825   0.711  1.1399 -1.1446 -0.4088
 1811TIP3   OH227067   0.323   5.970   7.736 -0.1993 -0.3446 -0.7976
 1811TIP3    H127068   0.283   6.020   7.665 -1.7935 -0.2410  0.1287
 1811TIP3    H227069   0.412   6.005   7.743 -1.1484  2.1907 -0.3814
 1812TIP3   OH227070   4.665   3.301   0.585 -1.0522 -0.7623  0.2824
 1812TIP3    H127071   4.712   3.328   0.506 -0.7459 -1.6672  0.1469
 1812TIP3    H227072   4.729   3.307   0.655 -1.0645 -0.8417  0.3011
 1813TIP3   OH227073   0.132   6.019   0.607 -0.0323 -0.1174  0.2416
 1813TIP3    H127074   0.142   6.028   0.512 -1.3483 -2.3291 -0.1750
 1813TIP3    H227075   0.112   6.108   0.637  1.1629  0.7681 -1.4267
 1814TIP3   OH227076   0.836   4.995   1.066  0.2435  0.2872 -0.1157
 1814TIP3    H127077   0.876   4.922   1.113 -0.0391 -0.3417 -0.8473
 1814TIP3    H227078   0.743   4.975   1.065 -0.0821  1.5101  1.1569
 1815TIP3   OH227079   3.217   3.403   0.564  0.0733 -0.1118 -0.2652
 1815TIP3    H127080   3.181   3.332   0.511  0.0504 -0.6332  0.4249
 1815TIP3    H227081   3.140   3.444   0.604  0.2168 -1.6532  1.7449
 1816TIP3   OH227082   1.904   3.530   6.422 -0.3935  0.9580 -0.1723
 1816TIP3    H127083   1.939   3.518   6.510  0.7101 -0.4338 -0.7757
 1816TIP3    H227084   1.965   3.484   6.364 -0.6196  2.5449 -1.7755
 1817TIP3   OH227085   0.254   5.724   8.783  0.2239  0.1106  0.8513
 1817TIP3    H127086   0.185   5.677   8.736  0.8898  1.1811 -1.3721
 1817TIP3    H227087   0.320   5.657   8.802 -0.3806 -0.4806  0.9007
 1818TIP3   OH227088   0.580   0.327   0.557 -0.3911 -0.1919 -0.8054
 1818TIP3    H127089   0.520   0.402   0.560 -0.3246 -0.1680  0.1590
 1818TIP3    H227090   0.637   0.345   0.482  0.9649  1.7699  0.5953
 1819TIP3   OH227091   0.521   5.059   0.563  0.2275 -0.6621 -0.2453
 1819TIP3    H127092   0.466   5.092   0.493  0.9247 -0.3534 -0.6572
 1819TIP3    H227093   0.460   5.037   0.634 -0.3541  0.3215 -0.4312
 1820TIP3   OH227094   1.914   3.276   7.351 -0.1103  0.2072  0.2416
 1820TIP3    H127095   1.983   3.330   7.389 -0.2712  2.3782 -2.2941
 1820TIP3    H227096   1.960   3.209   7.301  0.0805 -0.6253  1.4750
 1821TIP3   OH227097   3.290   2.978   8.287  0.3467 -0.0766 -0.0641
 1821TIP3    H127098   3.276   3.037   8.361  0.2806 -1.3130  0.9564
 1821TIP3    H227099   3.385   2.974   8.277  0.3304  1.6484 -1.3995
 1822TIP3   OH227100   0.289   5.653   2.098 -0.0842 -0.4037  0.2566
 1822TIP3    H127101   0.384   5.644   2.101  0.0119  0.2263 -0.5228
 1822TIP3    H227102   0.273   5.721   2.032 -1.1841 -2.2662 -1.5216
 1823TIP3   OH227103   1.647   2.944   8.512 -0.4432  0.1960 -0.4793
 1823TIP3    H127104   1.566   2.894   8.502 -1.5288  1.9219 -0.8901
 1823TIP3    H227105   1.683   2.917   8.596 -1.6131 -0.3813 -0.1509
 1824TIP3   OH227106   6.614   5.706   8.301  0.2909  0.3480  0.4508
 1824TIP3    H127107   6.590   5.696   8.393  1.6310  1.1546  0.9249
 1824TIP3    H227108   6.659   5.624   8.279 -0.1656  0.0924  0.4722
 1825TIP3   OH227109   0.681   3.610   0.998 -0.5396 -0.0573 -0.0888
 1825TIP3    H127110   0.707   3.698   0.970  3.0722 -1.5243 -2.0156
 1825TIP3    H227111   0.669   3.562   0.916 -1.9141 -1.5500  0.9327
 1826TIP3   OH227112   1.491   6.708   0.968  0.3531  0.3936 -0.3411
 1826TIP3    H127113   1.445   6.689   1.049  0.4719  2.6000  0.2842
 1826TIP3    H227114   1.575   6.661   0.977 -0.1413 -0.4103  0.2202
 1827TIP3   OH227115   2.552   2.786   1.090 -0.1190 -0.0619  0.1018
 1827TIP3    H127116   2.490   2.785   1.162 -0.4106 -0.4349 -0.1542
 1827TIP3    H227117   2.638   2.796   1.133 -0.3238  0.1484  0.4695
 1828TIP3   OH227118   3.001   5.714   8.931 -0.0084  0.9318  0.5737
 1828TIP3    H127119   2.910   5.688   8.948 -0.4435  1.3099 -1.0516
 1828TIP3    H227120   3.029   5.756   9.012 -2.0186  2.7934  0.3873
 1829TIP3   OH227121   6.743   3.628   7.645  0.0686  0.0156 -0.3043
 1829TIP3    H127122   6.671   3.654   7.702 -0.5829 -0.0940 -1.0728
 1829TIP3    H227123   6.759   3.704   7.589  1.2961  0.4534  0.5775
 1830TIP3   OH227124   1.379   1.326   8.369  0.1117 -0.3855 -0.0856
 1830TIP3    H127125   1.466   1.352   8.339 -0.6167 -0.2992 -2.2923
 1830TIP3    H227126   1.336   1.409   8.392  0.4097 -0.3765  0.4480
 1831TIP3   OH227127   3.846   2.250   7.602  0.2160 -0.3174 -0.5194
 1831TIP3    H127128   3.842   2.176   7.663 -2.0678 -1.0989 -1.5094
 1831TIP3    H227129   3.783   2.313   7.637  0.5637  0.2141 -0.8482
 1832TIP3   OH227130   0.962   0.072   0.961  0.0467 -0.8831  0.5469
 1832TIP3    H127131   0.980   0.156   1.003  0.8163 -1.1801  0.8299
 1832TIP3    H227132   0.879   0.086   0.915  0.3795  0.1717  0.2165
 1833TIP3   OH227133   4.549   4.985   7.897  0.5392  0.4555  0.2776
 1833TIP3    H127134   4.633   4.940   7.902  0.0566 -0.7490 -1.4882
 1833TIP3    H227135   4.535   4.997   7.803 -1.3234  0.5153  0.5436
 1834TIP3   OH227136   0.973   2.816   0.081  0.0537  0.2572 -1.3365
 1834TIP3    H127137   0.900   2.828   0.142  1.4748  0.4210  0.4384
 1834TIP3    H227138   0.962   2.885   0.016  1.2514  3.5944  1.6624
 1835TIP3   OH227139   5.051   1.377   8.098 -0.3403 -0.3095 -0.1084
 1835TIP3    H127140   5.064   1.282   8.099 -1.1578 -0.4273  0.8470
 1835TIP3    H227141   4.966   1.390   8.141  0.3999  0.9400  1.0374
 1836TIP3   OH227142   2.312   0.777   6.747 -0.0137 -0.1693 -0.3633
 1836TIP3    H127143   2.407   0.769   6.734  0.3689 -0.8668  2.2554
 1836TIP3    H227144   2.296   0.871   6.748  1.0779  0.0467  1.2984
 1837TIP3   OH227145   0.681   6.538   0.056 -0.1131  0.1494  0.2190
 1837TIP3    H127146   0.600   6.495   0.028 -0.7536  1.0842  0.6020
 1837TIP3    H227147   0.726   6.471   0.107 -0.5891 -0.4175 -0.0783
 1838TIP3   OH227148   2.402   3.485   7.409 -0.7485 -0.1490 -0.4022
 1838TIP3    H127149   2.463   3.465   7.338  0.3261 -0.8078  0.6720
 1838TIP3    H227150   2.440   3.561   7.452 -0.8806 -0.3405  0.0560
 1839TIP3   OH227151   5.682   6.124   7.775 -0.3113 -0.0269  0.1828
 1839TIP3    H127152   5.744   6.177   7.725 -0.9572  1.8069  1.2320
 1839TIP3    H227153   5.596   6.158   7.752 -0.8889 -1.6886 -0.2753
 1840TIP3   OH227154   5.470   2.525   7.005  0.1355  0.0103 -0.1341
 1840TIP3    H127155   5.428   2.498   6.924 -1.7038 -1.0490  1.0941
 1840TIP3    H227156   5.541   2.583   6.978 -0.4353 -0.3043 -2.4684
 1841TIP3   OH227157   2.739   5.397   1.074 -0.7683  0.3912 -0.5446
 1841TIP3    H127158   2.775   5.360   1.155  1.1750  1.5754 -0.8060
 1841TIP3    H227159   2.783   5.350   1.004 -2.2201 -0.4155 -0.9590
 1842TIP3   OH227160   1.349   6.176   0.412 -0.7068  0.0006 -0.2331
 1842TIP3    H127161   1.388   6.253   0.370 -0.5654  0.7627  1.2167
 1842TIP3    H227162   1.401   6.103   0.379 -0.1609  0.6373 -0.8366
 1843TIP3   OH227163   6.202   4.004   8.275 -0.0504  0.2914  0.0899
 1843TIP3    H127164   6.153   4.021   8.355 -0.6544  0.4379 -0.2960
 1843TIP3    H227165   6.135   3.979   8.211  0.3690  0.6128 -0.4870
 1844TIP3   OH227166   1.706   1.778   7.277 -0.0993 -0.4867 -0.1783
 1844TIP3    H127167   1.759   1.825   7.212 -0.8221  0.4518 -0.1111
 1844TIP3    H227168   1.756   1.699   7.295  2.5706  1.4065  1.6897
 1845TIP3   OH227169   2.353   4.124   2.230  0.2845  0.4499  0.4998
 1845TIP3    H127170   2.303   4.101   2.307  1.1164 -0.4743  0.7823
 1845TIP3    H227171   2.427   4.063   2.230  0.7225  0.9534 -0.5878
 1846TIP3   OH227172   5.592   4.389   0.363 -0.1167  0.6499 -0.0123
 1846TIP3    H127173   5.660   4.366   0.426 -1.2076  1.1027  1.3945
 1846TIP3    H227174   5.621   4.472   0.326 -0.9609  2.1025  2.3457
 1847TIP3   OH227175   1.534   1.575   8.284 -0.0403 -0.7892 -0.0372
 1847TIP3    H127176   1.452   1.612   8.252  1.1943  0.2345 -2.2875
 1847TIP3    H227177   1.594   1.582   8.209  2.1872 -1.2030  1.6093
 1848TIP3   OH227178   5.945   4.541   6.320  0.3029 -0.4025 -0.5030
 1848TIP3    H127179   6.005   4.608   6.285 -0.5590  0.7054  0.0812
 1848TIP3    H227180   5.913   4.578   6.402 -1.2667 -0.8985 -0.8491
 1849TIP3   OH227181   6.037   0.137   7.540  0.1600  0.0312  0.2830
 1849TIP3    H127182   6.055   0.175   7.454 -0.6617 -0.4099 -0.0936
 1849TIP3    H227183   6.057   0.044   7.529  2.2913  0.3070  1.2373
 1850TIP3   OH227184   5.772   3.121   8.227  0.3197 -0.1657  0.5919
 1850TIP3    H127185   5.742   3.099   8.139  0.8581 -1.2554  0.6611
 1850TIP3    H227186   5.847   3.063   8.242  2.2529  2.1586  0.5643
 1851TIP3   OH227187   6.385   1.358   8.884  0.4359  0.0804 -0.1456
 1851TIP3    H127188   6.473   1.331   8.858  0.0545 -0.9787 -0.4007
 1851TIP3    H227189   6.341   1.276   8.907 -0.5757  0.5628 -0.3126
 1852TIP3   OH227190   5.263   2.105   0.850 -0.2790  0.1536 -0.0147
 1852TIP3    H127191   5.349   2.090   0.812 -1.5130  0.6354 -3.3659
 1852TIP3    H227192   5.240   2.194   0.824 -1.9673 -0.1435  0.3364
 1853TIP3   OH227193   4.943   0.039   1.291 -0.1181  0.1541 -0.0057
 1853TIP3    H127194   4.960   0.078   1.205 -2.6038 -0.1103 -0.7021
 1853TIP3    H227195   5.030   0.015   1.324  0.8668 -0.8188 -2.9558
 1854TIP3   OH227196   0.543   0.685   8.874 -0.5048  0.7291  0.2872
 1854TIP3    H127197   0.543   0.765   8.926 -0.9274  1.0611 -0.2169
 1854TIP3    H227198   0.465   0.638   8.903 -0.6121  0.8049  0.1232
 1855TIP3   OH227199   1.372   4.258   6.089  0.4622 -0.3094 -0.1982
 1855TIP3    H127200   1.389   4.261   6.183  0.6679 -0.0031 -0.2435
 1855TIP3    H227201   1.294   4.203   6.080  1.4800 -1.8164  0.0085
 1856TIP3   OH227202   5.354   4.918   7.283  0.0673 -0.2683  0.3759
 1856TIP3    H127203   5.383   4.942   7.371  0.6977  3.6575 -0.6785
 1856TIP3    H227204   5.275   4.970   7.269  0.5980  0.0680 -1.7219
 1857TIP3   OH227205   6.085   2.199   7.289  0.1255 -0.1635 -0.6021
 1857TIP3    H127206   6.120   2.257   7.357  1.3449 -1.5433  0.0011
 1857TIP3    H227207   6.002   2.168   7.325 -0.7249  1.4296 -1.0873
 1858TIP3   OH227208   4.642   4.588   8.002  0.4065 -0.7888 -0.3069
 1858TIP3    H127209   4.691   4.537   8.067  0.4646 -0.0854  0.2080
 1858TIP3    H227210   4.551   4.562   8.015  0.7543 -4.0821 -2.9773
 1859TIP3   OH227211   6.472   1.779   8.144 -0.0644 -0.3687 -0.2786
 1859TIP3    H127212   6.464   1.874   8.153 -0.4350 -0.3588 -0.6710
 1859TIP3    H227213   6.546   1.755   8.200  0.6305  0.2767 -0.8950
 1860TIP3   OH227214   4.336   5.049   1.463  0.0282 -0.1097 -0.2745
 1860TIP3    H127215   4.354   4.978   1.524  0.6889  0.4183  0.1560
 1860TIP3    H227216   4.248   5.080   1.488  0.2282 -0.0029  0.3098
 1861TIP3   OH227217   0.124   0.639   0.442 -0.2089 -0.4079 -0.4153
 1861TIP3    H127218   0.105   0.686   0.361 -1.3799 -2.4054 -1.3902
 1861TIP3    H227219   0.100   0.700   0.512 -0.3671  0.9117 -1.5718
 1862TIP3   OH227220   0.874   5.765   7.649 -0.1208 -0.0120 -0.0154
 1862TIP3    H127221   0.882   5.713   7.568  1.3076 -0.4388  0.3746
 1862TIP3    H227222   0.896   5.854   7.622 -1.9991  0.3170 -0.5663
 1863TIP3   OH227223   0.204   3.292   6.687 -0.2609 -0.1519 -0.4658
 1863TIP3    H127224   0.184   3.207   6.727 -0.1383 -0.4334 -0.9869
 1863TIP3    H227225   0.280   3.324   6.735  1.1218 -1.3935 -1.7070
 1864TIP3   OH227226   2.717   0.262   0.385 -0.0267  0.1268 -0.5410
 1864TIP3    H127227   2.639   0.310   0.414 -0.5722 -1.1783  0.2273
 1864TIP3    H227228   2.706   0.251   0.291 -0.4924  0.4138 -0.5203
 1865TIP3   OH227229   5.065   3.978   1.682 -0.2295  0.0915  0.3016
 1865TIP3    H127230   5.157   3.983   1.706  0.1390 -0.7641 -0.8526
 1865TIP3    H227231   5.037   3.892   1.713  0.1223 -0.8232 -1.7571
 1866TIP3   OH227232   0.287   3.768   7.450  0.4385 -0.3866  0.1068
 1866TIP3    H127233   0.242   3.689   7.421  0.6937 -0.9381  1.1349
 1866TIP3    H227234   0.220   3.819   7.495  0.7065 -0.9977  1.2427
 1867TIP3   OH227235   5.969   5.466   8.170 -0.1423  0.1548 -0.2509
 1867TIP3    H127236   5.972   5.371   8.175  0.1258  0.1764  0.0224
 1867TIP3    H227237   6.020   5.487   8.092 -1.3817  0.0052 -1.1309
 1868TIP3   OH227238   2.711   3.003   2.167  0.5288 -0.6889 -0.0383
 1868TIP3    H127239   2.791   3.038   2.206  0.5800 -2.2220  1.3286
 1868TIP3    H227240   2.740   2.923   2.122 -0.2714 -1.5328  0.8978
 1869TIP3   OH227241   3.887   3.618   0.439  0.0836 -0.8202 -0.0819
 1869TIP3    H127242   3.824   3.563   0.392 -1.9273  0.6847  0.7086
 1869TIP3    H227243   3.845   3.704   0.444  2.5288  0.4411 -0.0727
 1870TIP3   OH227244   4.251   2.084   6.007 -0.0504  0.0093 -0.2262
 1870TIP3    H127245   4.330   2.037   6.031  0.4916  1.1641  0.3269
 1870TIP3    H227246   4.260   2.170   6.048 -0.7835  0.7751 -1.5607
 1871TIP3   OH227247   2.559   0.054   0.531 -0.6057 -0.2717 -0.2154
 1871TIP3    H127248   2.631   0.020   0.478  0.0807  0.5023  0.1958
 1871TIP3    H227249   2.499   0.095   0.468  1.0793  2.2524 -0.3363
 1872TIP3   OH227250   0.949   5.220   6.562  0.1265  0.2204  0.5685
 1872TIP3    H127251   1.009   5.201   6.634 -1.1153 -0.2655  1.5112
 1872TIP3    H227252   1.003   5.265   6.497  1.1609  1.1639  2.0259
 1873TIP3   OH227253   2.532   6.559   1.759 -0.0284 -0.3136  0.3279
 1873TIP3    H127254   2.579   6.490   1.713  1.2638  0.0513  1.0465
 1873TIP3    H227255   2.600   6.608   1.805 -0.8705  1.6265 -0.3852
 1874TIP3   OH227256   0.981   2.670   1.011  0.0755  0.1686  0.4784
 1874TIP3    H127257   0.923   2.615   0.959 -1.1125  0.8175  1.0798
 1874TIP3    H227258   0.931   2.690   1.091  0.0088  2.9426 -0.1501
 1875TIP3   OH227259   0.295   5.808   0.688 -0.6623 -0.2026  0.1056
 1875TIP3    H127260   0.236   5.879   0.663 -1.6048 -1.0896 -0.2890
 1875TIP3    H227261   0.303   5.755   0.609 -0.1456 -0.6514  0.4537
 1876TIP3   OH227262   6.383   0.253   1.562 -0.0075 -0.4485  0.0387
 1876TIP3    H127263   6.372   0.280   1.653  0.8523 -1.5205  0.4862
 1876TIP3    H227264   6.478   0.259   1.547 -0.1286 -0.4037 -0.7561
 1877TIP3   OH227265   5.191   3.485   7.968  0.2913 -0.0137 -0.4374
 1877TIP3    H127266   5.190   3.390   7.982 -1.7270  0.1627  0.9743
 1877TIP3    H227267   5.257   3.498   7.900  0.4741 -2.4404 -0.8151
 1878TIP3   OH227268   0.659   1.539   7.906 -1.2254  0.2846 -0.0993
 1878TIP3    H127269   0.652   1.615   7.850  3.2814  1.0825  0.0998
 1878TIP3    H227270   0.690   1.573   7.990 -1.1980 -1.5498  0.6932
 1879TIP3   OH227271   4.230   0.992   1.906 -0.3437  0.4288 -0.1613
 1879TIP3    H127272   4.148   1.041   1.916 -1.0834 -1.0089  1.1539
 1879TIP3    H227273   4.285   1.023   1.978 -0.7492 -0.5041  0.5695
 1880TIP3   OH227274   3.710   1.402   7.417  0.4123 -0.1756 -0.4765
 1880TIP3    H127275   3.652   1.417   7.343 -1.6722  0.0162  1.1060
 1880TIP3    H227276   3.738   1.489   7.444 -0.5532 -0.0743  0.2403
 1881TIP3   OH227277   6.049   4.096   1.054 -0.1702  0.3122 -0.1744
 1881TIP3    H127278   6.116   4.046   1.101 -0.2102  0.8963  0.5260
 1881TIP3    H227279   6.058   4.068   0.963  2.3004  1.6872 -0.4564
 1882TIP3   OH227280   1.385   3.999   1.961 -0.6165 -0.2500  0.0006
 1882TIP3    H127281   1.324   4.073   1.956 -1.0190 -0.5819 -0.0677
 1882TIP3    H227282   1.460   4.033   2.010 -0.5727  0.3573 -0.4688
 1883TIP3   OH227283   1.935   1.619   8.668 -0.5761 -0.4850 -0.1191
 1883TIP3    H127284   1.894   1.533   8.669  0.4896 -1.0241 -0.7699
 1883TIP3    H227285   1.877   1.673   8.615  1.0228 -2.0518 -3.7924
 1884TIP3   OH227286   3.807   1.602   0.229  0.2716  0.0524  0.0397
 1884TIP3    H127287   3.758   1.600   0.311  1.2524 -1.0158  0.6255
 1884TIP3    H227288   3.790   1.689   0.193 -0.8623  0.2262  0.9304
 1885TIP3   OH227289   5.338   4.223   1.171 -0.2222 -0.1388  0.4020
 1885TIP3    H127290   5.266   4.228   1.234  0.4924 -1.0907  1.3440
 1885TIP3    H227291   5.415   4.247   1.222  0.0433  1.7472 -0.8154
 1886TIP3   OH227292   6.597   5.818   8.836  0.0218 -0.0650  0.2197
 1886TIP3    H127293   6.514   5.777   8.859 -0.3407  0.0839 -0.7710
 1886TIP3    H227294   6.574   5.907   8.810  0.2347 -0.5362 -1.7416
 1887TIP3   OH227295   5.336   3.324   1.331  0.1267  0.3831  0.2093
 1887TIP3    H127296   5.288   3.242   1.348  0.0913  0.4396  0.3819
 1887TIP3    H227297   5.285   3.391   1.376 -0.5021  0.6868 -0.9077
 1888TIP3   OH227298   2.235   2.156   7.142 -0.7316  0.6009 -1.1953
 1888TIP3    H127299   2.233   2.178   7.235 -0.9578 -0.5466 -0.9156
 1888TIP3    H227300   2.328   2.152   7.120 -0.6199 -0.8808 -0.5646
 1889TIP3   OH227301   2.547   0.910   6.951  0.1390  1.0921  0.0855
 1889TIP3    H127302   2.601   0.857   6.893  1.7329 -0.4293  2.7567
 1889TIP3    H227303   2.473   0.854   6.973 -1.2436  2.1965 -1.4749
 1890TIP3   OH227304   5.024   3.477   6.852  0.6706  0.0014 -0.0188
 1890TIP3    H127305   5.069   3.409   6.901  2.8017  0.3239 -1.3976
 1890TIP3    H227306   5.009   3.439   6.766  0.1945  0.6321 -0.2258
 1891TIP3   OH227307   0.375   6.219   7.569 -0.3138 -0.0936  0.0102
 1891TIP3    H127308   0.363   6.313   7.581  0.2064  0.3396 -2.3446
 1891TIP3    H227309   0.293   6.189   7.531 -0.2963 -0.4979  0.2878
 1892TIP3   OH227310   4.573   4.608   1.097  0.4532  0.1521  0.0118
 1892TIP3    H127311   4.527   4.604   1.180  1.0885  1.5887  0.4731
 1892TIP3    H227312   4.665   4.619   1.121  0.8207 -0.8259 -0.8882
 1893TIP3   OH227313   6.490   6.607   8.347 -0.0744 -0.1838 -0.2555
 1893TIP3    H127314   6.574   6.562   8.357  0.0458 -0.2997 -1.5284
 1893TIP3    H227315   6.432   6.564   8.410  0.1855 -1.7915 -1.0447
 1894TIP3   OH227316   2.057   5.499   8.671 -0.2467 -0.4452 -0.0876
 1894TIP3    H127317   2.046   5.406   8.689  0.1253 -0.9209 -2.1212
 1894TIP3    H227318   1.968   5.531   8.656 -0.3954 -0.3837  0.8123
 1895TIP3   OH227319   5.106   4.495   7.060 -0.3725  0.9525 -0.3645
 1895TIP3    H127320   5.087   4.479   7.153 -0.6475  1.1634 -0.3850
 1895TIP3    H227321   5.147   4.582   7.060  2.0741 -0.1084 -0.1205
 1896TIP3   OH227322   0.462   0.290   2.030 -0.2137  0.0831  0.2454
 1896TIP3    H127323   0.543   0.289   2.080 -1.7479  0.8847  2.9964
 1896TIP3    H227324   0.394   0.266   2.094 -2.0517 -1.7349 -2.1926
 1897TIP3   OH227325   3.193   6.385   6.613 -0.4204 -0.3859 -0.4538
 1897TIP3    H127326   3.128   6.335   6.564  0.0359 -1.3982 -0.0730
 1897TIP3    H227327   3.207   6.334   6.693 -1.2068  1.2674  0.7878
 1898TIP3   OH227328   5.549   2.744   0.691 -0.2023  0.0995  0.7659
 1898TIP3    H127329   5.620   2.779   0.638 -0.4408 -0.7375 -0.1240
 1898TIP3    H227330   5.485   2.815   0.694 -2.2532 -1.1310 -3.8905
 1899TIP3   OH227331   2.972   1.199   8.478 -0.0315 -0.1219 -0.2901
 1899TIP3    H127332   3.031   1.218   8.551 -1.7813 -0.7319  1.3625
 1899TIP3    H227333   2.937   1.284   8.452 -0.4652 -0.0481  0.5305
 1900TIP3   OH227334   3.794   3.108   6.615  0.3231  0.1519  0.2653
 1900TIP3    H127335   3.742   3.105   6.535  0.4742  3.1372 -0.0654
 1900TIP3    H227336   3.881   3.078   6.589  0.5505  1.7176 -0.9291
 1901TIP3   OH227337   1.136   0.829   7.236 -0.4739 -0.3872  0.1543
 1901TIP3    H127338   1.041   0.813   7.233 -0.1644 -2.4848 -0.3118
 1901TIP3    H227339   1.152   0.859   7.325 -1.8317  2.2861 -0.4059
 1902TIP3   OH227340   3.959   0.147   2.174  0.5689  0.0504 -0.1067
 1902TIP3    H127341   3.925   0.139   2.085  0.5678 -1.1326 -0.0155
 1902TIP3    H227342   3.882   0.166   2.227  0.4287 -0.1690 -0.2307
 1903TIP3   OH227343   0.567   2.360   1.519 -0.4870 -0.2506 -1.0866
 1903TIP3    H127344   0.522   2.420   1.580  0.8123 -1.1727  0.8980
 1903TIP3    H227345   0.505   2.347   1.448 -2.6660 -0.1219  0.6712
 1904TIP3   OH227346   1.918   0.961   0.780  0.2014  0.6873  0.1415
 1904TIP3    H127347   1.942   0.999   0.865  1.5671  2.1765 -0.8479
 1904TIP3    H227348   2.001   0.955   0.732 -0.4673 -0.5627 -0.9465
 1905TIP3   OH227349   1.578   6.205   6.654 -0.2244 -0.0028  0.6335
 1905TIP3    H127350   1.512   6.137   6.638 -1.5677  1.4158 -0.1277
 1905TIP3    H227351   1.566   6.230   6.745  0.7766 -1.2403  1.1444
 1906TIP3   OH227352   3.124   4.287   0.485 -0.0581  0.1950  0.7319
 1906TIP3    H127353   3.141   4.377   0.514 -2.8341  0.4771  1.8298
 1906TIP3    H227354   3.064   4.252   0.551 -0.5169 -1.8323 -0.6817
 1907TIP3   OH227355   6.277   0.439   8.157  0.2100 -0.2710  0.1991
 1907TIP3    H127356   6.347   0.381   8.183  0.0556 -1.1783 -1.2823
 1907TIP3    H227357   6.205   0.381   8.131 -0.5284  0.6037  0.2197
 1908TIP3   OH227358   2.986   3.663   6.956  0.3998  0.3095  0.3183
 1908TIP3    H127359   2.980   3.572   6.986 -0.2526  0.3698  0.3760
 1908TIP3    H227360   2.931   3.712   7.017  1.1269  0.8211  0.5798
 1909TIP3   OH227361   3.765   0.965   0.486 -0.1531 -0.1333 -0.2728
 1909TIP3    H127362   3.766   1.009   0.402  0.5746  1.0313  0.3173
 1909TIP3    H227363   3.711   0.887   0.472  0.3959 -0.2440 -1.9328
 1910TIP3   OH227364   2.936   3.472   7.592 -0.0680 -0.0460 -0.3395
 1910TIP3    H127365   3.020   3.429   7.574 -0.7162 -0.8849 -1.5010
 1910TIP3    H227366   2.934   3.482   7.688  1.0212 -0.6921 -0.2335
 1911TIP3   OH227367   1.249   4.440   2.758  0.1798 -0.0541  0.3885
 1911TIP3    H127368   1.296   4.357   2.760  0.7713  0.2834  1.3700
 1911TIP3    H227369   1.159   4.417   2.780  0.2650 -0.4786  0.3001
 1912TIP3   OH227370   2.812   3.897   8.017  0.2754 -0.2828 -0.3220
 1912TIP3    H127371   2.871   3.824   7.996  0.7541 -0.2923  0.9527
 1912TIP3    H227372   2.754   3.904   7.941  1.8512 -0.3373 -1.5676
 1913TIP3   OH227373   0.348   3.370   0.310  0.1336  0.3841  0.0465
 1913TIP3    H127374   0.441   3.388   0.319  0.4245 -1.0997  0.2203
 1913TIP3    H227375   0.344   3.288   0.262 -1.1032  0.6009 -0.2550
 1914TIP3   OH227376   3.312   0.295   0.040 -0.2388  0.5476 -0.4589
 1914TIP3    H127377   3.364   0.268  -0.036  2.9176  1.5420  1.1964
 1914TIP3    H227378   3.331   0.388   0.050 -1.4516  0.6763  0.9329
 1915TIP3   OH227379   0.395   0.310   0.260 -0.0381 -0.0663  0.1119
 1915TIP3    H127380   0.349   0.369   0.200 -0.0230  1.0220  1.1343
 1915TIP3    H227381   0.349   0.321   0.344  0.3581 -1.0571  0.4749
 1916TIP3   OH227382   5.032   4.580   0.789 -0.5535  0.6744  0.3753
 1916TIP3    H127383   4.940   4.593   0.763 -0.3836  2.4383  0.5466
 1916TIP3    H227384   5.069   4.668   0.790  1.3470 -0.0722 -0.3650
 1917TIP3   OH227385   4.779   3.544   2.532 -0.9091  0.6240  0.0082
 1917TIP3    H127386   4.723   3.530   2.455  0.2418  0.8399 -0.8852
 1917TIP3    H227387   4.807   3.456   2.556 -1.1434  0.5694  0.0874
 1918TIP3   OH227388   5.108   2.934   7.934  0.1792  0.0288 -0.2612
 1918TIP3    H127389   5.151   2.859   7.973 -0.5230 -0.8586 -1.1241
 1918TIP3    H227390   5.139   2.935   7.843  0.2377  0.8250 -0.2378
 1919TIP3   OH227391   6.083   6.519   1.730 -0.4308 -0.1935 -0.4623
 1919TIP3    H127392   6.113   6.599   1.688 -1.8169 -0.0979 -1.3075
 1919TIP3    H227393   6.116   6.525   1.820  0.0989  0.9649 -0.7236
 1920TIP3   OH227394   1.214   5.696   8.733 -0.4335  0.4909  0.2464
 1920TIP3    H127395   1.217   5.789   8.758 -0.5387  0.2989  0.9914
 1920TIP3    H227396   1.128   5.666   8.764 -1.4174  0.7091 -2.0673
 1921TIP3   OH227397   5.822   5.724   0.919 -0.3082 -0.0146  0.3663
 1921TIP3    H127398   5.871   5.693   0.843 -2.1502 -0.2601 -0.7654
 1921TIP3    H227399   5.837   5.656   0.985 -0.1863 -0.7510 -0.3986
 1922TIP3   OH227400   4.132   3.435   0.061 -0.5341  0.2551  0.2600
 1922TIP3    H127401   4.132   3.483   0.144  1.9684 -0.5455  0.8177
 1922TIP3    H227402   4.117   3.502  -0.005 -2.6708  0.9012  1.3078
 1923TIP3   OH227403   1.935   5.777   6.727 -0.3362  0.3202  0.2531
 1923TIP3    H127404   1.933   5.867   6.695 -0.4462  1.2326  2.6006
 1923TIP3    H227405   2.017   5.741   6.692 -0.5709  1.1052 -1.1840
 1924TIP3   OH227406   5.822   0.786   8.437  0.1135 -0.3044  0.1075
 1924TIP3    H127407   5.764   0.728   8.388  0.0294  0.3690 -0.6120
 1924TIP3    H227408   5.897   0.799   8.379  1.0427 -1.2433  1.0626
 1925TIP3   OH227409   5.838   0.381   0.149 -0.1533  0.2896 -0.2592
 1925TIP3    H127410   5.907   0.434   0.189 -1.9157  2.0934  0.5420
 1925TIP3    H227411   5.885   0.324   0.087  1.8913  2.7942 -1.2176
 1926TIP3   OH227412   4.642   0.910   0.666  0.2078  0.1005 -0.1097
 1926TIP3    H127413   4.629   0.822   0.631  0.5090  0.4291 -1.0656
 1926TIP3    H227414   4.611   0.904   0.757 -0.7856 -0.7061 -0.4810
 1927TIP3   OH227415   2.598   4.444   6.348 -0.0605 -0.6144  1.0043
 1927TIP3    H127416   2.520   4.420   6.298 -0.4227  1.2217  0.6112
 1927TIP3    H227417   2.624   4.363   6.392 -2.2806 -1.2354  1.2918
 1928TIP3   OH227418   0.555   5.609   2.124 -0.2033 -0.1275 -0.1918
 1928TIP3    H127419   0.618   5.667   2.166  0.1157 -0.6110 -0.0054
 1928TIP3    H227420   0.605   5.561   2.058 -0.5818  0.2036 -0.7415
 1929TIP3   OH227421   0.490   1.465   8.642 -0.3568 -0.2941  0.0197
 1929TIP3    H127422   0.520   1.467   8.733  2.0359  0.5533 -0.7165
 1929TIP3    H227423   0.543   1.397   8.601 -2.4711 -1.7252 -0.4536
 1930TIP3   OH227424   3.185   0.750   8.377  0.2402  0.4348 -0.3189
 1930TIP3    H127425   3.244   0.697   8.323 -0.9494  0.4688 -1.7081
 1930TIP3    H227426   3.230   0.834   8.385  0.1351  0.6710 -1.8930
 1931TIP3   OH227427   5.854   0.704   2.161 -0.4817  0.3263  0.6703
 1931TIP3    H127428   5.937   0.749   2.146 -0.2934 -0.2417 -0.0348
 1931TIP3    H227429   5.876   0.611   2.157 -1.4141  0.1362 -1.2689
 1932TIP3   OH227430   6.107   4.989   7.053 -0.0886 -0.1803  0.3542
 1932TIP3    H127431   6.119   4.895   7.049 -1.6248 -0.3626 -1.6011
 1932TIP3    H227432   6.099   5.008   7.147  1.6805 -1.7318  0.8823
 1933TIP3   OH227433   5.348   4.654   2.328 -0.3086  0.7395  1.1308
 1933TIP3    H127434   5.421   4.648   2.390 -0.4170 -1.8803  1.0840
 1933TIP3    H227435   5.270   4.637   2.381 -0.4089 -1.3942  0.3776
 1934TIP3   OH227436   3.188   5.442   8.907 -0.5905  0.4031  0.0408
 1934TIP3    H127437   3.147   5.485   8.832  1.1620  3.4743  0.6619
 1934TIP3    H227438   3.162   5.495   8.983  0.1808 -0.7581  1.1706
 1935TIP3   OH227439   3.979   5.764   0.198  0.5155  0.2192 -0.2988
 1935TIP3    H127440   4.022   5.720   0.124  1.6304  0.6857  0.0548
 1935TIP3    H227441   3.959   5.852   0.165 -1.7728 -0.5062 -1.0281
 1936TIP3   OH227442   4.463   5.941   6.491 -0.1789 -0.4722  0.2191
 1936TIP3    H127443   4.515   5.879   6.439 -1.1782 -1.3750  0.2591
 1936TIP3    H227444   4.388   5.890   6.520 -0.8633  0.6852  0.5285
 1937TIP3   OH227445   4.922   1.149   0.973  0.4534  0.1223 -0.1760
 1937TIP3    H127446   4.933   1.076   1.034 -0.1143  0.0142 -0.1945
 1937TIP3    H227447   4.891   1.107   0.892  1.6201  0.2111 -0.6844
 1938TIP3   OH227448   1.558   1.612   1.686  0.0447  0.6283  0.0885
 1938TIP3    H127449   1.611   1.600   1.764  0.4792  3.4108  0.2995
 1938TIP3    H227450   1.584   1.539   1.629  0.7370 -0.6552  1.9335
 1939TIP3   OH227451   0.738   3.047   1.437  0.0860 -0.7511 -0.3626
 1939TIP3    H127452   0.767   3.058   1.528  1.7775 -0.1952 -0.9386
 1939TIP3    H227453   0.816   3.015   1.391 -0.9605 -1.7847 -1.4854
 1940TIP3   OH227454   5.763   1.777   1.479  0.0459  0.0836  0.6407
 1940TIP3    H127455   5.745   1.684   1.491 -0.7577  0.4075  2.1293
 1940TIP3    H227456   5.694   1.807   1.419 -0.0249 -0.1572  0.6010
 1941TIP3   OH227457   2.453   4.828   1.290 -0.2948 -0.1829  0.4226
 1941TIP3    H127458   2.503   4.908   1.277  0.3297 -0.2148  2.3730
 1941TIP3    H227459   2.518   4.761   1.313 -0.8800 -1.0854 -0.4616
 1942TIP3   OH227460   5.557   4.718   0.002 -0.0032  0.3684  0.2406
 1942TIP3    H127461   5.642   4.761   0.005  0.7376 -1.0070 -0.0586
 1942TIP3    H227462   5.516   4.749  -0.079  0.1169  1.1649  0.4725
 1943TIP3   OH227463   2.187   6.754   1.061 -0.2214  0.1131 -0.1192
 1943TIP3    H127464   2.207   6.804   1.140 -2.0993  1.0115 -0.1642
 1943TIP3    H227465   2.092   6.751   1.058 -0.1783 -0.4077 -2.0459
 1944TIP3   OH227466   2.526   3.924   1.998 -0.1335  0.7570 -0.2938
 1944TIP3    H127467   2.546   3.938   2.091 -0.7477 -0.0066 -0.0345
 1944TIP3    H227468   2.443   3.876   1.999  1.4508 -2.2800 -1.1000
 1945TIP3   OH227469   1.205   3.806   1.986 -0.4179  0.0625  0.0698
 1945TIP3    H127470   1.270   3.876   1.983  0.1304 -0.3353  1.8008
 1945TIP3    H227471   1.242   3.736   1.933 -0.0672  0.3476 -0.0661
 1946TIP3   OH227472   6.547   3.564   8.153  0.0009  0.2226 -0.2576
 1946TIP3    H127473   6.613   3.500   8.177  0.4031  1.0365  0.9006
 1946TIP3    H227474   6.475   3.512   8.117  1.0799 -0.7075 -1.1428
 1947TIP3   OH227475   4.282   3.424   7.418  0.3961  0.8973 -0.2808
 1947TIP3    H127476   4.241   3.510   7.420 -0.3057  0.5719 -0.1165
 1947TIP3    H227477   4.245   3.378   7.493  0.0231  0.1368 -0.9102
 1948TIP3   OH227478   3.543   0.260   6.719 -0.2551 -0.0132 -0.3627
 1948TIP3    H127479   3.519   0.172   6.750  0.8173  0.5984  2.5126
 1948TIP3    H227480   3.465   0.313   6.735  0.0263  0.1228  0.6621
 1949TIP3   OH227481   0.745   4.006   1.060  0.2037 -0.0264 -0.5612
 1949TIP3    H127482   0.655   3.993   1.032  0.8141 -3.6752 -1.2217
 1949TIP3    H227483   0.739   4.013   1.156 -0.8407  1.0782 -0.6808
 1950TIP3   OH227484   4.069   2.230   0.201 -0.3110 -0.1728  0.2001
 1950TIP3    H127485   4.084   2.218   0.107 -2.4604  1.1269 -0.3722
 1950TIP3    H227486   4.114   2.156   0.242  1.5486 -0.2153 -1.7514
 1951TIP3   OH227487   4.194   2.643   6.400  0.2362  0.5610 -0.1651
 1951TIP3    H127488   4.162   2.724   6.440  0.6695  0.9699 -0.6336
 1951TIP3    H227489   4.267   2.671   6.344 -0.5233  0.0480 -1.4541
 1952TIP3   OH227490   1.600   2.037   1.601  0.4743  0.2828  0.4021
 1952TIP3    H127491   1.526   2.076   1.555  2.5742  1.3950 -2.3240
 1952TIP3    H227492   1.627   1.963   1.547  0.9645 -0.5427  1.7153
 1953TIP3   OH227493   5.297   5.666   0.748 -0.0596  0.3276  0.3616
 1953TIP3    H127494   5.386   5.642   0.773 -0.9224 -0.5065  3.0495
 1953TIP3    H227495   5.262   5.711   0.825 -1.6372  1.5985 -1.0206
 1954TIP3   OH227496   4.867   2.320   8.946  0.0342  0.4084 -0.7510
 1954TIP3    H127497   4.838   2.306   9.036  1.9144 -2.6485 -0.4656
 1954TIP3    H227498   4.950   2.367   8.955  0.7826 -0.8654 -0.7493
 1955TIP3   OH227499   2.683   2.719   7.981  0.8604  0.4983  0.1501
 1955TIP3    H127500   2.705   2.698   7.891 -2.0731  1.1561 -0.8308
 1955TIP3    H227501   2.615   2.656   8.005 -0.1471  1.8315  0.9984
 1956TIP3   OH227502   4.794   4.838   7.937 -0.6801  0.5479 -0.0958
 1956TIP3    H127503   4.736   4.763   7.954  0.0103  0.4415  2.0571
 1956TIP3    H227504   4.880   4.798   7.925 -0.6485  0.8780 -1.0361
 1957TIP3   OH227505   5.759   1.692   8.537 -0.0120 -0.2642 -0.3417
 1957TIP3    H127506   5.795   1.703   8.626 -2.7512  0.2764  0.7951
 1957TIP3    H227507   5.784   1.603   8.513  0.2899 -0.6495  1.2313
 1958TIP3   OH227508   4.548   5.416   1.690 -0.2676 -0.4998 -0.0943
 1958TIP3    H127509   4.492   5.450   1.760 -1.1571 -1.2543 -0.4254
 1958TIP3    H227510   4.489   5.400   1.617  0.4965 -0.6600 -0.6903
 1959TIP3   OH227511   4.654   2.553   2.139  0.4573  0.0172  0.1886
 1959TIP3    H127512   4.582   2.511   2.091 -0.0313 -0.5307  1.3504
 1959TIP3    H227513   4.713   2.481   2.161  0.7686  0.2918  0.2474
 1960TIP3   OH227514   4.010   1.335   0.279  0.3638  0.0605 -0.0689
 1960TIP3    H127515   4.011   1.387   0.360  1.2947 -0.2044  0.1136
 1960TIP3    H227516   4.041   1.395   0.212 -2.5345  0.9516 -0.7185
 1961TIP3   OH227517   2.654   5.218   7.224 -0.2589 -0.5251  0.0411
 1961TIP3    H127518   2.681   5.195   7.313 -0.9552 -0.5630  0.2440
 1961TIP3    H227519   2.572   5.172   7.210  0.1321 -1.0007 -0.8467
 1962TIP3   OH227520   3.360   3.596   7.717 -0.1095 -0.0951  0.4013
 1962TIP3    H127521   3.444   3.551   7.712  0.0041 -0.0199  1.4282
 1962TIP3    H227522   3.375   3.669   7.778 -0.6654  0.5016 -0.1531
 1963TIP3   OH227523   0.133   6.677   2.504  0.3384 -0.5789  0.1972
 1963TIP3    H127524   0.205   6.624   2.537 -0.0962 -0.3064  1.6857
 1963TIP3    H227525   0.068   6.675   2.575 -0.2895  0.7604 -0.3108
 1964TIP3   OH227526   3.042   2.118   8.004 -0.3851 -0.0510  0.3519
 1964TIP3    H127527   3.008   2.188   8.060 -2.3194 -0.0009 -0.7989
 1964TIP3    H227528   3.084   2.164   7.932 -0.7372 -0.0600  0.1351
 1965TIP3   OH227529   1.760   1.198   0.774  0.0471 -0.2546 -0.4370
 1965TIP3    H127530   1.673   1.162   0.788  0.6983 -0.6777  3.5487
 1965TIP3    H227531   1.819   1.123   0.784  1.0118  0.6013  0.5855
 1966TIP3   OH227532   4.837   0.585   8.876 -0.3102  0.2238  0.4085
 1966TIP3    H127533   4.754   0.582   8.828  0.1778 -0.2024 -0.4237
 1966TIP3    H227534   4.874   0.670   8.854  0.4262 -0.4019 -0.8789
 1967TIP3   OH227535   5.315   3.808   7.427 -0.1901 -0.5926  0.0112
 1967TIP3    H127536   5.224   3.823   7.452 -0.4795  0.2530 -1.4299
 1967TIP3    H227537   5.363   3.809   7.509 -1.3668 -0.1939  0.7175
 1968TIP3   OH227538   0.521   5.404   0.090 -0.5132  0.9566  0.0339
 1968TIP3    H127539   0.583   5.331   0.086  0.0858  1.4678 -0.0464
 1968TIP3    H227540   0.444   5.367   0.134 -0.2073  0.2802  0.0108
 1969TIP3   OH227541   6.019   5.644   2.837  0.4039  0.3206 -0.3594
 1969TIP3    H127542   5.947   5.605   2.787 -0.7410  0.0792  1.3923
 1969TIP3    H227543   6.083   5.670   2.771 -1.6215  1.2690 -2.0437
 1970TIP3   OH227544   1.805   3.908   0.631 -0.1169  0.4008  0.1512
 1970TIP3    H127545   1.719   3.949   0.642 -0.7291  0.1225 -2.7629
 1970TIP3    H227546   1.829   3.928   0.541  1.7788 -1.6039  0.1390
 1971TIP3   OH227547   3.877   5.076   7.855  0.6485  0.3327  0.2306
 1971TIP3    H127548   3.946   5.073   7.921  0.2639  1.6728  0.7197
 1971TIP3    H227549   3.898   5.003   7.796  2.4854  0.7037  0.3505
 1972TIP3   OH227550   6.143   0.184   1.420 -0.2385 -0.1419  0.1555
 1972TIP3    H127551   6.216   0.185   1.482 -1.2776 -0.4536  1.4202
 1972TIP3    H227552   6.185   0.193   1.334  1.1579  2.1874  0.9598
 1973TIP3   OH227553   4.092   1.350   2.192 -0.6172  0.5728  0.9747
 1973TIP3    H127554   4.070   1.345   2.285 -0.0307 -0.8103  1.0530
 1973TIP3    H227555   4.155   1.422   2.187 -0.0780  0.1774  1.7700
 1974TIP3   OH227556   2.505   6.591   8.637 -0.1019 -0.6515  0.1856
 1974TIP3    H127557   2.479   6.503   8.610  0.8020 -0.8731  0.0076
 1974TIP3    H227558   2.599   6.595   8.620  0.0363  0.0397  1.0499
 1975TIP3   OH227559   4.877   0.717   7.664  0.1075  1.0478  0.2396
 1975TIP3    H127560   4.947   0.658   7.693  0.1599  1.7515  1.6544
 1975TIP3    H227561   4.818   0.722   7.740 -1.3954  0.6191 -0.8505
 1976TIP3   OH227562   0.770   6.029   8.261 -0.0111  0.0771  0.0564
 1976TIP3    H127563   0.765   6.114   8.218  0.0629  0.1506  0.1916
 1976TIP3    H227564   0.681   6.014   8.294  0.0610  0.2664  0.3421
 1977TIP3   OH227565   1.871   1.363   1.412  0.2672  0.4941 -0.2791
 1977TIP3    H127566   1.790   1.412   1.400  0.4689  1.6328  2.3573
 1977TIP3    H227567   1.844   1.280   1.451  0.3936  1.2710  1.5262
 1978TIP3   OH227568   2.975   5.417   7.712  0.0941  0.4020  0.2613
 1978TIP3    H127569   2.993   5.440   7.803 -0.5946  1.5208  0.1359
 1978TIP3    H227570   3.057   5.380   7.680  0.7788  1.2630  0.9470
 1979TIP3   OH227571   0.998   4.787   2.698 -0.0813  0.0145  0.2694
 1979TIP3    H127572   1.074   4.817   2.749  0.9367 -0.3013 -0.9864
 1979TIP3    H227573   0.926   4.841   2.728  0.8856  1.0977  0.7358
 1980TIP3   OH227574   2.829   3.567   7.226  0.1406  0.1674  0.0717
 1980TIP3    H127575   2.863   3.481   7.250 -0.4733  0.1398  0.8650
 1980TIP3    H227576   2.905   3.626   7.234  0.2352 -0.0523  0.9394
 1981TIP3   OH227577   1.696   3.404   8.570 -0.0578 -0.3759  0.1947
 1981TIP3    H127578   1.773   3.394   8.627  0.2636  2.8921  0.5614
 1981TIP3    H227579   1.733   3.413   8.482 -0.2079 -1.0295  0.0633
 1982TIP3   OH227580   2.252   1.418   8.882  0.3885 -0.6285  0.0168
 1982TIP3    H127581   2.288   1.402   8.969 -1.2391 -3.0390  0.3692
 1982TIP3    H227582   2.176   1.475   8.898 -0.5053 -1.8746  0.3685
 1983TIP3   OH227583   6.213   5.763   1.019 -0.3211 -0.1379 -0.5380
 1983TIP3    H127584   6.265   5.751   1.099 -0.9853 -0.3569 -0.1378
 1983TIP3    H227585   6.278   5.756   0.948  0.4470  1.0897  0.0019
 1984TIP3   OH227586   6.459   1.955   0.284  0.2241 -0.3277  0.3671
 1984TIP3    H127587   6.465   2.016   0.211  0.7222 -0.0313  0.6500
 1984TIP3    H227588   6.443   1.870   0.244  0.2875 -0.1308 -0.0735
 1985TIP3   OH227589   3.011   5.241   1.710 -0.0456  0.8515  0.2825
 1985TIP3    H127590   3.000   5.168   1.770  0.4137 -0.2696 -0.9626
 1985TIP3    H227591   2.977   5.317   1.758  0.4371  0.0262  1.9909
 1986TIP3   OH227592   1.562   0.618   7.767 -0.0923  0.0095 -0.4789
 1986TIP3    H127593   1.575   0.656   7.854  1.1838 -0.8461 -0.2663
 1986TIP3    H227594   1.640   0.563   7.753 -0.6730 -0.5153 -1.8157
 1987TIP3   OH227595   1.089   6.578   8.467 -0.1664 -0.1239 -0.2224
 1987TIP3    H127596   1.095   6.663   8.424 -0.6499  0.1865  0.3267
 1987TIP3    H227597   1.180   6.549   8.475 -0.0266  0.1587 -0.7650
 1988TIP3   OH227598   5.675   4.337   7.441 -0.4078  0.1879 -0.0437
 1988TIP3    H127599   5.708   4.390   7.369  1.6611  1.4796  1.7077
 1988TIP3    H227600   5.614   4.394   7.488  0.7389  0.5637  1.0372
 1989TIP3   OH227601   2.451   4.762   0.790  0.2806 -0.1865  0.0586
 1989TIP3    H127602   2.417   4.675   0.807  0.7098 -0.3688 -0.0013
 1989TIP3    H227603   2.515   4.750   0.720  0.5960  0.1216  0.2885
 1990TIP3   OH227604   1.111   0.510   8.207 -1.0301 -0.3945 -0.1764
 1990TIP3    H127605   1.143   0.510   8.297  1.0674 -0.2423 -0.8492
 1990TIP3    H227606   1.163   0.578   8.164 -3.5385  1.1056 -1.0333
 1991TIP3   OH227607   6.127   5.812   1.490  0.2356 -0.0365  0.2898
 1991TIP3    H127608   6.205   5.865   1.499  0.9426 -0.8822 -0.6502
 1991TIP3    H227609   6.054   5.874   1.496  1.0012  0.8547  0.4405
 1992TIP3   OH227610   3.474   6.602   8.835  0.4927 -0.7775  0.1856
 1992TIP3    H127611   3.432   6.643   8.759 -0.4762  1.0048  1.6115
 1992TIP3    H227612   3.549   6.555   8.798 -0.1957 -0.3258 -1.9106
 1993TIP3   OH227613   0.284   2.649   2.337 -0.8149  0.3288 -0.5197
 1993TIP3    H127614   0.249   2.738   2.331 -0.5410  0.3936 -1.4063
 1993TIP3    H227615   0.346   2.652   2.410  1.1907  1.6135 -2.1385
 1994TIP3   OH227616   4.573   1.733   1.255 -0.2352  0.0020  0.5409
 1994TIP3    H127617   4.644   1.694   1.305 -0.6185 -2.4752 -0.6743
 1994TIP3    H227618   4.617   1.793   1.193  0.7829 -1.2048  0.0585
 1995TIP3   OH227619   5.317   6.747   7.467 -0.2799  0.0624 -0.1857
 1995TIP3    H127620   5.325   6.716   7.376 -0.4827  0.2839 -0.2808
 1995TIP3    H227621   5.264   6.680   7.510  1.4570 -1.0628  0.2755
 1996TIP3   OH227622   4.446   5.343   6.453  0.0430 -0.6227  0.6969
 1996TIP3    H127623   4.361   5.314   6.489 -0.5030 -0.4832 -0.4394
 1996TIP3    H227624   4.426   5.426   6.409  0.2034 -1.7798 -1.7300
 1997TIP3   OH227625   1.160   1.128   1.186 -0.1114  0.1308  0.6154
 1997TIP3    H127626   1.124   1.122   1.274 -0.5302 -0.3725  0.4151
 1997TIP3    H227627   1.103   1.191   1.141 -0.5478 -0.4262  0.3904
 1998TIP3   OH227628   1.628   5.329   6.926  0.0120  0.0081  0.2370
 1998TIP3    H127629   1.676   5.277   6.862 -1.5766 -0.2699 -0.7880
 1998TIP3    H227630   1.587   5.264   6.983 -3.5689 -0.1698 -2.1882
 1999TIP3   OH227631   4.425   5.701   1.908 -0.2813  0.1092  0.6424
 1999TIP3    H127632   4.512   5.663   1.912  0.0449  0.7155 -0.2749
 1999TIP3    H227633   4.379   5.650   1.841 -0.4540  0.1286  0.7453
 2000TIP3   OH227634   3.080   4.289   7.136 -0.0860 -0.0423 -0.0972
 2000TIP3    H127635   3.169   4.322   7.129  0.4868 -1.7732 -2.4554
 2000TIP3    H227636   3.027   4.349   7.084  0.4655 -1.1698 -2.0512
 2001TIP3   OH227637   6.254   5.141   8.611 -1.2214 -0.3448 -0.2811
 2001TIP3    H127638   6.324   5.081   8.637 -0.0296  1.1447  0.0081
 2001TIP3    H227639   6.268   5.155   8.518 -0.6127  0.6165 -0.0493
 2002TIP3   OH227640   3.499   5.314   0.877 -0.1096 -0.0019  0.2869
 2002TIP3    H127641   3.437   5.243   0.857  1.0605 -0.8655 -0.4193
 2002TIP3    H227642   3.464   5.354   0.956 -2.4044  0.5506 -0.9286
 2003TIP3   OH227643   3.747   2.672   7.432 -0.8290  0.2101 -0.1726
 2003TIP3    H127644   3.822   2.701   7.381 -1.2412  0.2990 -0.7332
 2003TIP3    H227645   3.785   2.641   7.514 -0.3067  1.7826  0.2339
 2004TIP3   OH227646   1.984   2.101   1.836  0.7460 -0.4440  0.1998
 2004TIP3    H127647   1.913   2.146   1.881  1.7669 -0.1145  1.5461
 2004TIP3    H227648   2.005   2.156   1.761 -0.5462 -0.6659 -0.3457
 2005TIP3   OH227649   4.256   0.440   0.451  0.7351  0.3329 -0.6357
 2005TIP3    H127650   4.281   0.462   0.361  1.9975  2.0001  0.0863
 2005TIP3    H227651   4.309   0.497   0.506 -0.2011 -0.4698  1.1878
 2006TIP3   OH227652   5.143   0.080   2.218 -0.4070  0.3326 -0.2217
 2006TIP3    H127653   5.063   0.031   2.238  0.2026 -1.0722 -1.1115
 2006TIP3    H227654   5.205   0.014   2.188  1.4222  1.2599  1.3142
 2007TIP3   OH227655   1.050   3.084   7.885  0.0342 -0.4777  0.2747
 2007TIP3    H127656   0.986   3.143   7.925  0.3641 -0.2728  0.5041
 2007TIP3    H227657   1.135   3.123   7.906  0.2637 -1.1734  0.6493
 2008TIP3   OH227658   0.790   2.011   1.089 -0.0604 -0.0050 -0.2573
 2008TIP3    H127659   0.848   1.940   1.114  1.3834  1.4073  0.5833
 2008TIP3    H227660   0.844   2.069   1.035 -1.0010  0.7980 -0.3792
 2009TIP3   OH227661   1.867   6.040   6.777  0.3757 -0.2425  0.0298
 2009TIP3    H127662   1.779   6.010   6.800  0.1178 -0.0418 -0.7015
 2009TIP3    H227663   1.865   6.134   6.793 -0.1891  0.1196 -1.9542
 2010TIP3   OH227664   3.150   5.306   7.339 -0.3347 -0.4896  0.6336
 2010TIP3    H127665   3.072   5.252   7.345 -0.1664 -0.7948  0.1287
 2010TIP3    H227666   3.152   5.336   7.248  0.8346 -1.5528  0.2831
 2011TIP3   OH227667   2.571   4.615   1.499 -0.0011 -0.4295  0.0258
 2011TIP3    H127668   2.522   4.662   1.567  0.6025 -0.1821  0.2997
 2011TIP3    H227669   2.577   4.525   1.532 -2.0056 -0.9699 -0.9565
 2012TIP3   OH227670   3.979   6.419   7.431 -0.2220 -0.3209 -0.8413
 2012TIP3    H127671   3.950   6.330   7.450 -0.5502 -0.4227 -1.7485
 2012TIP3    H227672   3.938   6.473   7.498  1.3073 -1.0375  0.7328
 2013TIP3   OH227673   0.859   3.231   8.662  0.1852 -0.3848  0.0880
 2013TIP3    H127674   0.937   3.188   8.626 -0.3177 -0.3320 -1.1262
 2013TIP3    H227675   0.802   3.242   8.586 -1.5064 -1.4712  1.1545
 2014TIP3   OH227676   3.257   6.088   1.382 -0.2803  0.1275  0.2256
 2014TIP3    H127677   3.335   6.073   1.437  0.0655  0.6810 -0.1051
 2014TIP3    H227678   3.195   6.131   1.440 -0.4818 -0.6260  0.5889
 2015TIP3   OH227679   2.400   2.561   8.756 -0.0166  0.1198  0.0274
 2015TIP3    H127680   2.443   2.645   8.737  1.8633 -0.6705  0.6306
 2015TIP3    H227681   2.367   2.532   8.671  1.1177  0.5092 -0.5720
 2016TIP3   OH227682   6.735   4.472   2.024  0.4112 -0.7784  0.4103
 2016TIP3    H127683   6.752   4.381   1.999 -0.1770 -0.7698 -0.0491
 2016TIP3    H227684   6.775   4.481   2.110 -0.5871 -1.8370  1.0216
 2017TIP3   OH227685   1.208   2.322   8.172 -0.1479 -0.3630  0.4115
 2017TIP3    H127686   1.297   2.288   8.172  0.6018  1.4847  0.8661
 2017TIP3    H227687   1.188   2.334   8.079  0.3989  0.0145  0.3405
 2018TIP3   OH227688   5.352   4.256   0.433 -0.1185 -0.1572 -0.3614
 2018TIP3    H127689   5.429   4.311   0.443 -0.1177  0.1020 -1.6339
 2018TIP3    H227690   5.279   4.311   0.461 -0.3631  1.2824 -3.3997
 2019TIP3   OH227691   1.388   2.126   7.463 -0.1036  0.1876 -0.4423
 2019TIP3    H127692   1.377   2.031   7.461 -0.5879  0.2289 -0.0665
 2019TIP3    H227693   1.306   2.159   7.500  0.0964  0.7468 -0.4781
 2020TIP3   OH227694   6.229   1.405   7.885 -0.2204 -0.7136 -0.0033
 2020TIP3    H127695   6.219   1.489   7.929 -0.9658  0.6161 -2.4924
 2020TIP3    H227696   6.272   1.349   7.949 -0.7391  1.2029  2.1471
 2021TIP3   OH227697   2.676   2.389   7.162 -0.2697  0.0750  0.2430
 2021TIP3    H127698   2.635   2.401   7.247  1.4895 -0.7907  1.2654
 2021TIP3    H227699   2.670   2.475   7.120 -0.8860  0.6021  1.3571
 2022TIP3   OH227700   4.029   0.664   1.796  0.4760 -0.0858 -0.0303
 2022TIP3    H127701   4.117   0.681   1.761 -0.3398  4.0106 -0.5785
 2022TIP3    H227702   3.971   0.681   1.722 -0.9025 -0.1826  1.0080
 2023TIP3   OH227703   4.318   2.888   7.133 -0.4264 -0.0676  0.5280
 2023TIP3    H127704   4.274   2.840   7.203 -0.4521 -0.4309  0.2675
 2023TIP3    H227705   4.408   2.855   7.135  0.2408  1.7105  2.0034
 2024TIP3   OH227706   4.479   1.564   6.750 -0.5349  0.1549  0.3997
 2024TIP3    H127707   4.405   1.574   6.810 -0.7888  3.6408 -0.2482
 2024TIP3    H227708   4.553   1.603   6.798  0.4773 -1.5189  0.2828
 2025TIP3   OH227709   2.364   1.877   8.475  0.6629 -0.9142  0.5884
 2025TIP3    H127710   2.294   1.836   8.527 -0.7802  1.8231  0.9903
 2025TIP3    H227711   2.444   1.859   8.525  0.1218 -3.0249  0.7972
 2026TIP3   OH227712   4.503   1.349   1.852  0.0382  0.5098 -0.4936
 2026TIP3    H127713   4.518   1.286   1.923  0.6906  2.0092  0.7611
 2026TIP3    H227714   4.578   1.339   1.795  1.4927  1.8465  1.0661
 2027TIP3   OH227715   3.423   5.577   8.175 -0.2156  0.3198  0.3010
 2027TIP3    H127716   3.341   5.576   8.127 -0.0121  0.5162 -0.0579
 2027TIP3    H227717   3.490   5.561   8.108 -0.0162 -0.6644  0.7138
 2028TIP3   OH227718   4.300   5.449   0.169 -0.4087  0.2922  0.6663
 2028TIP3    H127719   4.383   5.403   0.152 -1.1801 -0.0745 -3.1442
 2028TIP3    H227720   4.262   5.405   0.244  1.3460 -1.7333  0.4497
 2029TIP3   OH227721   1.666   6.568   8.082  0.6259  1.0316  0.6826
 2029TIP3    H127722   1.602   6.499   8.100  0.3858  1.5724  1.9757
 2029TIP3    H227723   1.718   6.533   8.010 -0.2387 -0.0025  0.5294
 2030TIP3   OH227724   4.147   1.893   1.314 -0.3437 -0.7432 -0.7785
 2030TIP3    H127725   4.068   1.944   1.296 -0.5732  0.5133  2.9311
 2030TIP3    H227726   4.218   1.956   1.302 -0.2834 -0.6916 -0.1831
 2031TIP3   OH227727   0.973   4.841   6.663  0.4627  0.0943  0.3721
 2031TIP3    H127728   1.059   4.879   6.680 -0.3207  1.5490  1.3014
 2031TIP3    H227729   0.944   4.807   6.748 -0.9688  2.0182  0.7133
 2032TIP3   OH227730   5.916   5.859   8.957  0.3371  0.3153 -0.9307
 2032TIP3    H127731   5.988   5.899   9.006 -0.7747  0.9931  0.2145
 2032TIP3    H227732   5.837   5.889   9.002 -0.6321 -1.3974 -1.4009
 2033TIP3   OH227733   0.427   2.799   0.566 -0.5829 -0.0984  0.3779
 2033TIP3    H127734   0.419   2.709   0.533  0.8792  0.4037 -1.4642
 2033TIP3    H227735   0.381   2.852   0.501 -1.1825  0.5526  1.3104
 2034TIP3   OH227736   6.469   5.775   1.668  0.3172 -0.0491  0.2357
 2034TIP3    H127737   6.406   5.828   1.621 -0.6896 -2.0777 -0.8319
 2034TIP3    H227738   6.541   5.834   1.687 -1.4298  2.0840  0.5764
 2035TIP3   OH227739   1.021   0.406   0.519 -0.2801  0.1131 -0.0749
 2035TIP3    H127740   0.950   0.468   0.499 -1.7061 -1.7767 -1.1706
 2035TIP3    H227741   1.002   0.329   0.465  2.1749 -0.7953  0.2355
 2036TIP3   OH227742   2.204   3.999   8.205 -0.2851  0.1258 -0.2977
 2036TIP3    H127743   2.154   3.969   8.129  1.1987  1.3378 -1.8537
 2036TIP3    H227744   2.284   4.036   8.167  1.1037 -0.3874  1.9761
 2037TIP3   OH227745   3.614   5.629   0.465 -0.0114  0.4705 -0.6929
 2037TIP3    H127746   3.557   5.586   0.528 -2.3745 -0.6485 -3.3346
 2037TIP3    H227747   3.677   5.562   0.439  2.1822  1.4711  1.6374
 2038TIP3   OH227748   1.459   2.365   7.699 -0.0921 -0.4083  0.4744
 2038TIP3    H127749   1.370   2.388   7.674 -0.7731 -1.4144  1.8349
 2038TIP3    H227750   1.466   2.272   7.680  0.4802 -0.4609  0.9098
 2039TIP3   OH227751   6.682   2.212   1.165  1.0406  0.5241 -0.5083
 2039TIP3    H127752   6.708   2.292   1.210  1.6646  0.3401 -0.5340
 2039TIP3    H227753   6.619   2.241   1.099 -0.2609  0.7434  0.7632
 2040TIP3   OH227754   1.369   4.695   2.825  0.6049  0.0845  0.7166
 2040TIP3    H127755   1.420   4.707   2.745 -0.0124  0.3052  0.3446
 2040TIP3    H227756   1.329   4.609   2.816 -0.0052  0.3888  0.4697
 2041TIP3   OH227757   4.914   4.405   8.506 -0.3594 -0.2202 -0.2562
 2041TIP3    H127758   4.835   4.453   8.532 -1.2413 -1.5163 -0.4056
 2041TIP3    H227759   4.985   4.450   8.550 -1.2922  0.4619  0.6063
 2042TIP3   OH227760   1.268   2.013   1.723  0.3674  0.0543 -0.2614
 2042TIP3    H127761   1.245   2.060   1.643  0.4861 -1.8002 -1.4437
 2042TIP3    H227762   1.349   2.055   1.753 -0.1036  1.2834 -0.6446
 2043TIP3   OH227763   4.999   1.727   0.120  0.2457 -0.4908 -0.2956
 2043TIP3    H127764   4.906   1.749   0.121  0.1013 -1.0431 -0.9027
 2043TIP3    H227765   5.037   1.777   0.193 -0.4673 -0.0265 -0.2409
 2044TIP3   OH227766   4.227   3.611   2.102  0.3235 -0.4284 -0.6265
 2044TIP3    H127767   4.214   3.651   2.016 -0.1189 -1.0596 -0.8676
 2044TIP3    H227768   4.148   3.558   2.115  0.0465  0.2249  0.4940
 2045TIP3   OH227769   0.964   3.321   0.413 -0.1695  0.2432  0.3602
 2045TIP3    H127770   0.898   3.251   0.409  1.8257 -1.6975 -0.2102
 2045TIP3    H227771   1.009   3.317   0.329 -2.0063  4.4463 -1.1120
 2046TIP3   OH227772   0.080   5.679   7.437 -0.3308  0.2796  0.4636
 2046TIP3    H127773   0.152   5.657   7.377 -0.4801  1.2886 -0.0970
 2046TIP3    H227774   0.001   5.658   7.387 -0.5173  2.9235 -0.4932
 2047TIP3   OH227775   3.128   1.085   2.580  0.0632  0.3378 -1.0778
 2047TIP3    H127776   3.120   1.164   2.526  1.4995 -0.6460 -2.8321
 2047TIP3    H227777   3.211   1.045   2.552  1.1598  0.0070  2.2393
 2048TIP3   OH227778   6.250   5.009   1.336 -0.1015  0.1590  0.1049
 2048TIP3    H127779   6.316   4.942   1.318  1.5460  2.3019 -2.6238
 2048TIP3    H227780   6.256   5.024   1.431  1.4250 -1.5540  0.3324
 2049TIP3   OH227781   1.272   3.995   8.701 -0.3785 -0.7618 -0.4052
 2049TIP3    H127782   1.318   4.069   8.662 -2.5121  0.1193 -1.3941
 2049TIP3    H227783   1.235   3.947   8.626 -0.0037 -2.1797  0.2789
 2050TIP3   OH227784   2.702   5.348   0.255  0.5895  0.0545 -0.0456
 2050TIP3    H127785   2.682   5.258   0.228  1.7531  0.2400 -1.6370
 2050TIP3    H227786   2.651   5.360   0.335 -2.2708 -0.9092 -1.5511
 2051TIP3   OH227787   0.760   4.296   8.688 -0.1675  0.3514  0.5253
 2051TIP3    H127788   0.769   4.385   8.721  0.5589  0.0710  1.1081
 2051TIP3    H227789   0.686   4.300   8.627  0.4763  1.5601 -0.2122
 2052TIP3   OH227790   4.233   4.456   0.863 -0.5990  0.5861  0.4034
 2052TIP3    H127791   4.141   4.457   0.837 -0.7988 -0.6960  0.9688
 2052TIP3    H227792   4.281   4.447   0.780 -1.1066 -0.9189  0.2403
 2053TIP3   OH227793   2.185   1.510   1.148 -0.5724  0.6410  0.1690
 2053TIP3    H127794   2.165   1.535   1.058 -0.8211  1.9385  0.5634
 2053TIP3    H227795   2.134   1.571   1.201  0.9945  1.1117  1.1873
 2054TIP3   OH227796   3.224   2.221   8.478 -0.1339 -0.3557  0.1237
 2054TIP3    H127797   3.208   2.137   8.436 -2.2392  0.9775 -2.0612
 2054TIP3    H227798   3.306   2.252   8.440 -0.5463 -0.4370 -0.8538
 2055TIP3   OH227799   0.272   3.608   6.162  0.3292  0.0075 -0.1310
 2055TIP3    H127800   0.308   3.660   6.234  2.3410  0.4274 -1.3709
 2055TIP3    H227801   0.263   3.670   6.090 -4.1713  0.2386  0.3477
 2056TIP3   OH227802   4.369   1.266   8.596  0.2443 -0.4194 -0.2394
 2056TIP3    H127803   4.296   1.272   8.535  0.4019 -0.5793 -0.4436
 2056TIP3    H227804   4.435   1.214   8.550  0.0001 -1.3275  0.4113
 2057TIP3   OH227805   0.920   2.618   7.338 -0.1099  0.4355  0.1741
 2057TIP3    H127806   0.843   2.571   7.368  0.3640  0.3617  1.3680
 2057TIP3    H227807   0.913   2.619   7.243  0.3612 -2.9558 -0.0249
 2058TIP3   OH227808   4.442   1.370   6.488 -0.1365  0.1344  0.1772
 2058TIP3    H127809   4.403   1.325   6.413  1.6627 -0.7513 -0.2708
 2058TIP3    H227810   4.377   1.437   6.512 -2.3318 -1.8368  0.0768
 2059TIP3   OH227811   2.572   6.000   8.480 -0.5584 -0.1815  0.7220
 2059TIP3    H127812   2.647   5.984   8.537 -0.7880  0.8161  1.3364
 2059TIP3    H227813   2.610   6.035   8.399 -0.3120 -0.3205  0.7778
 2060TIP3   OH227814   5.616   4.957   7.125  0.7805 -0.6681  0.3703
 2060TIP3    H127815   5.521   4.959   7.139  0.3516  0.7071 -2.2266
 2060TIP3    H227816   5.652   4.998   7.204 -1.0519  2.0571 -0.0884
 2061TIP3   OH227817   6.658   6.513   8.696 -0.4649 -0.2427  0.1654
 2061TIP3    H127818   6.752   6.527   8.686 -0.8329  1.2120 -1.6939
 2061TIP3    H227819   6.652   6.428   8.740  1.7021 -0.7994 -0.4631
 2062TIP3   OH227820   1.286   5.680   2.162 -0.6343  0.2770 -0.4385
 2062TIP3    H127821   1.327   5.680   2.249  2.5933 -0.4947 -1.8290
 2062TIP3    H227822   1.210   5.622   2.172 -1.5503  1.7525  2.2815
 2063TIP3   OH227823   3.145   5.110   1.114 -0.0086  0.7833 -0.4208
 2063TIP3    H127824   3.153   5.099   1.209 -3.3638  4.9175  0.6508
 2063TIP3    H227825   3.054   5.087   1.096  0.6219 -0.1055 -2.7600
 2064TIP3   OH227826   2.849   6.377   8.643  0.5464  0.3415 -0.1386
 2064TIP3    H127827   2.895   6.455   8.612  0.2342  0.2050 -0.9708
 2064TIP3    H227828   2.860   6.313   8.573  0.6132 -0.2983  0.4417
 2065TIP3   OH227829   5.935   0.832   1.159 -0.2784 -0.7050  0.1673
 2065TIP3    H127830   6.003   0.780   1.116  0.2304  1.1740 -1.4639
 2065TIP3    H227831   5.926   0.793   1.246  1.1175 -2.5326 -0.4525
 2066TIP3   OH227832   0.924   5.762   6.720 -0.1469 -0.0388  0.0762
 2066TIP3    H127833   0.950   5.781   6.630 -2.2382  0.6724 -0.4239
 2066TIP3    H227834   0.979   5.688   6.745 -0.3805 -1.0903 -2.2265
 2067TIP3   OH227835   6.056   4.738   7.571 -0.2552  0.1846 -0.3271
 2067TIP3    H127836   6.130   4.685   7.542 -0.4976 -0.0480 -0.5371
 2067TIP3    H227837   6.070   4.824   7.531  0.5387  0.5213  0.6299
 2068TIP3   OH227838   6.377   4.432   6.457  0.8604 -0.2608  0.8396
 2068TIP3    H127839   6.370   4.527   6.456  2.9497 -0.0829  0.1566
 2068TIP3    H227840   6.443   4.413   6.523 -1.7820 -1.5055  3.3823
 2069TIP3   OH227841   5.305   4.640   7.399 -0.1990  0.6459  0.1583
 2069TIP3    H127842   5.343   4.706   7.341  1.5124  0.1715  0.6821
 2069TIP3    H227843   5.216   4.672   7.416  0.0777  2.0263 -0.7986
 2070TIP3   OH227844   4.575   5.251   8.009  0.3814 -0.1730 -0.6408
 2070TIP3    H127845   4.565   5.188   7.938  0.4522  0.5984 -1.3494
 2070TIP3    H227846   4.593   5.198   8.087  0.7540 -0.9975 -1.2839
 2071TIP3   OH227847   6.563   6.752   7.752  0.5906 -0.3784 -0.1089
 2071TIP3    H127848   6.512   6.689   7.803  1.5158 -1.1629 -0.1354
 2071TIP3    H227849   6.638   6.772   7.808  0.1903  0.9045  0.0050
 2072TIP3   OH227850   5.246   3.248   2.318  0.5559 -0.4278  0.0826
 2072TIP3    H127851   5.153   3.268   2.312  0.2592 -1.5310  0.6279
 2072TIP3    H227852   5.251   3.180   2.386  1.8047 -0.0689  0.3739
 2073TIP3   OH227853   3.494   5.451   8.878 -0.2335  0.5655 -0.7287
 2073TIP3    H127854   3.422   5.396   8.911  0.9119 -0.0213  0.9088
 2073TIP3    H227855   3.551   5.391   8.831 -0.0236  0.7289 -0.6859
 2074TIP3   OH227856   0.980   3.684   8.325 -0.5750  0.0140 -0.4453
 2074TIP3    H127857   0.965   3.742   8.249 -2.8336  0.2676  0.1248
 2074TIP3    H227858   1.003   3.600   8.286 -1.9831  0.0597 -1.4445
 2075TIP3   OH227859   3.259   5.631   7.484 -0.3903  0.3451 -0.5670
 2075TIP3    H127860   3.317   5.614   7.558 -0.7455 -1.0775 -0.5712
 2075TIP3    H227861   3.266   5.725   7.468 -0.0106  0.6186  1.0168
 2076TIP3   OH227862   4.925   3.555   8.798 -0.4614  0.3650 -0.3000
 2076TIP3    H127863   4.905   3.520   8.884 -0.6100  3.0596  0.8639
 2076TIP3    H227864   4.847   3.539   8.745 -0.2125 -1.6626 -0.1004
 2077TIP3   OH227865   5.509   4.473   7.952 -0.2275 -0.5297  0.3826
 2077TIP3    H127866   5.495   4.380   7.938  0.8097 -0.5662 -0.6031
 2077TIP3    H227867   5.447   4.516   7.893  0.3885 -0.6318 -0.3589
 2078TIP3   OH227868   5.245   4.732   7.070  0.1427  0.2534  0.2697
 2078TIP3    H127869   5.308   4.789   7.113 -0.6456  0.8091  0.7210
 2078TIP3    H227870   5.281   4.719   6.982  0.7385  0.7945  0.4228
 2079TIP3   OH227871   3.657   2.262   8.484  0.2964  0.3448 -0.2672
 2079TIP3    H127872   3.571   2.273   8.443  0.5769 -1.6867 -1.5711
 2079TIP3    H227873   3.659   2.327   8.554 -1.8198  1.2432 -0.9586
 2080TIP3   OH227874   4.634   3.621   8.150  0.8183 -0.3349 -0.5652
 2080TIP3    H127875   4.669   3.627   8.061  3.0409  1.1076  0.3168
 2080TIP3    H227876   4.669   3.539   8.184  0.4735 -0.5817 -0.7941
 2081TIP3   OH227877   5.019   6.061   8.375  0.5819 -0.1736  0.1334
 2081TIP3    H127878   5.047   6.041   8.464 -1.3962 -0.8228  0.6610
 2081TIP3    H227879   4.953   6.130   8.385 -1.1169 -1.5892 -0.5675
 2082TIP3   OH227880   4.641   3.873   1.848 -0.0971  0.4710  0.4199
 2082TIP3    H127881   4.644   3.967   1.867  1.0154  0.3101  1.1009
 2082TIP3    H227882   4.706   3.834   1.906 -0.3631 -0.7012 -0.0334
 2083TIP3   OH227883   4.096   6.526   2.721 -0.0443 -0.1616  0.5500
 2083TIP3    H127884   4.052   6.605   2.754  1.3179  0.4509  0.9684
 2083TIP3    H227885   4.185   6.555   2.700  0.4663 -1.5837  0.6380
 2084TIP3   OH227886   2.613   4.486   8.293 -0.7887 -0.1499 -0.5146
 2084TIP3    H127887   2.699   4.444   8.280 -0.3792  0.1204  1.0907
 2084TIP3    H227888   2.633   4.564   8.345 -2.0858 -0.5029  0.5604
 2085TIP3   OH227889   5.433   4.082   8.783  0.2048  0.0879 -0.3173
 2085TIP3    H127890   5.376   4.098   8.858 -1.1829  2.7702 -1.7682
 2085TIP3    H227891   5.382   4.023   8.727  0.6268 -0.7581  0.1737
 2086TIP3   OH227892   6.577   1.299   1.001 -0.4989  0.0392 -0.1592
 2086TIP3    H127893   6.624   1.249   0.934 -0.6023  0.5757 -0.6421
 2086TIP3    H227894   6.510   1.239   1.033 -0.8179 -0.0366 -0.9423
 2087TIP3   OH227895   2.607   0.836   2.102  0.1950  0.3978  0.1561
 2087TIP3    H127896   2.551   0.761   2.081 -1.6686  2.0695 -1.1050
 2087TIP3    H227897   2.695   0.806   2.077 -0.5886 -1.1330 -0.9768
 2088TIP3   OH227898   6.661   0.731   7.916  0.1640  0.2007 -0.5197
 2088TIP3    H127899   6.593   0.668   7.943  1.2792 -0.2784  1.4165
 2088TIP3    H227900   6.623   0.817   7.936  0.1651 -0.0660  0.7004
 2089TIP3   OH227901   1.930   5.107   6.468 -0.2579 -0.3072  0.6948
 2089TIP3    H127902   1.906   5.200   6.457 -0.1432 -0.1591  1.6410
 2089TIP3    H227903   1.994   5.107   6.539  1.2227 -0.9090 -0.5935
 2090TIP3   OH227904   1.126   6.627   0.971 -0.4376 -0.2107 -0.3020
 2090TIP3    H127905   1.085   6.705   1.009  0.8248 -0.1120  0.9417
 2090TIP3    H227906   1.132   6.566   1.044  1.4710 -0.2604 -0.4497
 2091TIP3   OH227907   4.814   1.286   1.219  0.1692 -0.0578  0.2386
 2091TIP3    H127908   4.752   1.355   1.242  0.0838  0.0832 -0.4108
 2091TIP3    H227909   4.770   1.234   1.152  0.0604 -1.0164  1.0363
 2092TIP3   OH227910   3.934   5.053   8.275 -0.1018 -0.1716 -0.1274
 2092TIP3    H127911   4.022   5.075   8.306  0.4567 -0.7097 -1.2611
 2092TIP3    H227912   3.939   4.959   8.258 -1.3511 -0.5140  1.1879
 2093TIP3   OH227913   5.076   3.249   7.011  0.1895 -0.4514  0.2379
 2093TIP3    H127914   4.981   3.234   7.018  0.0405  0.3659  0.1194
 2093TIP3    H227915   5.113   3.206   7.088 -0.3059 -0.5495  0.4253
 2094TIP3   OH227916   0.191   0.526   7.665  0.0233 -0.0386  0.0662
 2094TIP3    H127917   0.109   0.575   7.674  0.5664  1.0576 -0.5930
 2094TIP3    H227918   0.253   0.591   7.630  0.7769 -1.2202 -0.8688
 2095TIP3   OH227919   1.032   1.846   1.407  0.2060 -0.5213 -0.2045
 2095TIP3    H127920   1.063   1.935   1.392 -1.4211  0.0880 -0.1822
 2095TIP3    H227921   1.096   1.790   1.363 -0.3443  0.8109 -2.8836
 2096TIP3   OH227922   0.542   5.306   7.623  0.4347 -0.3875  0.3462
 2096TIP3    H127923   0.630   5.269   7.633  0.6114 -0.3808 -0.9863
 2096TIP3    H227924   0.548   5.395   7.659  2.0354  1.0214 -3.0423
 2097TIP3   OH227925   1.258   6.335   2.236  0.6159  0.3016 -0.4592
 2097TIP3    H127926   1.315   6.295   2.301 -1.7642  1.0912  2.3159
 2097TIP3    H227927   1.273   6.429   2.245  2.0260  0.3910 -2.9097
 2098TIP3   OH227928   3.019   4.254   8.413  0.2532  0.4394 -0.1144
 2098TIP3    H127929   3.037   4.185   8.349  1.7439  1.1353 -0.5057
 2098TIP3    H227930   3.042   4.216   8.497  1.7711  0.6447 -0.4023
 2099TIP3   OH227931   3.097   6.169   0.922 -0.0609 -0.6457 -0.1826
 2099TIP3    H127932   3.102   6.240   0.986 -0.3956  0.3892 -1.2674
 2099TIP3    H227933   3.155   6.196   0.851  0.5110 -1.8989 -0.2081
 2100TIP3   OH227934   1.831   0.297   1.229  1.0142 -0.0470 -0.4945
 2100TIP3    H127935   1.742   0.291   1.194  1.1220 -0.3737 -0.7182
 2100TIP3    H227936   1.886   0.315   1.153  1.4720 -2.4972 -0.8202
 2101TIP3   OH227937   1.247   5.980   2.097 -0.4329 -0.0201 -0.0398
 2101TIP3    H127938   1.204   5.895   2.098 -0.3560 -0.1112 -1.6649
 2101TIP3    H227939   1.338   5.962   2.119 -0.2305 -0.5043 -1.1966
 2102TIP3   OH227940   1.000   1.926   6.359 -0.5021 -0.5840  0.2627
 2102TIP3    H127941   0.918   1.880   6.339 -1.2571  0.7543  0.1151
 2102TIP3    H227942   1.060   1.857   6.387 -0.7711 -1.9779 -2.2814
 2103TIP3   OH227943   0.137   1.505   1.317 -0.2959  0.2557  0.2936
 2103TIP3    H127944   0.070   1.480   1.254 -0.9319  0.9918  0.6501
 2103TIP3    H227945   0.094   1.571   1.372  0.4096  0.0124  1.1566
 2104TIP3   OH227946   2.134   4.461   8.656  0.3253 -0.1610 -0.3249
 2104TIP3    H127947   2.193   4.459   8.731 -0.2452 -3.4764  0.2027
 2104TIP3    H227948   2.049   4.485   8.692  0.5652  0.8627 -0.4165
 2105TIP3   OH227949   3.987   1.935   8.674  0.2863  0.1982 -0.6445
 2105TIP3    H127950   4.032   1.893   8.747  0.5207  3.1201  1.0358
 2105TIP3    H227951   4.056   1.952   8.610  0.3744 -0.8916 -0.8649
 2106TIP3   OH227952   6.228   6.137   7.310 -0.1683 -0.8948  0.9134
 2106TIP3    H127953   6.279   6.078   7.254 -0.3821 -0.5307  0.3195
 2106TIP3    H227954   6.144   6.093   7.321 -0.9290 -0.0086 -0.8746
 2107TIP3   OH227955   2.514   5.160   0.714 -0.0509  0.0295  0.1270
 2107TIP3    H127956   2.546   5.100   0.781  1.4748 -0.0867 -0.6458
 2107TIP3    H227957   2.449   5.214   0.758  0.1726 -0.7206  1.4172
 2108TIP3   OH227958   4.669   4.890   6.791  0.3915 -0.1457 -0.1117
 2108TIP3    H127959   4.591   4.876   6.737  0.2274  2.8826 -0.8469
 2108TIP3    H227960   4.740   4.902   6.728  0.5789  1.4705  0.3700
 2109TIP3   OH227961   6.527   4.018   7.083  0.4466 -0.1392  0.1464
 2109TIP3    H127962   6.517   3.924   7.101 -1.7759  0.1737  0.9546
 2109TIP3    H227963   6.533   4.024   6.988 -1.5896 -1.0100 -0.0847
 2110TIP3   OH227964   0.411   6.632   1.040  0.2316  0.0690 -0.4343
 2110TIP3    H127965   0.415   6.544   1.003 -0.3220  0.2811 -1.0276
 2110TIP3    H227966   0.324   6.637   1.080  0.8128 -0.1506  0.9234
 2111TIP3   OH227967   6.116   0.070   8.187 -0.2313 -0.2910 -0.0145
 2111TIP3    H127968   6.205   0.037   8.181 -0.0205  0.1320  0.6786
 2111TIP3    H227969   6.062  -0.001   8.152  0.4736  0.0764 -1.9690
 2112TIP3   OH227970   6.550   5.107   0.617 -0.5621 -0.5305  0.0464
 2112TIP3    H127971   6.567   5.165   0.543 -1.7548 -1.0933 -0.6912
 2112TIP3    H227972   6.520   5.165   0.687 -0.0087 -0.0661 -0.0936
 2113TIP3   OH227973   6.510   5.869   7.265 -0.2827  0.3610  0.0154
 2113TIP3    H127974   6.470   5.869   7.352 -1.9390 -0.5946 -0.6787
 2113TIP3    H227975   6.571   5.795   7.267  1.7296  1.9566  1.1532
 2114TIP3   OH227976   1.037   3.394   8.448  0.2151  0.3128 -0.1853
 2114TIP3    H127977   1.035   3.378   8.354 -0.8330  2.1111 -0.5359
 2114TIP3    H227978   1.117   3.444   8.463 -0.3319  1.2950 -0.4085
 2115TIP3   OH227979   0.502   4.159   7.794  0.6856 -0.1214 -0.2332
 2115TIP3    H127980   0.467   4.111   7.718  1.8256 -1.4021  0.0197
 2115TIP3    H227981   0.595   4.169   7.775  0.6304  1.2641  0.1342
 2116TIP3   OH227982   1.420   5.296   8.568  0.0412  0.2994 -0.7699
 2116TIP3    H127983   1.347   5.243   8.601  0.3697 -0.5498 -1.3998
 2116TIP3    H227984   1.378   5.370   8.524 -0.4134  1.0118  0.7968
 2117TIP3   OH227985   0.995   4.285   7.829  0.1350  0.3763  0.2859
 2117TIP3    H127986   0.976   4.233   7.907 -0.4704 -2.5695 -1.6809
 2117TIP3    H227987   0.918   4.272   7.773  2.2070 -0.9791 -2.4463
 2118TIP3   OH227988   5.815   4.270   1.096  0.7154 -0.1236 -0.6151
 2118TIP3    H127989   5.750   4.245   1.030  0.6747 -1.4139 -0.1171
 2118TIP3    H227990   5.891   4.216   1.077  0.6907 -0.5401  0.3996
 2119TIP3   OH227991   3.882   4.900   1.591  0.4368 -0.3528  0.1858
 2119TIP3    H127992   3.806   4.924   1.643  0.1908  0.7991 -0.6722
 2119TIP3    H227993   3.926   4.831   1.642 -0.3644 -0.0000  1.3788
 2120TIP3   OH227994   2.342   6.554   0.325  0.1713 -0.7862  0.0275
 2120TIP3    H127995   2.257   6.529   0.288 -0.5077  0.7970  0.4333
 2120TIP3    H227996   2.346   6.510   0.410 -1.1039  0.5826  0.8371
 2121TIP3   OH227997   5.508   4.137   7.482 -0.0851 -0.4422 -0.1645
 2121TIP3    H127998   5.566   4.060   7.490 -0.4925 -0.8491 -1.0333
 2121TIP3    H227999   5.566   4.207   7.451  0.6574  0.0904  2.2444
 2122TIP3   OH228000   6.374   2.024   1.207  0.3045 -0.1363 -0.5642
 2122TIP3    H128001   6.280   2.028   1.222  0.3142 -1.0951 -0.1960
 2122TIP3    H228002   6.391   2.092   1.142 -0.7647 -0.5336 -1.2793
 2123TIP3   OH228003   5.457   5.130   0.587  0.5010 -0.5319  0.5061
 2123TIP3    H128004   5.528   5.101   0.530 -0.3487  0.2310 -0.9713
 2123TIP3    H228005   5.459   5.068   0.661  0.7674 -2.3796 -0.9858
 2124TIP3   OH228006   0.298   4.025   8.390  0.1896  0.6231  0.1162
 2124TIP3    H128007   0.318   4.087   8.460 -2.0082  0.8606  0.6212
 2124TIP3    H228008   0.209   4.048   8.362  0.2497 -0.7428 -1.3823
 2125TIP3   OH228009   2.983   2.258   8.243  0.0658  0.4211  0.4596
 2125TIP3    H128010   3.012   2.192   8.305  0.6515  0.3660  0.1292
 2125TIP3    H228011   2.900   2.290   8.279 -1.3307 -1.9594 -0.4549
 2126TIP3   OH228012   5.734   4.250   7.869 -1.0767  0.9083 -0.1480
 2126TIP3    H128013   5.639   4.241   7.859 -1.0805  1.6904 -0.9004
 2126TIP3    H228014   5.769   4.166   7.839 -1.4518  1.1131 -1.1892
 2127TIP3   OH228015   1.164   0.008   7.591 -0.2787 -0.3634  0.3653
 2127TIP3    H128016   1.106   0.081   7.570  1.4810  1.5007  1.6385
 2127TIP3    H228017   1.150  -0.006   7.685  0.0581 -1.0962  0.3119
 2128TIP3   OH228018   4.374   6.500   0.317  1.1108  0.2426  0.2802
 2128TIP3    H128019   4.327   6.418   0.303  0.1758  0.8155 -0.0429
 2128TIP3    H228020   4.305   6.563   0.340  1.6430  1.2272 -0.7218
 2129TIP3   OH228021   3.517   1.093   7.282  0.6134 -0.0640 -0.2651
 2129TIP3    H128022   3.481   1.138   7.358  0.2038 -1.6845  0.5646
 2129TIP3    H228023   3.467   1.126   7.207  0.0143  0.4985  0.3748
 2130TIP3   OH228024   4.957   5.571   0.047 -0.0155 -0.1705 -0.1381
 2130TIP3    H128025   5.032   5.597   0.101 -0.9898  2.1687  0.2640
 2130TIP3    H228026   4.892   5.541   0.111 -0.7042  1.3767 -0.0515
 2131TIP3   OH228027   3.326   4.432   7.892 -0.0755 -0.3971 -0.2691
 2131TIP3    H128028   3.368   4.367   7.948 -1.5329 -0.3922  0.9080
 2131TIP3    H228029   3.309   4.507   7.951  0.7671  0.7134 -1.3825
 2132TIP3   OH228030   3.749   5.889   0.053 -0.5740 -0.2290 -0.0022
 2132TIP3    H128031   3.692   5.966   0.052  0.8490  0.9465  1.6261
 2132TIP3    H228032   3.705   5.826   0.110 -0.5796  0.4136  0.7247
 2133TIP3   OH228033   3.812   5.626   6.344 -0.1331  0.5396  0.3947
 2133TIP3    H128034   3.840   5.550   6.294 -0.6471  0.0032  0.9205
 2133TIP3    H228035   3.890   5.682   6.347  0.5892 -0.4664  0.9635
 2134TIP3   OH228036   2.766   0.797   7.793  0.5984 -0.7764 -0.0275
 2134TIP3    H128037   2.675   0.806   7.821  0.4324 -1.8312 -0.1607
 2134TIP3    H228038   2.802   0.885   7.799 -0.1729 -0.5043  0.9217
 2135TIP3   OH228039   0.936   4.505   1.011 -0.2060 -0.2347  0.3496
 2135TIP3    H128040   0.937   4.431   0.951  1.8153  0.5178 -0.6307
 2135TIP3    H228041   0.871   4.482   1.077 -0.2250 -2.4860 -0.3870
 2136TIP3   OH228042   2.357   5.272   0.193 -0.0424  0.5369 -0.3558
 2136TIP3    H128043   2.367   5.300   0.102  1.3576  1.1548 -0.0411
 2136TIP3    H228044   2.415   5.196   0.202 -1.2713 -0.4249 -0.3312
 2137TIP3   OH228045   4.490   3.463   1.028  0.5632 -0.3007 -0.1466
 2137TIP3    H128046   4.403   3.432   1.052  0.9701 -2.0488 -0.8275
 2137TIP3    H228047   4.542   3.384   1.016  1.6459  0.6357 -2.0518
 2138TIP3   OH228048   0.864   4.727   6.926 -0.2702  0.0609  0.1101
 2138TIP3    H128049   0.921   4.731   7.003  0.9693  1.1972 -0.8154
 2138TIP3    H228050   0.813   4.647   6.938  1.0400 -0.6357  1.3270
 2139TIP3   OH228051   5.309   2.964   0.703  0.0439 -0.9860 -0.2204
 2139TIP3    H128052   5.217   2.986   0.719 -0.0541  1.3242 -3.0144
 2139TIP3    H228053   5.310   2.930   0.613  2.1044  0.8923 -0.9983
 2140TIP3   OH228054   1.642   2.133   7.812 -0.1754 -0.1179  0.8211
 2140TIP3    H128055   1.679   2.121   7.725 -1.2061  0.6954  0.2495
 2140TIP3    H228056   1.687   2.068   7.866 -0.1232 -1.2249 -0.4968
 2141TIP3   OH228057   2.971   2.043   7.667  0.0919  0.6032  0.1573
 2141TIP3    H128058   3.054   2.080   7.637  0.8422  0.0893  1.5430
 2141TIP3    H228059   2.982   1.949   7.657 -0.0684  0.4957  0.9936
 2142TIP3   OH228060   4.447   5.826   2.594 -0.3977 -0.2142  0.7347
 2142TIP3    H128061   4.367   5.777   2.613  0.9188 -2.3404  1.1787
 2142TIP3    H228062   4.418   5.901   2.543 -2.6623 -0.9602  0.8188
 2143TIP3   OH228063   2.607   1.114   1.853  0.0662 -0.2926  0.8798
 2143TIP3    H128064   2.669   1.182   1.878  2.7369 -1.6798 -1.3952
 2143TIP3    H228065   2.566   1.148   1.773  2.9977 -1.9568 -1.5648
 2144TIP3   OH228066   3.852   0.268   8.701 -0.2527  0.5927  0.3486
 2144TIP3    H128067   3.888   0.220   8.627  0.8769  1.7345  0.1327
 2144TIP3    H228068   3.757   0.264   8.689 -0.1220 -0.4112 -0.3901
 2145TIP3   OH228069   5.308   0.159   0.071  0.6776  0.4112 -0.3947
 2145TIP3    H128070   5.343   0.150   0.160  0.5163 -1.0945 -0.4609
 2145TIP3    H228071   5.278   0.250   0.066  2.6304  1.1417  0.3652
 2146TIP3   OH228072   5.302   5.054   2.485 -0.2983 -0.2342  0.1610
 2146TIP3    H128073   5.376   4.995   2.478 -0.4648 -0.2960 -1.5482
 2146TIP3    H228074   5.329   5.133   2.437 -0.1627  1.0213  2.2001
 2147TIP3   OH228075   5.972   2.937   7.421 -0.5604  0.1482  0.0511
 2147TIP3    H128076   5.947   2.888   7.500  0.7388 -0.5179  0.0631
 2147TIP3    H228077   5.912   2.904   7.354  0.9064 -2.2900 -0.1953
 2148TIP3   OH228078   1.469   5.079   8.815 -0.8449 -0.0342  0.0437
 2148TIP3    H128079   1.397   5.137   8.838 -2.3174 -2.1457  1.0080
 2148TIP3    H228080   1.538   5.139   8.784 -2.5786  2.1287  0.0760
 2149TIP3   OH228081   2.171   2.198   0.946 -0.8166  0.3573  0.3251
 2149TIP3    H128082   2.230   2.256   0.896 -2.3997 -0.3254 -2.6007
 2149TIP3    H228083   2.223   2.169   1.020  1.0479  3.1174  0.2641
 2150TIP3   OH228084   2.850   4.707   1.248 -0.4037 -0.4269  0.4916
 2150TIP3    H128085   2.874   4.697   1.341 -0.2397 -2.0825  0.3092
 2150TIP3    H228086   2.780   4.644   1.235 -0.4765 -0.1537 -0.5045
 2151TIP3   OH228087   3.092   2.544   0.016 -0.5974  0.4605  0.7232
 2151TIP3    H128088   3.031   2.589  -0.043 -1.1013  0.3471  1.1417
 2151TIP3    H228089   3.056   2.456   0.026  0.3839 -0.0445 -0.0834
 2152TIP3   OH228090   0.642   2.557   1.866 -0.2835  0.0461  0.7012
 2152TIP3    H128091   0.587   2.630   1.893 -1.9583 -0.7626 -0.3744
 2152TIP3    H228092   0.593   2.478   1.890  0.2330 -0.7022 -0.5428
 2153TIP3   OH228093   4.515   2.949   7.646  0.3606  0.4043  0.9509
 2153TIP3    H128094   4.420   2.939   7.646 -0.3988  5.1102 -0.4674
 2153TIP3    H228095   4.532   3.021   7.707  2.7769  0.9150 -0.1760
 2154TIP3   OH228096   2.974   4.772   8.395 -0.2549 -0.3519 -0.4070
 2154TIP3    H128097   2.920   4.802   8.322  0.0268  0.2525 -0.3764
 2154TIP3    H228098   2.914   4.725   8.452 -0.9277  0.9656  0.0116
 2155TIP3   OH228099   5.996   4.781   7.856  0.0169  0.4067 -0.1815
 2155TIP3    H128100   6.031   4.730   7.782 -1.4854 -1.1843  0.1347
 2155TIP3    H228101   5.919   4.824   7.821  0.3076  1.0902  0.0145
 2156TIP3   OH228102   1.024   2.171   0.070 -0.2596 -0.2068  0.1759
 2156TIP3    H128103   1.074   2.160   0.151 -0.0231 -0.1271  0.0421
 2156TIP3    H228104   0.979   2.087   0.059  0.0784 -0.3895  0.1441
 2157TIP3   OH228105   0.204   0.908   7.262  0.4084 -0.1909  0.3519
 2157TIP3    H128106   0.115   0.885   7.287 -0.1844 -0.8434 -2.0457
 2157TIP3    H228107   0.258   0.836   7.294 -0.9937 -3.8049 -4.3231
 2158TIP3   OH228108   2.080   3.106   8.538  0.5496 -0.4398  0.4576
 2158TIP3    H128109   2.084   3.064   8.452 -0.6478 -0.9550  0.6332
 2158TIP3    H228110   2.142   3.179   8.532  1.2793 -1.1113 -0.4757
 2159TIP3   OH228111   5.139   0.891   0.956  0.4646  0.0551 -0.3660
 2159TIP3    H128112   5.113   0.848   0.874  0.0015 -0.3195 -0.0300
 2159TIP3    H228113   5.065   0.876   1.015  0.9688 -0.0318  0.2491
 2160TIP3   OH228114   5.971   4.173   0.346 -0.5494 -0.1937  0.2630
 2160TIP3    H128115   5.900   4.162   0.283 -1.2810  0.6150  0.9163
 2160TIP3    H228116   6.044   4.124   0.309 -1.3002 -0.6426 -0.6631
 2161TIP3   OH228117   1.107   5.410   7.035  0.2360  0.2024  0.5430
 2161TIP3    H128118   1.033   5.469   7.049  0.2170  0.2031  0.4388
 2161TIP3    H228119   1.141   5.394   7.123  0.1743  0.2820  0.5820
 2162TIP3   OH228120   6.707   2.761   0.915  0.5524  0.0673 -0.2708
 2162TIP3    H128121   6.659   2.778   0.996  0.2893 -1.4267 -0.0826
 2162TIP3    H228122   6.792   2.728   0.944  0.5954 -0.1271 -0.6141
 2163TIP3   OH228123   0.411   4.695   1.039  0.0507  0.5566 -0.4837
 2163TIP3    H128124   0.418   4.603   1.012 -1.0531  0.7683 -1.5838
 2163TIP3    H228125   0.497   4.716   1.076 -0.0228 -1.2291  0.8640
 2164TIP3   OH228126   3.002   0.319   1.999 -0.8560 -0.0706 -0.6181
 2164TIP3    H128127   2.997   0.414   1.986  1.1059  0.0751 -0.4840
 2164TIP3    H228128   3.056   0.288   1.927 -1.1074 -1.0464 -0.3932
 2165TIP3   OH228129   2.750   1.413   7.622  0.0009  0.7899  0.0550
 2165TIP3    H128130   2.682   1.348   7.636 -1.6951  2.3885 -0.3874
 2165TIP3    H228131   2.832   1.366   7.638 -1.2232 -0.9364  1.6410
 2166TIP3   OH228132   1.606   4.673   2.354  0.6228 -0.1784 -0.3668
 2166TIP3    H128133   1.623   4.697   2.445 -2.2895 -0.7628  0.4336
 2166TIP3    H228134   1.521   4.713   2.334  1.7259  0.9768 -3.2841
 2167TIP3   OH228135   0.013   5.069   8.951 -0.2803  0.5252 -0.4931
 2167TIP3    H128136  -0.027   4.999   8.900 -0.5516 -0.8467  1.5223
 2167TIP3    H228137  -0.055   5.097   9.012 -0.0688  2.3777 -1.0216
 2168TIP3   OH228138   5.071   4.734   7.930  0.2857 -0.0665 -0.0080
 2168TIP3    H128139   5.075   4.648   7.972 -2.7257  0.4633  1.5926
 2168TIP3    H228140   5.127   4.790   7.984  2.3098 -0.9335 -1.0909
 2169TIP3   OH228141   5.701   6.528   7.630 -0.2423 -0.0007  0.5688
 2169TIP3    H128142   5.608   6.507   7.624 -0.5450  1.4382 -0.3768
 2169TIP3    H228143   5.725   6.556   7.541  0.9503  0.1640  0.9238
 2170TIP3   OH228144   6.213   2.431   8.879 -0.1586  0.3220 -0.3667
 2170TIP3    H128145   6.192   2.414   8.971  0.6688 -1.1100 -0.4113
 2170TIP3    H228146   6.150   2.378   8.830 -0.1676  0.5678 -0.6251
 2171TIP3   OH228147   1.366   3.034   6.849 -0.8409  0.0558 -0.7705
 2171TIP3    H128148   1.271   3.042   6.848 -0.7916  0.6279 -1.3766
 2171TIP3    H228149   1.398   3.123   6.858 -0.3653 -0.2994  1.6177
 2172TIP3   OH228150   5.073   3.414   1.213 -0.2428  0.3409 -0.5524
 2172TIP3    H128151   5.066   3.319   1.225 -2.2864  0.4526 -0.4384
 2172TIP3    H228152   5.106   3.425   1.124  2.0094 -0.4510  0.1284
 2173TIP3   OH228153   4.556   1.656   1.855  0.0171  0.0402 -0.2358
 2173TIP3    H128154   4.604   1.669   1.936 -2.1974  0.3664  1.1045
 2173TIP3    H228155   4.514   1.571   1.865 -2.3530  1.1518  0.1983
 2174TIP3   OH228156   5.710   5.852   8.304  0.5601 -0.8477 -0.0083
 2174TIP3    H128157   5.685   5.908   8.231  3.0285 -2.3420 -2.1533
 2174TIP3    H228158   5.794   5.887   8.334  0.1173 -0.9345  1.4482
 2175TIP3   OH228159   0.773   4.852   8.301 -0.0343  0.7292  0.2755
 2175TIP3    H128160   0.824   4.880   8.377  2.3254 -0.7185 -0.6274
 2175TIP3    H228161   0.825   4.882   8.226 -1.4830  0.7585 -0.7427
 2176TIP3   OH228162   3.062   5.084   8.787  0.0302  0.1287 -0.1210
 2176TIP3    H128163   3.038   5.062   8.697 -0.2372 -1.0698  0.2233
 2176TIP3    H228164   3.020   5.169   8.803  0.2935  0.4730 -1.2004
 2177TIP3   OH228165   1.247   0.572   6.508 -0.6170 -0.5492 -0.1654
 2177TIP3    H128166   1.314   0.615   6.455 -0.2635  1.6380  1.8609
 2177TIP3    H228167   1.296   0.527   6.577 -1.1440 -1.5371 -0.4161
 2178TIP3   OH228168   3.453   0.024   1.715 -0.3311 -0.3472 -0.1222
 2178TIP3    H128169   3.508   0.038   1.792  1.0172 -0.6578 -0.9927
 2178TIP3    H228170   3.389  -0.041   1.743 -0.4076  0.1767  0.9820
 2179TIP3   OH228171   6.725   0.795   2.477  0.6898  0.1137  0.2823
 2179TIP3    H128172   6.641   0.839   2.466  0.6208 -0.5391 -2.6169
 2179TIP3    H228173   6.701   0.705   2.500  0.5847 -0.0133 -0.3068
 2180TIP3   OH228174   0.656   6.407   6.995 -0.3822 -0.4002 -0.0953
 2180TIP3    H128175   0.644   6.463   6.918  1.1581 -0.2892 -0.2838
 2180TIP3    H228176   0.585   6.432   7.054 -1.0578  0.1416 -1.1102
 2181TIP3   OH228177   0.880   5.567   6.938 -0.0225 -0.2859  0.1990
 2181TIP3    H128178   0.789   5.589   6.959  0.6096  2.4454  0.4155
 2181TIP3    H228179   0.874   5.515   6.858 -1.8334 -1.6719  1.1458
 2182TIP3   OH228180   0.660   5.937   1.042  0.1574 -0.2390 -0.2961
 2182TIP3    H128181   0.609   5.949   0.962 -0.3203  0.3448  0.0847
 2182TIP3    H228182   0.692   5.846   1.037 -1.8067 -0.9858 -0.0384
 2183TIP3   OH228183   0.699   2.391   7.726  0.3638 -0.1053  0.2127
 2183TIP3    H128184   0.776   2.359   7.773 -0.4622 -0.3636  1.4292
 2183TIP3    H228185   0.638   2.318   7.725 -1.1317  1.0056  2.1195
 2184TIP3   OH228186   6.670   4.731   0.126 -0.7639 -0.5254  0.2580
 2184TIP3    H128187   6.590   4.768   0.089 -0.1015  1.8376  1.0077
 2184TIP3    H228188   6.672   4.762   0.216  1.6282  0.6510 -0.1193
 2185TIP3   OH228189   6.125   5.167   0.443 -0.6152  0.8199  0.2069
 2185TIP3    H128190   6.160   5.079   0.432 -1.0163  0.9359 -2.6999
 2185TIP3    H228191   6.035   5.154   0.475 -0.9080  0.1223 -0.8748
 2186TIP3   OH228192   2.296   6.283   1.660 -0.4985 -0.3481  0.4343
 2186TIP3    H128193   2.358   6.250   1.724  0.6125  0.7663 -0.0069
 2186TIP3    H228194   2.211   6.279   1.703  0.5651  3.8158  3.5604
 2187TIP3   OH228195   3.492   4.267   8.085  0.1680 -0.2848  0.5210
 2187TIP3    H128196   3.569   4.270   8.143  0.1548  1.4619  0.5198
 2187TIP3    H228197   3.418   4.253   8.144  0.3264 -0.2604  0.7269
 2188TIP3   OH228198   6.118   0.234   7.297  0.1215 -0.1368  0.5569
 2188TIP3    H128199   6.140   0.328   7.300 -2.5097  0.5165  1.9296
 2188TIP3    H228200   6.184   0.197   7.238  2.2745  2.2601  1.2284
 2189TIP3   OH228201   2.320   2.228   1.866  0.4516  0.0499  0.0284
 2189TIP3    H128202   2.363   2.295   1.812  1.2241 -0.9917 -0.6826
 2189TIP3    H228203   2.366   2.147   1.845 -1.6800 -1.0808 -0.5564
 2190TIP3   OH228204   2.801   6.384   7.728  0.5342 -0.1037 -0.8062
 2190TIP3    H128205   2.817   6.300   7.687 -1.3466  0.3536 -2.5944
 2190TIP3    H228206   2.743   6.365   7.801  2.1442 -0.6308  0.3956
 2191TIP3   OH228207   4.208   0.629   1.272  0.0824  0.2078  0.0086
 2191TIP3    H128208   4.122   0.607   1.307 -0.3333  0.5177 -0.7851
 2191TIP3    H228209   4.212   0.724   1.274  0.0574  0.2363 -0.7378
 2192TIP3   OH228210   2.801   5.549   0.049 -0.2096  0.1262  0.1305
 2192TIP3    H128211   2.714   5.575   0.082 -0.4858 -0.8842  0.2173
 2192TIP3    H228212   2.851   5.531   0.128  0.0943  0.7070  0.0792
 2193TIP3   OH228213   5.060   2.511   8.487 -0.5555 -0.3589 -0.1377
 2193TIP3    H128214   5.088   2.579   8.548 -1.2060 -0.4256  0.2364
 2193TIP3    H228215   5.142   2.469   8.460  0.1362  1.9754 -2.0942
 2194TIP3   OH228216   3.772   6.147   0.846  0.4210  0.2464 -0.0697
 2194TIP3    H128217   3.770   6.214   0.915  1.0292  0.7236 -0.4999
 2194TIP3    H228218   3.681   6.123   0.833  0.3635 -0.6635  1.6702
 2195TIP3   OH228219   2.886   6.494   8.015  0.2293  0.2788 -0.2485
 2195TIP3    H128220   2.847   6.566   7.965  1.4460  0.6146 -0.7645
 2195TIP3    H228221   2.812   6.442   8.046 -0.6568  1.5009 -0.2557
 2196TIP3   OH228222   4.620   4.988   7.050  0.7113 -0.4496 -0.2983
 2196TIP3    H128223   4.530   4.956   7.057  1.6984 -3.1826  2.6857
 2196TIP3    H228224   4.650   4.956   6.965 -0.8900 -0.1277 -1.0168
 2197TIP3   OH228225   5.804   2.349   8.931  0.4340 -0.0762  0.0799
 2197TIP3    H128226   5.864   2.368   9.004  0.3344 -1.0158  0.4179
 2197TIP3    H228227   5.721   2.326   8.974 -0.2539  1.4131 -0.3881
 2198TIP3   OH228228   1.418   4.753   8.498  0.2120  0.6065  0.6207
 2198TIP3    H128229   1.419   4.658   8.487  1.0977  0.5361  1.1855
 2198TIP3    H228230   1.411   4.767   8.592 -1.2146  1.1315  0.4605
 2199TIP3   OH228231   2.652   5.708   0.811 -0.3800  0.2245  0.1793
 2199TIP3    H128232   2.585   5.639   0.804 -0.0671  0.0643 -1.9713
 2199TIP3    H228233   2.607   5.780   0.856 -0.6206 -1.4281  2.7723
 2200TIP3   OH228234   2.556   5.244   1.906 -0.4151  0.1617  0.2947
 2200TIP3    H128235   2.466   5.241   1.940 -0.3862 -1.4050  0.2967
 2200TIP3    H228236   2.574   5.154   1.879  0.9681  0.5785 -0.2222
 2201TIP3   OH228237   3.642   1.380   6.913 -0.0281 -0.1051 -0.5703
 2201TIP3    H128238   3.713   1.423   6.960 -0.3468 -0.8702  0.6689
 2201TIP3    H228239   3.565   1.434   6.930 -1.0456 -2.3367  3.2534
 2202TIP3   OH228240   2.755   2.134   0.302 -0.0400 -0.1206  0.6115
 2202TIP3    H128241   2.667   2.101   0.283 -1.1015  3.0119 -0.5348
 2202TIP3    H228242   2.798   2.139   0.217  1.1888 -1.2725  1.1220
 2203TIP3   OH228243   5.597   4.712   0.625 -0.4040  0.1541 -0.1544
 2203TIP3    H128244   5.637   4.720   0.539 -1.9316  0.4457 -0.8814
 2203TIP3    H228245   5.524   4.651   0.612 -1.5262  1.2887  0.5799
 2204TIP3   OH228246   2.095   4.084   8.780 -0.4091 -0.4525  0.7696
 2204TIP3    H128247   2.102   4.148   8.850 -1.5670  0.4981  0.0490
 2204TIP3    H228248   2.143   4.124   8.707  0.7805 -1.4275  0.9751
 2205TIP3   OH228249   3.322   2.802   8.919  0.5765 -0.3194 -0.0786
 2205TIP3    H128250   3.356   2.717   8.891 -1.2384 -2.2849  3.0241
 2205TIP3    H228251   3.276   2.783   9.001 -0.3935  3.6147  0.4826
 2206TIP3   OH228252   1.521   6.627   7.148  0.3078 -0.1619  0.5013
 2206TIP3    H128253   1.497   6.552   7.202  1.3492 -0.2014  0.9443
 2206TIP3    H228254   1.542   6.590   7.062 -0.5174 -0.1996  0.3059
 2207TIP3   OH228255   3.096   0.274   7.624  0.3899 -0.2958  1.0145
 2207TIP3    H128256   3.128   0.364   7.623  0.0048 -0.1568  0.8467
 2207TIP3    H228257   3.173   0.221   7.604  0.2468  0.1287 -0.8776
 2208TIP3   OH228258   3.067   1.738   8.567 -0.0913 -0.3225  0.1727
 2208TIP3    H128259   3.092   1.698   8.650  1.4111 -0.0117 -0.0921
 2208TIP3    H228260   3.083   1.670   8.502  1.2203  0.2352 -0.1278
 2209TIP3   OH228261   2.209   1.865   1.053 -0.2358 -0.1022 -0.1934
 2209TIP3    H128262   2.152   1.932   1.092 -0.3901 -0.1552 -0.3269
 2209TIP3    H228263   2.298   1.895   1.072 -0.2944  0.4461 -0.7621
 2210TIP3   OH228264   0.904   1.247   0.368  0.0666  0.1238  0.2019
 2210TIP3    H128265   0.821   1.252   0.319  0.2729  1.1557 -0.0593
 2210TIP3    H228266   0.920   1.153   0.377 -0.7064 -0.0883 -0.4691
 2211TIP3   OH228267   3.447   0.578   8.350 -0.1415  0.1568  0.3916
 2211TIP3    H128268   3.511   0.548   8.285 -0.0487  1.8041 -0.3378
 2211TIP3    H228269   3.414   0.498   8.390 -0.3177 -0.9463 -1.8193
 2212TIP3   OH228270   1.826   3.225   0.566 -0.1033  0.2373  0.5347
 2212TIP3    H128271   1.903   3.277   0.590  0.9882 -0.6549 -0.8617
 2212TIP3    H228272   1.828   3.151   0.626 -0.1524  0.4627  0.8170
 2213TIP3   OH228273   4.671   6.584   6.456  0.1610 -0.4578 -0.1327
 2213TIP3    H128274   4.684   6.489   6.461  0.3713 -0.4865 -1.0140
 2213TIP3    H228275   4.701   6.617   6.540  0.4844 -1.1349  0.0247
 2214TIP3   OH228276   2.242   3.703   8.205 -0.0261  0.3965 -0.0473
 2214TIP3    H128277   2.256   3.787   8.249  2.3214  0.0869 -0.0788
 2214TIP3    H228278   2.330   3.666   8.195 -0.8380 -1.2712 -1.6197
 2215TIP3   OH228279   0.191   2.405   2.071 -0.1435  0.2861 -0.3867
 2215TIP3    H128280   0.126   2.445   2.129 -1.2193 -0.0879 -1.2882
 2215TIP3    H228281   0.268   2.393   2.126 -1.4370 -0.9454  1.2727
 2216TIP3   OH228282   2.202   0.272   8.345 -0.4861 -0.2225  0.0626
 2216TIP3    H128283   2.195   0.293   8.438  0.2473  0.7183 -0.0754
 2216TIP3    H228284   2.117   0.234   8.322 -1.8206  2.2880  0.4508
 2217TIP3   OH228285   1.304   0.910   1.287 -0.2065 -0.1044  0.3341
 2217TIP3    H128286   1.270   0.975   1.225 -1.5208 -1.5626 -0.5623
 2217TIP3    H228287   1.338   0.962   1.360 -1.7279  1.5785 -0.0666
 2218TIP3   OH228288   1.818   2.058   8.427  0.3322  0.7861  0.3235
 2218TIP3    H128289   1.789   2.149   8.434 -4.0026 -0.4362  1.7054
 2218TIP3    H228290   1.834   2.031   8.517  0.6647 -0.0604  0.0169
 2219TIP3   OH228291   4.844   6.676   6.696  0.8575 -0.3898 -0.0637
 2219TIP3    H128292   4.803   6.757   6.724 -2.1338 -1.7496 -0.1414
 2219TIP3    H228293   4.938   6.696   6.695  0.2770  2.9396  0.1462
 2220TIP3   OH228294   6.131   4.902   8.555  0.3157 -0.4512 -0.6572
 2220TIP3    H128295   6.153   4.995   8.556 -0.5260 -0.2251  1.8026
 2220TIP3    H228296   6.036   4.900   8.545  0.0879 -0.9356  1.2664
 2221TIP3   OH228297   4.431   6.253   6.895 -0.0209  0.1476  0.1915
 2221TIP3    H128298   4.517   6.247   6.935 -0.1155 -0.7841  0.2598
 2221TIP3    H228299   4.447   6.243   6.801  0.1012  1.4629  0.0520
 2222TIP3   OH228300   6.483   3.855   8.239 -0.5712 -0.0518 -0.7720
 2222TIP3    H128301   6.471   3.761   8.245  1.4413 -0.2585  3.2597
 2222TIP3    H228302   6.578   3.868   8.234 -0.7454  1.7442 -0.3732
 2223TIP3   OH228303   0.584   5.168   2.297 -0.1322  0.2609 -0.0036
 2223TIP3    H128304   0.651   5.160   2.229 -0.8220 -0.9409 -0.5659
 2223TIP3    H228305   0.542   5.253   2.280 -0.6945 -0.2909 -1.4722
 2224TIP3   OH228306   2.774   4.874   0.149  0.4562 -0.1432  0.6422
 2224TIP3    H128307   2.745   4.827   0.071 -0.2285  1.6100 -0.2385
 2224TIP3    H228308   2.850   4.825   0.180  0.7438 -0.9128 -1.1290
 2225TIP3   OH228309   6.483   4.346   8.758  0.3747 -0.3931 -0.1655
 2225TIP3    H128310   6.417   4.278   8.753  1.2657 -1.2311 -1.1379
 2225TIP3    H228311   6.472   4.384   8.845 -0.6736 -1.2203  0.0861
 2226TIP3   OH228312   0.057   1.521   2.143  0.3958 -0.2013  0.1220
 2226TIP3    H128313   0.094   1.529   2.230  0.3101  2.5589  0.0024
 2226TIP3    H228314   0.130   1.539   2.084  0.3248 -1.4847 -0.3853
 2227TIP3   OH228315   1.913   3.612   2.347 -0.3341 -0.4254  0.0121
 2227TIP3    H128316   1.875   3.534   2.307 -2.5987  1.2822 -1.3790
 2227TIP3    H228317   1.996   3.625   2.300 -0.2117 -1.6387 -0.1362
 2228TIP3   OH228318   0.819   5.234   7.651 -0.0436 -0.0668  0.1668
 2228TIP3    H128319   0.862   5.312   7.615  0.3449 -0.4993 -0.3174
 2228TIP3    H228320   0.864   5.160   7.610  0.6430 -0.5956  1.8149
 2229TIP3   OH228321   3.184   3.849   8.479  0.1731  0.3416 -0.8549
 2229TIP3    H128322   3.091   3.849   8.455  0.2321 -2.0630 -1.2776
 2229TIP3    H228323   3.184   3.858   8.574 -0.8277 -4.0296 -0.2469
 2230TIP3   OH228324   6.142   5.363   8.400  0.6798 -0.1742  0.0958
 2230TIP3    H128325   6.207   5.343   8.333  0.8238  1.0303 -0.1469
 2230TIP3    H228326   6.106   5.448   8.374  0.6365  0.2479  1.4670
 2231TIP3   OH228327   4.349   1.896   8.311 -0.4245 -0.1834  0.0269
 2231TIP3    H128328   4.393   1.819   8.345 -2.7813 -1.3462  0.6814
 2231TIP3    H228329   4.312   1.868   8.227 -0.5085  0.5446 -0.1930
 2232TIP3   OH228330   5.382   3.628   8.284  0.0751 -0.2919  0.0518
 2232TIP3    H128331   5.471   3.662   8.296  0.8544 -1.9446 -0.6494
 2232TIP3    H228332   5.392   3.533   8.293 -1.7040 -0.4735  0.3343
 2233TIP3   OH228333   1.512   1.063   6.371 -0.2023  0.3717 -0.2420
 2233TIP3    H128334   1.489   1.147   6.410 -0.9911 -0.1559  0.4599
 2233TIP3    H228335   1.571   1.085   6.299  0.9268  1.3977  0.9556
 2234TIP3   OH228336   2.990   1.749   0.141 -0.1387  0.5760  1.0402
 2234TIP3    H128337   3.044   1.674   0.169  0.7454  0.2574 -1.3395
 2234TIP3    H228338   3.043   1.793   0.075 -2.0112  1.4068  0.0401
 2235TIP3   OH228339   1.822   5.843   8.333  0.0851 -0.1732 -0.2043
 2235TIP3    H128340   1.789   5.776   8.272 -0.3420  1.6575 -2.0926
 2235TIP3    H228341   1.789   5.815   8.418 -1.7096 -1.3643 -1.2072
 2236TIP3   OH228342   6.354   4.222   1.351  0.3045 -0.0757  0.1855
 2236TIP3    H128343   6.266   4.249   1.377  0.0935 -1.2588  0.8024
 2236TIP3    H228344   6.357   4.238   1.257 -0.5270  0.1045  0.1811
 2237TIP3   OH228345   1.492   2.225   6.902 -0.8136 -0.0377  0.3614
 2237TIP3    H128346   1.547   2.201   6.828 -1.2627 -1.5307  0.4803
 2237TIP3    H228347   1.413   2.262   6.862 -0.2341  1.0148  0.1630
 2238TIP3   OH228348   1.449   2.938   8.214 -0.0902 -0.6918  0.0795
 2238TIP3    H128349   1.544   2.931   8.224 -0.0806  0.9930  1.4711
 2238TIP3    H228350   1.414   2.931   8.303 -1.1348  0.4886 -0.2151
 2239TIP3   OH228351   1.753   0.705   8.841 -0.3877 -0.5613 -0.2113
 2239TIP3    H128352   1.825   0.643   8.827  1.6045  1.5695 -0.1202
 2239TIP3    H228353   1.751   0.719   8.935  0.9385  1.3543 -0.4144
 2240TIP3   OH228354   4.053   2.404   0.401  0.1370 -0.6625 -0.3396
 2240TIP3    H128355   4.055   2.353   0.320  1.8556 -0.6778 -0.3055
 2240TIP3    H228356   4.036   2.494   0.373 -0.0395 -0.7854 -0.6346
 2241TIP3   OH228357   3.626   6.777   1.043  0.5880 -0.8961 -0.7133
 2241TIP3    H128358   3.702   6.835   1.034 -0.1598  0.4299  0.9405
 2241TIP3    H228359   3.554   6.826   1.005  0.2750 -1.5292 -0.9516
 2242TIP3   OH228360   3.783   3.753   8.075 -0.0090  0.1973  0.2462
 2242TIP3    H128361   3.855   3.815   8.077  0.2897 -0.0997 -0.6768
 2242TIP3    H228362   3.704   3.807   8.080  0.2564  0.6149 -0.0098
 2243TIP3   OH228363   0.483   1.764   0.792 -0.2725 -0.1327 -0.5531
 2243TIP3    H128364   0.544   1.696   0.763  1.4744  1.0979  0.0978
 2243TIP3    H228365   0.490   1.833   0.726  0.8372  1.0158  0.7173
 2244TIP3   OH228366   0.565   3.000   0.233 -1.0526 -0.4913  0.2920
 2244TIP3    H128367   0.471   2.981   0.236 -1.7961  2.6287 -0.5446
 2244TIP3    H228368   0.589   2.992   0.140 -1.0168  0.8108  0.1716
 2245TIP3   OH228369   3.358   1.418   0.288 -0.0662 -0.4707 -0.0093
 2245TIP3    H128370   3.288   1.358   0.262 -0.0010 -1.1537  1.3128
 2245TIP3    H228371   3.353   1.421   0.383  2.0207 -0.9131  0.1541
 2246TIP3   OH228372   6.351   6.687   6.341  0.7007 -0.4309 -0.6280
 2246TIP3    H128373   6.276   6.677   6.400  0.2741 -1.4887 -1.3314
 2246TIP3    H228374   6.376   6.598   6.319 -1.1559 -0.1939 -4.5885
 2247TIP3   OH228375   0.038   4.355   1.667  0.2775  0.9443 -0.0918
 2247TIP3    H128376   0.049   4.292   1.738 -1.6284 -0.1172 -0.6776
 2247TIP3    H228377  -0.013   4.309   1.601  1.6729  2.0280 -2.0225
 2248TIP3   OH228378   4.732   1.943   6.661  0.0012 -0.5225  0.2704
 2248TIP3    H128379   4.695   2.009   6.602 -1.7466 -1.8291 -0.1886
 2248TIP3    H228380   4.802   1.901   6.610  0.3198  0.1545  0.1420
 2249TIP3   OH228381   2.275   3.975   8.459 -0.8073  0.2665  0.0954
 2249TIP3    H128382   2.278   4.064   8.493 -0.8872  0.3692 -0.1657
 2249TIP3    H228383   2.262   3.985   8.365 -0.9035 -0.0212  0.0751
 2250TIP3   OH228384   4.252   5.899   2.405 -0.3306  0.3363  0.0076
 2250TIP3    H128385   4.211   5.954   2.338 -0.7723 -1.1201 -0.9685
 2250TIP3    H228386   4.183   5.885   2.470 -1.0370 -1.0232 -0.9747
 2251TIP3   OH228387   6.175   4.437   7.574 -0.2829  0.0275  0.4379
 2251TIP3    H128388   6.182   4.402   7.663  0.0742  0.4953  0.6006
 2251TIP3    H228389   6.081   4.437   7.555 -0.5916  1.9955  1.6691
 2252TIP3   OH228390   1.653   1.925   7.509  0.7362  0.1878 -0.5014
 2252TIP3    H128391   1.689   1.884   7.430  1.9616  0.6401 -0.2068
 2252TIP3    H228392   1.702   2.006   7.517  1.3884 -0.3426  1.3021
 2253TIP3   OH228393   1.132   0.608   1.696  0.1666 -0.2537 -0.3389
 2253TIP3    H128394   1.171   0.692   1.719  0.6384 -0.5955  0.1505
 2253TIP3    H228395   1.131   0.559   1.779 -1.6127 -0.1417 -0.2500
 2254TIP3   OH228396   5.591   1.569   8.030  0.7945  0.2220  0.4905
 2254TIP3    H128397   5.588   1.642   8.092 -0.3007  1.3624 -0.8604
 2254TIP3    H228398   5.502   1.534   8.030  1.1565 -0.7295  0.6412
 2255TIP3   OH228399   1.607   3.226   7.632  0.0315 -0.4748 -0.8018
 2255TIP3    H128400   1.530   3.193   7.585  1.0664 -1.3782 -1.9264
 2255TIP3    H228401   1.649   3.147   7.667  0.3735  0.0223 -0.0632
 2256TIP3   OH228402   0.279   3.777   8.753  0.4662 -0.0589  0.0093
 2256TIP3    H128403   0.208   3.834   8.723 -0.2803  0.5702  2.7220
 2256TIP3    H228404   0.312   3.820   8.832  2.5265 -1.4040 -0.0506
 2257TIP3   OH228405   4.949   0.751   1.727 -0.3068 -0.1427 -0.2235
 2257TIP3    H128406   4.897   0.831   1.723  0.4336  0.3934  0.3939
 2257TIP3    H228407   4.953   0.730   1.821 -0.8067 -1.1180 -0.4122
 2258TIP3   OH228408   3.290   2.513   1.673 -0.2387 -0.2658 -0.7399
 2258TIP3    H128409   3.228   2.458   1.721  0.2993 -1.8340 -1.7933
 2258TIP3    H228410   3.371   2.508   1.723 -0.0033 -0.9702 -1.1885
 2259TIP3   OH228411   4.578   2.027   7.776  0.4248 -0.2924 -0.4118
 2259TIP3    H128412   4.540   2.072   7.852  1.2761  1.3200 -0.9083
 2259TIP3    H228413   4.502   1.987   7.733 -0.3025  0.2810  0.2922
 2260TIP3   OH228414   1.378   2.090   1.015  0.4770 -0.1511 -0.0204
 2260TIP3    H128415   1.356   2.165   1.071  1.7452 -0.2406  0.6411
 2260TIP3    H228416   1.303   2.031   1.024  0.2903  0.2102  0.9526
 2261TIP3   OH228417   2.407   1.911   2.331  0.2959 -0.3036 -0.1593
 2261TIP3    H128418   2.341   1.848   2.304 -0.6438  0.9611 -0.9008
 2261TIP3    H228419   2.424   1.964   2.254  1.8762 -0.3097  0.1407
 2262TIP3   OH228420   6.355   2.703   0.316 -0.6325 -0.1125 -0.4336
 2262TIP3    H128421   6.377   2.645   0.388 -0.2958  0.9952  0.3753
 2262TIP3    H228422   6.278   2.751   0.346 -0.0423  0.8906 -0.4972
 2263TIP3   OH228423   4.381   5.775   7.210 -0.0190  0.1678 -0.5344
 2263TIP3    H128424   4.466   5.819   7.210  0.3101 -0.4466  0.0438
 2263TIP3    H228425   4.329   5.822   7.276  0.1470  0.0510 -0.3168
 2264TIP3   OH228426   5.200   0.469   6.334  0.3506 -0.5147  0.0713
 2264TIP3    H128427   5.174   0.451   6.425 -0.0884  0.1264  0.0819
 2264TIP3    H228428   5.119   0.460   6.284  0.2338  0.7587 -0.0110
 2265TIP3   OH228429   1.032   2.597   0.248  0.2201 -0.1756 -0.4209
 2265TIP3    H128430   1.028   2.669   0.311 -0.1813 -0.6350  0.0816
 2265TIP3    H228431   1.020   2.640   0.163 -1.5283  0.1979 -0.0232
 2266TIP3   OH228432   2.842   0.131   0.112 -0.2975  0.5295 -0.0910
 2266TIP3    H128433   2.802   0.181   0.041 -2.3659 -1.3860 -0.3803
 2266TIP3    H228434   2.935   0.126   0.088 -0.6805  1.1940 -1.8685
 2267TIP3   OH228435   3.742   3.464   1.040  0.0981 -0.9667  0.1936
 2267TIP3    H128436   3.819   3.467   1.096 -0.1908 -0.1363  0.5607
 2267TIP3    H228437   3.690   3.392   1.076  0.0064 -0.5699  0.8874
 2268TIP3   OH228438   6.522   0.099   6.479 -0.6506  0.3204 -0.6515
 2268TIP3    H128439   6.595   0.093   6.417 -0.5059  2.0447 -0.6836
 2268TIP3    H228440   6.453   0.045   6.439 -0.4840  1.2025 -2.2163
 2269TIP3   OH228441   1.321   4.424   0.016 -0.0834  0.3684  0.5312
 2269TIP3    H128442   1.227   4.410   0.002  0.1066 -0.2169 -0.2750
 2269TIP3    H228443   1.331   4.518   0.027 -0.7367  0.4678  0.2981
 2270TIP3   OH228444   3.329   4.840   0.516  0.5198 -0.0769 -0.1439
 2270TIP3    H128445   3.264   4.904   0.545  1.6173  0.5954  0.9740
 2270TIP3    H228446   3.389   4.890   0.461  0.9449 -0.3247  0.0863
 2271TIP3   OH228447   2.769   5.569   2.219  0.0720  0.3856  0.7300
 2271TIP3    H128448   2.705   5.555   2.289 -0.9035  1.6710  0.1386
 2271TIP3    H228449   2.852   5.581   2.264 -0.1679 -0.8085  1.5416
 2272TIP3   OH228450   4.073   5.382   7.806  0.0143 -0.1633  0.4455
 2272TIP3    H128451   4.081   5.353   7.715 -1.2321 -0.7588  0.5017
 2272TIP3    H228452   4.160   5.368   7.843  0.4377 -0.2769 -0.5442
 2273TIP3   OH228453   3.748   3.109   0.995  0.0538 -0.1108 -0.4231
 2273TIP3    H128454   3.708   3.182   1.043 -0.2024 -0.9804  0.7169
 2273TIP3    H228455   3.680   3.082   0.932 -0.4623 -0.3894  0.2443
 2274TIP3   OH228456   1.452   0.558   0.724  0.5895 -0.2658 -0.7879
 2274TIP3    H128457   1.385   0.600   0.778  2.0826 -0.1755  1.1300
 2274TIP3    H228458   1.413   0.475   0.697 -0.4497 -0.0369 -0.0600
 2275TIP3   OH228459   3.786   5.532   1.395 -0.2811 -0.6560 -0.3434
 2275TIP3    H128460   3.701   5.564   1.365 -0.9746 -1.9254  0.2005
 2275TIP3    H228461   3.850   5.586   1.348 -1.3656 -0.1971 -1.3403
 2276TIP3   OH228462   5.960   4.574   8.040 -0.1723  0.1475  0.0646
 2276TIP3    H128463   5.866   4.581   8.023 -0.0105  1.7228 -0.3723
 2276TIP3    H228464   5.998   4.648   7.992  1.3279 -0.6655 -0.0448
 2277TIP3   OH228465   3.201   5.618   1.280 -0.2517  0.6412  0.0708
 2277TIP3    H128466   3.183   5.679   1.208  0.6219 -0.4248 -1.0967
 2277TIP3    H228467   3.117   5.574   1.294 -1.2246  2.8432  1.7306
 2278TIP3   OH228468   0.370   1.726   0.214  0.2569  0.1114  0.3765
 2278TIP3    H128469   0.381   1.691   0.303  0.6389 -2.1888 -0.5015
 2278TIP3    H228470   0.277   1.711   0.194  0.1090  0.8685  0.4512
 2279TIP3   OH228471   1.607   5.520   6.609 -0.2907  0.4114  0.5115
 2279TIP3    H128472   1.646   5.437   6.583 -1.6090 -0.7617  2.0933
 2279TIP3    H228473   1.682   5.580   6.619  0.8687 -1.0993  1.1787
 2280TIP3   OH228474   1.887   5.328   8.091 -0.1799  0.4179  0.4916
 2280TIP3    H128475   1.836   5.247   8.100  0.9448 -0.4336 -0.4574
 2280TIP3    H228476   1.942   5.331   8.169  2.5606 -1.8383 -1.1521
 2281TIP3   OH228477   0.482   4.333   1.542  0.0461 -0.1394 -0.2521
 2281TIP3    H128478   0.479   4.239   1.562  0.3004  0.1755  1.3857
 2281TIP3    H228479   0.398   4.366   1.575  0.6012  0.4464  0.6183
 2282TIP3   OH228480   2.401   4.536   7.615  0.2078  0.2334 -0.0821
 2282TIP3    H128481   2.333   4.516   7.552  0.5134  1.5049 -0.8573
 2282TIP3    H228482   2.353   4.571   7.691 -0.0029  2.7059 -1.2420
 2283TIP3   OH228483   3.372   5.379   0.518  0.2585 -0.6344  0.2517
 2283TIP3    H128484   3.358   5.421   0.603  0.1911  0.5421 -0.3124
 2283TIP3    H228485   3.389   5.287   0.538 -2.4086 -0.9531  1.3762
 2284TIP3   OH228486   0.369   4.202   8.582  0.6160 -0.1001 -0.2576
 2284TIP3    H128487   0.441   4.245   8.536  0.3751 -0.2635 -0.7861
 2284TIP3    H228488   0.386   4.220   8.675  0.8424  0.6299 -0.4345
 2285TIP3   OH228489   1.817   0.542   8.534  0.2228 -0.0672 -0.5053
 2285TIP3    H128490   1.911   0.543   8.550  0.1804  2.6202  0.0309
 2285TIP3    H228491   1.808   0.514   8.443  1.7258  1.5623 -1.2241
 2286TIP3   OH228492   2.017   4.815   1.408  0.1328 -0.3773  0.0582
 2286TIP3    H128493   2.105   4.811   1.446  0.1386 -0.7806  0.0150
 2286TIP3    H228494   2.010   4.734   1.356 -0.2806 -0.3710  0.1009
 2287TIP3   OH228495   0.601   5.057   1.975 -0.6422  0.3123  0.5024
 2287TIP3    H128496   0.580   5.130   1.917 -0.4758 -0.6949 -0.8807
 2287TIP3    H228497   0.516   5.025   2.005 -0.7336  0.7996  0.7737
 2288TIP3   OH228498   0.287   6.578   7.215  0.0776  0.4304  0.1369
 2288TIP3    H128499   0.283   6.490   7.254  0.2295  0.5569  0.4377
 2288TIP3    H228500   0.196   6.608   7.216 -0.6902 -1.1714 -3.3415
 2289TIP3   OH228501   6.186   1.136   7.823  0.4785  0.0690  0.0758
 2289TIP3    H128502   6.132   1.212   7.802  1.3562  0.3759 -1.2332
 2289TIP3    H228503   6.125   1.062   7.820 -0.0047  0.4804 -0.7626
 2290TIP3   OH228504   0.780   2.361   0.150  0.0947  0.0290 -0.1756
 2290TIP3    H128505   0.819   2.403   0.073 -0.3168 -1.0766 -1.0094
 2290TIP3    H228506   0.850   2.364   0.216  0.8606 -0.0276 -0.9596
 2291TIP3   OH228507   1.740   0.528   7.309  0.0654 -0.0487 -0.2187
 2291TIP3    H128508   1.739   0.544   7.214 -0.9609 -0.8400 -0.3481
 2291TIP3    H228509   1.678   0.457   7.322 -1.0426  1.1494  1.2616
 2292TIP3   OH228510   2.875   0.267   1.337 -0.5018 -0.2817 -0.4030
 2292TIP3    H128511   2.816   0.281   1.411 -0.3191  1.9947 -0.6072
 2292TIP3    H228512   2.944   0.211   1.371 -1.6896 -1.2870  0.4303
 2293TIP3   OH228513   5.692   0.908   7.106 -0.6174  0.1311  0.1093
 2293TIP3    H128514   5.636   0.923   7.030  0.0422 -0.0021 -0.4097
 2293TIP3    H228515   5.657   0.967   7.173 -0.6106  0.9609 -0.6004
 2294TIP3   OH228516   6.420   2.272   2.111 -0.4370  0.8273  0.1126
 2294TIP3    H128517   6.334   2.305   2.139 -0.1521  0.2646  1.7357
 2294TIP3    H228518   6.474   2.351   2.104 -0.0096  0.8957  3.0771
 2295TIP3   OH228519   2.703   2.253   8.684  0.3554 -0.4641 -0.7042
 2295TIP3    H128520   2.705   2.226   8.592  0.2157 -1.4855 -0.4268
 2295TIP3    H228521   2.640   2.193   8.725 -2.2241  2.1122 -0.5761
 2296TIP3   OH228522   0.071   6.399   7.706  0.5233  0.3259 -0.3331
 2296TIP3    H128523  -0.019   6.414   7.733  0.4202 -1.6661  0.6020
 2296TIP3    H228524   0.110   6.486   7.700 -1.2015  1.1531  0.1357
 2297TIP3   OH228525   2.299   3.809   1.890  0.5452  0.2300  0.7561
 2297TIP3    H128526   2.362   3.777   1.825  1.9391  1.6882  1.3212
 2297TIP3    H228527   2.250   3.731   1.916 -0.5323 -0.3377 -2.4693
 2298TIP3   OH228528   0.105   2.812   0.039 -0.7785  0.2351  0.0556
 2298TIP3    H128529   0.037   2.808  -0.029 -0.1828  0.8283 -0.6013
 2298TIP3    H228530   0.068   2.766   0.113 -0.7199 -2.1929 -1.3099
 2299TIP3   OH228531   5.133   1.860   0.793 -0.4467  0.1505 -0.3115
 2299TIP3    H128532   5.199   1.807   0.839  0.8511 -0.0016 -2.2216
 2299TIP3    H228533   5.168   1.949   0.796  0.5205 -0.1041 -2.3310
 2300TIP3   OH228534   6.694   5.521   0.286 -0.3643  0.1539  0.2730
 2300TIP3    H128535   6.699   5.607   0.326  2.1175  0.2001 -0.0097
 2300TIP3    H228536   6.692   5.539   0.192  1.1157 -0.0681  0.1756
 2301TIP3   OH228537   5.510   4.769   1.525 -0.1938  0.7913  0.2596
 2301TIP3    H128538   5.562   4.699   1.484 -2.3655 -0.6641 -0.1451
 2301TIP3    H228539   5.529   4.760   1.618 -0.3988 -0.3243  0.2131
 2302TIP3   OH228540   5.278   3.592   6.638  0.5041 -0.3091 -0.5580
 2302TIP3    H128541   5.257   3.666   6.694  0.6366 -0.0613 -0.8315
 2302TIP3    H228542   5.195   3.570   6.595  0.1273 -1.2498  0.5998
 2303TIP3   OH228543   1.263   1.678   0.104 -0.1737 -0.0654  0.0258
 2303TIP3    H128544   1.318   1.702   0.179 -0.3545  0.8037 -0.1089
 2303TIP3    H228545   1.175   1.670   0.141 -0.2255  0.1437 -0.0510
 2304TIP3   OH228546   0.898   0.419   1.329  0.2452 -0.4413  0.0732
 2304TIP3    H128547   0.807   0.407   1.358  0.0957 -1.2589 -0.6888
 2304TIP3    H228548   0.890   0.463   1.245  0.6033  0.2815  0.4110
 2305TIP3   OH228549   2.225   2.383   0.633  0.1028 -0.1427  0.1803
 2305TIP3    H128550   2.262   2.357   0.548 -0.3125  0.0691 -0.0686
 2305TIP3    H228551   2.145   2.333   0.641  1.1087 -1.6461  1.3590
 2306TIP3   OH228552   0.438   3.028   7.972 -0.6980  0.6445  0.4078
 2306TIP3    H128553   0.400   3.062   8.053 -1.6977  1.3552 -0.3301
 2306TIP3    H228554   0.363   3.005   7.918 -0.0518  0.4303 -0.4284
 2307TIP3   OH228555   0.776   5.684   1.000 -0.1722 -0.2219  0.6024
 2307TIP3    H128556   0.849   5.693   1.062  0.5452  3.8490 -0.5418
 2307TIP3    H228557   0.819   5.677   0.915 -1.0994  0.6011  0.0541
 2308TIP3   OH228558   4.456   3.342   8.080 -0.4684 -0.0388  0.2927
 2308TIP3    H128559   4.550   3.349   8.098 -0.4540  0.1859  0.1304
 2308TIP3    H228560   4.435   3.250   8.097 -0.9097  0.5531  3.6772
 2309TIP3   OH228561   3.337   2.840   1.648  0.7014  0.1208  0.3717
 2309TIP3    H128562   3.408   2.795   1.694  0.4589 -1.8040 -1.0103
 2309TIP3    H228563   3.260   2.786   1.667  0.5255 -0.4983 -1.9114
 2310TIP3   OH228564   5.515   1.856   7.693 -0.4392  0.2630 -0.6669
 2310TIP3    H128565   5.467   1.862   7.610 -0.8661  1.3417 -0.3565
 2310TIP3    H228566   5.464   1.795   7.746 -0.9478  0.6574 -0.6925
 2311TIP3   OH228567   1.405   6.210   1.093 -0.5605 -0.5627  0.2118
 2311TIP3    H128568   1.315   6.233   1.069 -0.2966  1.2221  0.7745
 2311TIP3    H228569   1.430   6.277   1.157  1.0593 -1.2329  0.3113
 2312TIP3   OH228570   5.867   0.092   7.793 -0.0519 -0.5470 -0.1448
 2312TIP3    H128571   5.863  -0.004   7.789  0.9140 -0.6303  0.6886
 2312TIP3    H228572   5.907   0.118   7.710 -1.1602 -0.7882 -0.7803
 2313TIP3   OH228573   0.295   3.911   2.559 -0.5634  0.6145  0.5414
 2313TIP3    H128574   0.266   3.821   2.572 -0.2535  0.3902 -0.2674
 2313TIP3    H228575   0.390   3.907   2.572 -0.7421  1.1680  2.2615
 2314TIP3   OH228576   1.565   6.293   8.748  0.9262  0.2512 -0.2147
 2314TIP3    H128577   1.565   6.370   8.806  1.9283  0.6272 -0.6801
 2314TIP3    H228578   1.500   6.314   8.681  1.3305  0.7904 -0.4487
 2315TIP3   OH228579   5.068   5.929   8.597  0.5032  0.4189 -0.1135
 2315TIP3    H128580   5.113   5.885   8.669 -0.7948 -1.4114 -0.3476
 2315TIP3    H228581   5.130   5.924   8.524  1.1502  0.7791  0.3948
 2316TIP3   OH228582   2.414   3.954   7.563  0.5973  0.5272  0.2829
 2316TIP3    H128583   2.415   4.044   7.529 -2.1295  2.4617  4.4517
 2316TIP3    H228584   2.363   3.905   7.499  0.8123  2.2907 -1.3483
 2317TIP3   OH228585   0.283   1.169   1.543 -0.0812  0.2828 -0.2266
 2317TIP3    H128586   0.355   1.135   1.597 -0.8693  1.2686  1.5190
 2317TIP3    H228587   0.328   1.219   1.475  0.9566 -1.3726 -0.8336
 2318TIP3   OH228588   5.983   0.807   7.045 -0.4414 -0.4833  0.2077
 2318TIP3    H128589   5.981   0.754   6.965  0.0734 -0.6865  0.3245
 2318TIP3    H228590   5.894   0.839   7.055 -1.0954 -2.4175  0.8569
 2319TIP3   OH228591   3.455   1.204   7.521  0.0235  0.4199 -0.7616
 2319TIP3    H128592   3.378   1.261   7.518 -0.2532  0.0632 -0.5221
 2319TIP3    H228593   3.513   1.244   7.585 -1.1946 -0.8220  1.2386
 2320TIP3   OH228594   1.926   3.938   7.260 -0.0215 -0.0856  0.8889
 2320TIP3    H128595   1.972   4.006   7.308  2.1940  0.3902 -1.6297
 2320TIP3    H228596   1.916   3.974   7.172 -0.4990 -2.2726 -0.0146
 2321TIP3   OH228597   0.399   4.658   0.554  0.1158  0.0724  0.3800
 2321TIP3    H128598   0.479   4.706   0.533  0.8105 -1.1914 -0.0273
 2321TIP3    H228599   0.336   4.685   0.488  0.8706 -0.4556 -0.5943
 2322TIP3   OH228600   1.360   6.095   0.822 -0.4112 -0.4445 -0.0345
 2322TIP3    H128601   1.272   6.099   0.783 -0.8117 -3.7617  0.2166
 2322TIP3    H228602   1.346   6.116   0.914 -0.9331 -0.7843 -0.0295
 2323TIP3   OH228603   0.791   5.202   2.137 -0.2714 -0.1486  0.1345
 2323TIP3    H128604   0.853   5.257   2.088 -0.5925 -0.9300 -1.1972
 2323TIP3    H228605   0.758   5.140   2.072 -1.7989 -0.3069  1.0310
 2324TIP3   OH228606   4.406   2.978   1.803 -0.3965  0.4892  0.5796
 2324TIP3    H128607   4.429   2.982   1.710  2.2438 -2.5231  0.9153
 2324TIP3    H228608   4.312   2.957   1.804 -0.1189 -1.1885 -1.5232
 2325TIP3   OH228609   5.788   4.920   7.381  0.2640  0.0496  0.0036
 2325TIP3    H128610   5.728   4.894   7.450 -0.1793  0.3179 -0.2752
 2325TIP3    H228611   5.802   5.014   7.396  4.3580 -0.7411  2.9802
 2326TIP3   OH228612   3.142   3.914   8.788  0.5532 -0.1880  0.1937
 2326TIP3    H128613   3.133   3.945   8.878 -0.6284 -0.3534  0.1539
 2326TIP3    H228614   3.125   3.820   8.794 -0.3784 -0.0598 -0.3088
 2327TIP3   OH228615   5.442   2.092   0.631  0.0635 -0.3121  0.0612
 2327TIP3    H128616   5.522   2.044   0.608 -0.1445 -0.8460  0.4467
 2327TIP3    H228617   5.460   2.182   0.603 -0.1750 -0.9194 -2.1930
 2328TIP3   OH228618   0.138   6.623   0.049  0.5641 -0.1118  0.5760
 2328TIP3    H128619   0.079   6.677  -0.003  0.3104 -1.0214 -0.1038
 2328TIP3    H228620   0.208   6.599  -0.011 -0.1814 -1.9078  0.3474
 2329TIP3   OH228621   0.998   0.211   2.169 -0.2395  0.0071 -0.5724
 2329TIP3    H128622   0.957   0.175   2.091  0.2363  0.7295 -1.1595
 2329TIP3    H228623   0.927   0.254   2.217 -0.6035 -0.7633 -0.4023
 2330TIP3   OH228624   6.369   3.536   0.991 -0.0797 -0.0735 -0.1918
 2330TIP3    H128625   6.309   3.611   0.994 -0.5604 -0.4555 -0.0830
 2330TIP3    H228626   6.444   3.568   0.942  0.3563  0.9360  1.0731
 2331TIP3   OH228627   0.163   5.194   7.399  0.3072  0.6082 -0.2684
 2331TIP3    H128628   0.178   5.229   7.487  0.2090  0.0750 -0.0347
 2331TIP3    H228629   0.196   5.262   7.340  1.0982  0.6407  0.1912
 2332TIP3   OH228630   1.248   1.531   7.319 -0.5506  0.1095 -0.0352
 2332TIP3    H128631   1.211   1.468   7.381 -0.5425  1.2046  1.1208
 2332TIP3    H228632   1.319   1.484   7.277 -0.4478 -0.6210  0.9204
 2333TIP3   OH228633   0.383   0.495   1.361  0.6131 -0.4948  0.4189
 2333TIP3    H128634   0.433   0.482   1.280 -0.3922  0.1305 -0.3222
 2333TIP3    H228635   0.300   0.451   1.346  0.5423 -0.6809  1.2656
 2334TIP3   OH228636   3.735   2.657   1.134 -0.0348 -0.2893 -0.4044
 2334TIP3    H128637   3.662   2.664   1.073  0.2744 -1.1475 -0.8829
 2334TIP3    H228638   3.765   2.747   1.146 -1.1730  0.0742 -0.1868
 2335TIP3   OH228639   1.421   3.024   7.491  0.5403  0.0971 -0.1418
 2335TIP3    H128640   1.330   2.996   7.496  0.5884  0.0907  1.1602
 2335TIP3    H228641   1.416   3.116   7.466  0.3142 -0.5075 -2.6360
 2336TIP3   OH228642   2.777   2.015   8.926  0.3580  0.1361  0.3290
 2336TIP3    H128643   2.765   1.933   8.973 -1.3330 -0.0960 -0.4168
 2336TIP3    H228644   2.835   1.994   8.854  1.3236  0.0224  1.1188
 2337TIP3   OH228645   5.616   6.614   0.076 -0.4826  0.2154  0.3103
 2337TIP3    H128646   5.566   6.644   0.152 -0.6274  2.3062 -0.5340
 2337TIP3    H228647   5.647   6.695   0.035  1.9126 -0.9265 -0.3472
 2338TIP3   OH228648   4.794   3.018   6.184 -0.1425 -0.5479  0.1183
 2338TIP3    H128649   4.853   3.033   6.110  1.4606 -3.8091  0.5626
 2338TIP3    H228650   4.848   2.973   6.249 -2.3997 -0.9116  1.8628
 2339TIP3   OH228651   1.349   1.200   8.655  0.0076 -0.5689  0.1825
 2339TIP3    H128652   1.325   1.246   8.735 -0.3075 -1.8503  0.8527
 2339TIP3    H228653   1.320   1.258   8.585 -1.5259 -0.2972  0.9904
 2340TIP3   OH228654   5.681   5.482   8.083  0.5965 -0.3041  0.4576
 2340TIP3    H128655   5.678   5.532   8.164  0.3436 -0.6279  0.6491
 2340TIP3    H228656   5.764   5.508   8.042 -0.1736  1.3301 -0.1358
 2341TIP3   OH228657   2.648   6.312   7.965  0.2116  0.1629 -0.0123
 2341TIP3    H128658   2.555   6.289   7.956  0.3198 -0.2665 -0.0512
 2341TIP3    H228659   2.672   6.279   8.051  0.6925 -1.0300 -0.5745
 2342TIP3   OH228660   0.972   0.834   7.869 -0.4379 -0.1248  0.0148
 2342TIP3    H128661   0.910   0.892   7.827  0.2061 -0.8682 -2.0810
 2342TIP3    H228662   1.053   0.885   7.875 -1.1158  0.8331  2.7152
 2343TIP3   OH228663   6.179   1.887   0.499 -0.3149  0.8401  0.0129
 2343TIP3    H128664   6.222   1.907   0.583  1.5116  2.2454 -1.1464
 2343TIP3    H228665   6.200   1.796   0.482 -1.5942  0.2230  1.5318
 2344TIP3   OH228666   4.509   0.802   2.160  0.1267 -0.3668 -0.7857
 2344TIP3    H128667   4.604   0.805   2.168 -0.0298  0.3495  1.2196
 2344TIP3    H228668   4.491   0.717   2.119  1.5907 -0.6170 -0.9606
 2345TIP3   OH228669   4.450   6.165   0.951 -0.1070  0.2315  0.2183
 2345TIP3    H128670   4.371   6.151   0.899 -0.7053  3.2270  0.1472
 2345TIP3    H228671   4.510   6.095   0.924 -1.7334 -0.4826 -1.7446
 2346TIP3   OH228672   3.840   1.791   7.816 -0.1233 -0.1465 -0.1329
 2346TIP3    H128673   3.821   1.698   7.803  0.6650 -0.1948 -1.0600
 2346TIP3    H228674   3.761   1.826   7.857 -0.8640 -1.0034 -0.7812
 2347TIP3   OH228675   6.339   6.054   0.136  0.1290 -0.1540  0.3875
 2347TIP3    H128676   6.371   6.142   0.117 -0.9061 -0.3795 -3.1208
 2347TIP3    H228677   6.414   6.007   0.173  1.2528  1.6231  0.4256
 2348TIP3   OH228678   3.283   1.068   8.728 -0.3844  0.1403 -0.1166
 2348TIP3    H128679   3.247   1.148   8.688  0.0806  0.1845 -0.4537
 2348TIP3    H228680   3.355   1.099   8.783 -0.2277 -0.0417 -0.2188
 2349TIP3   OH228681   4.785   5.944   7.378  0.5106 -0.3071  0.1250
 2349TIP3    H128682   4.697   5.982   7.373  0.9822  0.7702 -0.5438
 2349TIP3    H228683   4.776   5.857   7.339 -0.2559 -0.1919  0.0273
 2350TIP3   OH228684   4.121   1.344   0.874  0.9082  0.1781 -0.1115
 2350TIP3    H128685   4.149   1.253   0.864 -1.8780 -0.7629 -0.3492
 2350TIP3    H228686   4.058   1.341   0.946  0.9326  1.9690  0.0074
 2351TIP3   OH228687   0.119   0.578   2.293 -0.3620  0.6649  0.2092
 2351TIP3    H128688   0.083   0.565   2.381  2.1116 -1.0618  1.0641
 2351TIP3    H228689   0.051   0.545   2.234 -0.7002 -1.4977  1.6847
 2352TIP3   OH228690   2.104   2.041   1.250 -0.8595  0.9136 -0.2485
 2352TIP3    H128691   2.109   1.975   1.319 -0.4672  0.4059 -0.7621
 2352TIP3    H228692   2.137   2.121   1.292 -1.3502  0.7995  0.3765
 2353TIP3   OH228693   4.331   5.615   6.384 -0.2349 -0.0681  0.6429
 2353TIP3    H128694   4.299   5.655   6.464  0.0047  1.0837  0.1854
 2353TIP3    H228695   4.254   5.605   6.328 -0.5421 -1.6116  1.2882
 2354TIP3   OH228696   3.568   2.032   0.276 -0.3385 -0.1597 -0.0037
 2354TIP3    H128697   3.578   2.027   0.371 -0.2059 -0.7729 -0.0473
 2354TIP3    H228698   3.638   2.091   0.247 -1.7583  1.8763  0.4979
 2355TIP3   OH228699   2.630   4.550   0.195  0.0702  0.0302 -0.1772
 2355TIP3    H128700   2.592   4.635   0.218  0.9207  0.1354  0.9297
 2355TIP3    H228701   2.623   4.499   0.276  0.4170 -0.6447 -0.5681
 2356TIP3   OH228702   3.942   4.033   0.417  0.2240  0.1572 -0.0508
 2356TIP3    H128703   3.906   4.007   0.502 -1.5402 -0.1261 -0.8441
 2356TIP3    H228704   3.978   4.121   0.433  0.0406  0.0546  1.0139
 2357TIP3   OH228705   6.225   4.845   0.192  0.4851  0.0247 -0.2662
 2357TIP3    H128706   6.271   4.902   0.254  1.5328 -0.4276 -0.6092
 2357TIP3    H228707   6.229   4.758   0.231 -0.2780  0.0100 -0.2034
 2358TIP3   OH228708   1.035   4.703   8.168 -0.1854 -0.4535 -0.1945
 2358TIP3    H128709   0.985   4.640   8.220 -1.9109  1.2429  0.3240
 2358TIP3    H228710   1.056   4.773   8.230  1.0121 -0.1393 -0.9286
 2359TIP3   OH228711   0.869   6.514   7.389  0.2476  0.6529 -0.3183
 2359TIP3    H128712   0.908   6.429   7.408  3.4918  2.0896  0.1278
 2359TIP3    H228713   0.826   6.539   7.471  0.3706 -0.0374 -0.0391
 2360TIP3   OH228714   2.117   3.249   1.080  0.2755  0.6638  0.5647
 2360TIP3    H128715   2.100   3.211   1.166 -0.3364  0.1282  0.2174
 2360TIP3    H228716   2.030   3.260   1.042  0.5179  1.2929  0.1802
 2361TIP3   OH228717   4.279   1.989   8.001 -0.4154 -0.1259 -0.1301
 2361TIP3    H128718   4.312   1.902   8.022 -2.0467 -0.6436  0.5230
 2361TIP3    H228719   4.352   2.048   8.017  0.9874 -1.4399 -1.3949
 2362TIP3   OH228720   3.327   2.727   6.889 -0.6582  0.5976 -0.4048
 2362TIP3    H128721   3.415   2.692   6.876 -0.8178  0.3705 -0.9063
 2362TIP3    H228722   3.271   2.672   6.834 -1.2946 -0.0453  0.8346
 2363TIP3   OH228723   1.543   6.061   8.378 -0.3168 -0.4634 -0.4611
 2363TIP3    H128724   1.527   6.007   8.455 -0.1268 -1.4298 -1.0791
 2363TIP3    H228725   1.457   6.068   8.336 -1.2088  2.8816  1.5352
 2364TIP3   OH228726   2.599   5.474   7.769  0.5130 -0.5798  0.0579
 2364TIP3    H128727   2.671   5.413   7.787  1.9975  0.6306 -1.4012
 2364TIP3    H228728   2.586   5.468   7.674 -0.7147 -0.0987  0.1806
 2365TIP3   OH228729   2.621   4.511   7.451  0.3073  0.6401 -0.0142
 2365TIP3    H128730   2.557   4.518   7.522 -0.4564  0.2536 -0.6443
 2365TIP3    H228731   2.701   4.550   7.486 -0.3824  1.4904  0.6633
 2366TIP3   OH228732   2.937   3.067   0.690 -0.6158  0.3635 -0.2696
 2366TIP3    H128733   3.003   3.123   0.733 -0.7479  0.7469 -0.5575
 2366TIP3    H228734   2.854   3.095   0.729 -0.7213  0.6225 -0.6775
 2367TIP3   OH228735   3.614   0.474   8.146  0.1607  0.0709 -0.5268
 2367TIP3    H128736   3.648   0.386   8.161 -0.3773  0.0265  0.4484
 2367TIP3    H228737   3.684   0.517   8.096  0.6468 -0.7432 -0.5732
 2368TIP3   OH228738   2.776   5.314   1.336 -0.0902 -0.1088 -0.1702
 2368TIP3    H128739   2.775   5.237   1.394 -3.0064 -1.9525 -2.3294
 2368TIP3    H228740   2.723   5.379   1.382  2.1818  0.6243  1.5638
 2369TIP3   OH228741   2.012   5.682   8.088 -0.2883 -0.0086  0.4420
 2369TIP3    H128742   2.106   5.698   8.075  0.0797 -2.0010  0.3474
 2369TIP3    H228743   1.981   5.649   8.003 -0.9669  0.2012  0.6042
 2370TIP3   OH228744   0.963   4.194   6.501 -0.1827  0.3302 -0.3529
 2370TIP3    H128745   1.019   4.189   6.578  0.4732 -1.4252 -0.9067
 2370TIP3    H228746   1.010   4.253   6.441 -0.6293  1.5889  0.4960
 2371TIP3   OH228747   2.598   2.137   0.830 -0.7034  0.3531 -0.0596
 2371TIP3    H128748   2.524   2.168   0.882  0.7243  0.1168  2.2871
 2371TIP3    H228749   2.651   2.086   0.892  1.5898  0.8066 -1.5232
 2372TIP3   OH228750   1.097   4.579   2.251 -0.2229  0.4086  0.3568
 2372TIP3    H128751   1.117   4.573   2.344  1.1094  0.2605  0.0820
 2372TIP3    H228752   1.136   4.662   2.223 -1.4616  0.9342  0.1116
 2373TIP3   OH228753   3.477   1.220   1.732  0.1737  0.1475 -0.5695
 2373TIP3    H128754   3.482   1.310   1.699  0.4049  0.9776  1.5883
 2373TIP3    H228755   3.385   1.206   1.751  0.2483  0.2589 -0.1011
 2374TIP3   OH228756   5.713   4.173   6.569  0.1007  0.8579 -0.2311
 2374TIP3    H128757   5.758   4.204   6.491 -0.3077  1.4221 -0.2512
 2374TIP3    H228758   5.728   4.079   6.570 -2.3861  0.3103 -2.6665
 2375TIP3   OH228759   0.069   6.693   0.505 -0.3454 -0.4791 -0.2105
 2375TIP3    H128760   0.112   6.726   0.426  0.0689 -0.2883  0.0929
 2375TIP3    H228761   0.080   6.598   0.500  1.3953 -0.3562  0.5799
 2376TIP3   OH228762   1.240   3.225   1.953  0.0404  0.2821  0.3458
 2376TIP3    H128763   1.246   3.140   1.997  1.0281  0.1133 -0.0818
 2376TIP3    H228764   1.321   3.231   1.902  0.5883  2.0076  1.3311
 2377TIP3   OH228765   4.911   6.065   0.946 -0.0511 -0.0338 -0.2319
 2377TIP3    H128766   4.905   6.153   0.910 -0.0969  0.5458  1.1405
 2377TIP3    H228767   4.883   6.074   1.037 -2.2519 -1.8813 -0.6395
 2378TIP3   OH228768   1.234   3.811   7.999  0.2097  0.2255 -0.2439
 2378TIP3    H128769   1.276   3.738   8.046 -0.3675  0.8713  1.3241
 2378TIP3    H228770   1.213   3.774   7.913  0.8369 -1.1551  0.1594
 2379TIP3   OH228771   5.113   1.409   0.342  0.5642  0.5922 -0.1564
 2379TIP3    H128772   5.105   1.378   0.432  0.6219  0.7373 -0.1005
 2379TIP3    H228773   5.092   1.503   0.347  0.4824  0.5819 -0.3076
 2380TIP3   OH228774   4.820   4.343   7.058  0.2186  0.3734  0.2500
 2380TIP3    H128775   4.793   4.332   7.149  0.9093 -0.7804  0.3376
 2380TIP3    H228776   4.779   4.271   7.012  0.3857  0.5865 -0.2426
 2381TIP3   OH228777   3.954   0.127   7.449  0.1260 -0.5007 -0.2680
 2381TIP3    H128778   4.035   0.175   7.436  0.0319 -0.6845 -1.7119
 2381TIP3    H228779   3.923   0.155   7.535  1.9598 -0.8125  0.5429
 2382TIP3   OH228780   1.639   3.502   1.609 -0.3128  0.2558 -0.5934
 2382TIP3    H128781   1.734   3.500   1.601 -0.1513 -1.1001  1.1226
 2382TIP3    H228782   1.620   3.451   1.688 -2.6087 -1.2483 -1.9931
 2383TIP3   OH228783   1.556   2.736   1.240 -0.1861  0.2009 -0.4435
 2383TIP3    H128784   1.499   2.813   1.237 -0.4712 -0.0424 -2.1416
 2383TIP3    H228785   1.630   2.759   1.184  0.0573 -0.5074 -0.4195
 2384TIP3   OH228786   4.142   1.817   8.881 -0.0185 -0.2247  0.4801
 2384TIP3    H128787   4.190   1.824   8.964  0.9878 -0.6494 -0.0591
 2384TIP3    H228788   4.064   1.766   8.903  0.6561 -1.0576  0.9958
 2385TIP3   OH228789   2.848   4.624   8.572  0.1826 -0.2101  0.1609
 2385TIP3    H128790   2.889   4.574   8.642  2.0628  0.5164 -0.3681
 2385TIP3    H228791   2.755   4.599   8.576  0.5577 -1.5227  1.7320
 2386TIP3   OH228792   3.897   1.669   8.874  0.2490  0.7643 -0.9307
 2386TIP3    H128793   3.814   1.665   8.921  1.3803 -0.9880  1.0832
 2386TIP3    H228794   3.878   1.631   8.788 -1.0542  0.4909 -0.5377
 2387TIP3   OH228795   4.908   2.934   1.863 -0.2964  0.2012  0.1072
 2387TIP3    H128796   4.913   2.879   1.942  0.7087 -1.0396 -0.7727
 2387TIP3    H228797   4.972   2.896   1.804  0.1240  2.0984 -0.7278
 2388TIP3   OH228798   0.847   6.297   7.602 -0.4710 -0.0581  0.0805
 2388TIP3    H128799   0.837   6.382   7.645 -0.8296 -0.3226  0.5184
 2388TIP3    H228800   0.934   6.302   7.562 -0.6782  0.6928 -0.3028
 2389TIP3   OH228801   3.834   5.857   1.962  0.3532  0.2406  0.4384
 2389TIP3    H128802   3.916   5.809   1.954 -0.5055 -1.1650 -0.1152
 2389TIP3    H228803   3.769   5.791   1.983 -0.6521  1.3441  0.9120
 2390TIP3   OH228804   3.869   2.652   8.926 -0.6787  0.1895 -0.0055
 2390TIP3    H128805   3.790   2.677   8.878 -1.4803  0.9047  1.6032
 2390TIP3    H228806   3.926   2.728   8.920 -0.5043  0.0320 -0.3654
 2391TIP3   OH228807   2.437   0.152   8.286  0.0642  0.5146 -0.1736
 2391TIP3    H128808   2.376   0.226   8.278 -0.2413  0.1973 -0.9257
 2391TIP3    H228809   2.398   0.096   8.353  1.0590  1.7346  1.4941
 2392TIP3   OH228810   2.872   1.578   7.437 -0.0456  0.1626  0.2938
 2392TIP3    H128811   2.805   1.572   7.368  1.2879 -1.2436 -0.9520
 2392TIP3    H228812   2.831   1.536   7.513 -1.7221  2.1686  0.5913
 2393TIP3   OH228813   2.297   0.415   1.558  0.2722 -0.1046  0.2230
 2393TIP3    H128814   2.273   0.352   1.490 -2.1358  0.5297  0.4031
 2393TIP3    H228815   2.337   0.362   1.627 -1.7639 -1.4969  0.4197
 2394TIP3   OH228816   4.472   1.712   0.884  0.4898  0.3576  0.1593
 2394TIP3    H128817   4.408   1.779   0.909  0.2627 -0.3912  1.7257
 2394TIP3    H228818   4.421   1.646   0.837 -0.1677 -0.6661  2.1433
 2395TIP3   OH228819   1.550   4.400   1.895  0.3796  0.1420  0.3161
 2395TIP3    H128820   1.500   4.410   1.976  1.0389 -0.3438  0.7861
 2395TIP3    H228821   1.641   4.392   1.923  0.7983  1.4617 -0.5593
 2396TIP3   OH228822   4.373   3.336   6.147  0.0110 -0.3776 -0.4312
 2396TIP3    H128823   4.456   3.379   6.166  0.4402 -1.4916  0.3490
 2396TIP3    H228824   4.397   3.247   6.121 -0.9659 -1.3988  1.7868
 2397TIP3   OH228825   4.959   3.633   1.030 -0.1742  0.1216 -0.3091
 2397TIP3    H128826   4.887   3.571   1.043  0.2133 -0.0537  1.3089
 2397TIP3    H228827   4.996   3.645   1.118  1.8392  0.1271 -1.0966
 2398TIP3   OH228828   5.369   3.104   2.132  0.2094 -0.4034 -0.2502
 2398TIP3    H128829   5.327   3.160   2.197  0.5311 -1.4648  0.9142
 2398TIP3    H228830   5.317   3.024   2.132  1.2868 -1.1253  0.0656
 2399TIP3   OH228831   1.286   4.946   7.937  0.1730 -0.3944 -0.0002
 2399TIP3    H128832   1.260   5.038   7.946  0.3322 -0.1818 -1.3878
 2399TIP3    H228833   1.361   4.936   7.996  0.3068  0.4335 -0.0175
 2400TIP3   OH228834   0.747   6.326   1.426  0.5074  0.5477 -0.2238
 2400TIP3    H128835   0.660   6.358   1.404  0.1223 -1.3207 -1.6792
 2400TIP3    H228836   0.738   6.230   1.429  2.6956  0.2204 -1.4633
 2401TIP3   OH228837   2.450   4.717   0.311  0.6264 -0.0310  0.2152
 2401TIP3    H128838   2.498   4.783   0.361 -1.0434  1.2154  0.2590
 2401TIP3    H228839   2.359   4.731   0.336 -0.0196 -0.7640 -1.6148
 2402TIP3   OH228840   4.870   4.222   0.633 -0.3602  0.0443 -0.1512
 2402TIP3    H128841   4.869   4.315   0.659 -1.3950 -0.4656  1.8682
 2402TIP3    H228842   4.779   4.203   0.610 -0.0106 -0.3163 -1.3263
 2403TIP3   OH228843   5.482   4.712   1.805 -0.1141 -0.0008 -0.2512
 2403TIP3    H128844   5.508   4.779   1.869 -1.4019  1.0081 -0.7322
 2403TIP3    H228845   5.428   4.651   1.855 -1.3027  0.9057 -0.3723
 2404TIP3   OH228846   0.189   3.946   7.232  0.1093  0.0879  0.1672
 2404TIP3    H128847   0.164   3.975   7.144 -0.1784 -0.1270  0.1804
 2404TIP3    H228848   0.231   4.023   7.271  1.0847 -0.1009 -0.4901
 2405TIP3   OH228849   1.422   1.365   8.927 -0.6351 -0.4758 -0.0629
 2405TIP3    H128850   1.481   1.380   9.001 -0.1844  0.0698 -0.5217
 2405TIP3    H228851   1.392   1.275   8.938 -1.2431 -0.1472  1.2532
 2406TIP3   OH228852   2.508   6.273   0.233  0.0514  0.2475 -0.3513
 2406TIP3    H128853   2.550   6.205   0.181 -0.6047 -0.2898 -0.1992
 2406TIP3    H228854   2.416   6.271   0.206  0.0236  1.0768 -0.3453
 2407TIP3   OH228855   6.040   5.498   1.059  0.0836  0.3540  0.7048
 2407TIP3    H128856   6.093   5.554   1.001  1.0757 -1.5145 -0.2955
 2407TIP3    H228857   6.033   5.548   1.140  1.9135  1.4424  0.2720
 2408TIP3   OH228858   1.193   5.545   0.465  0.9007  0.8103  0.0043
 2408TIP3    H128859   1.102   5.524   0.489  1.2589  1.0197  1.6435
 2408TIP3    H228860   1.224   5.468   0.418  0.6047 -0.2931  1.5226
 2409TIP3   OH228861   6.349   4.352   7.893  0.2603  0.5976  0.5386
 2409TIP3    H128862   6.358   4.295   7.969  0.0005 -0.7364 -0.3910
 2409TIP3    H228863   6.262   4.333   7.859  0.3090  1.2963  0.0011
 2410TIP3   OH228864   4.846   4.634   1.437 -0.0654  0.2108  0.2941
 2410TIP3    H128865   4.834   4.540   1.448 -2.2910  0.6384  2.2746
 2410TIP3    H228866   4.830   4.650   1.344 -0.2894 -1.2735  0.0628
 2411TIP3   OH228867   1.411   5.637   8.925  0.2792  0.2923 -0.0826
 2411TIP3    H128868   1.351   5.633   8.850 -1.9634 -2.2893  1.6845
 2411TIP3    H228869   1.439   5.547   8.939 -0.7240  0.3721  3.1521
 2412TIP3   OH228870   4.736   0.581   1.632 -0.4089  0.3574  0.0384
 2412TIP3    H128871   4.658   0.610   1.680  0.7602  1.3112  1.4738
 2412TIP3    H228872   4.809   0.614   1.684  1.0008 -1.9973 -0.2908
 2413TIP3   OH228873   6.441   3.939   7.436 -0.2482  0.1619 -0.1817
 2413TIP3    H128874   6.494   3.876   7.387 -1.6214 -0.4175 -0.9774
 2413TIP3    H228875   6.448   4.020   7.387  1.9505  0.8455  1.1283
 2414TIP3   OH228876   5.563   4.500   1.438  0.5484 -0.1438 -0.0357
 2414TIP3    H128877   5.522   4.441   1.502  0.7021 -1.1066 -0.8063
 2414TIP3    H228878   5.656   4.499   1.461  0.4055  0.6353  0.6030
 2415TIP3   OH228879   4.767   2.929   6.696 -0.2396  0.3193 -0.1994
 2415TIP3    H128880   4.789   2.922   6.789  0.6524  0.6309 -0.3771
 2415TIP3    H228881   4.796   3.016   6.670 -1.0211  0.4635 -0.6416
 2416TIP3   OH228882   5.161   6.254   7.761 -0.5139 -0.0836 -0.1242
 2416TIP3    H128883   5.149   6.214   7.847 -0.4454  1.6317  0.7379
 2416TIP3    H228884   5.181   6.346   7.780  0.7868  0.0661 -1.9383
 2417TIP3   OH228885   6.660   1.821   1.941  0.2453 -0.3585  0.0214
 2417TIP3    H128886   6.627   1.908   1.965  1.8746  0.2114  0.3548
 2417TIP3    H228887   6.745   1.839   1.900 -0.0467 -1.7115 -1.2359
 2418TIP3   OH228888   4.486   1.995   6.148 -0.0061 -0.0897 -0.5172
 2418TIP3    H128889   4.434   1.988   6.229  0.2680 -0.1532 -0.3454
 2418TIP3    H228890   4.564   2.044   6.174  0.9849 -1.7049 -0.2845
 2419TIP3   OH228891   3.865   0.519   8.886 -0.2350 -0.2136  0.1156
 2419TIP3    H128892   3.912   0.494   8.806 -0.1558 -1.8063  0.6306
 2419TIP3    H228893   3.784   0.467   8.884 -1.1292  1.1196  0.1651
 2420TIP3   OH228894   2.812   1.401   8.358 -0.1564 -0.0028  0.5529
 2420TIP3    H128895   2.739   1.345   8.333  0.4636 -0.9022  0.7003
 2420TIP3    H228896   2.772   1.486   8.379 -1.0440 -0.2272 -0.2056
 2421TIP3   OH228897   1.432   3.291   7.415 -0.6750 -0.4554  0.4689
 2421TIP3    H128898   1.510   3.280   7.361 -0.3768 -0.9397  0.9831
 2421TIP3    H228899   1.439   3.381   7.450 -1.8989  0.6244 -1.8505
 2422TIP3   OH228900   5.462   5.973   0.382  0.0646  0.1731  0.0978
 2422TIP3    H128901   5.497   5.928   0.305  0.3287 -0.1762  0.4180
 2422TIP3    H228902   5.379   5.929   0.399  0.0233  0.2267  0.0378
 2423TIP3   OH228903   6.220   5.685   2.305 -0.6519 -0.1634  0.0410
 2423TIP3    H128904   6.143   5.737   2.329  0.7793  2.0748  0.1166
 2423TIP3    H228905   6.281   5.696   2.379  0.2135 -0.8660 -0.5418
 2424TIP3   OH228906   3.994   0.394   1.170 -0.2059  0.3438  0.1615
 2424TIP3    H128907   3.983   0.489   1.169  0.5044  0.4527  1.5395
 2424TIP3    H228908   4.000   0.371   1.262 -1.4309 -1.1860 -0.0947
 2425TIP3   OH228909   6.361   6.735   8.156  0.1716 -0.2049 -0.1053
 2425TIP3    H128910   6.344   6.685   8.076 -0.3356 -3.6543  1.9423
 2425TIP3    H228911   6.408   6.674   8.213  0.6537  2.1338  2.2362
 2426TIP3   OH228912   3.233   1.525   7.990  0.3641 -0.4227  0.2036
 2426TIP3    H128913   3.140   1.503   8.001  0.0841  0.3374 -0.5825
 2426TIP3    H228914   3.245   1.535   7.896  0.7346  1.6283  0.4170
 2427TIP3   OH228915   1.384   4.251   1.426  0.5914 -0.2117 -0.3812
 2427TIP3    H128916   1.375   4.251   1.521 -0.0962 -0.5262 -0.4402
 2427TIP3    H228917   1.454   4.188   1.408 -2.0817 -3.4498 -0.2940
 2428TIP3   OH228918   4.816   3.879   0.548 -0.1744 -0.0956 -0.3337
 2428TIP3    H128919   4.857   3.859   0.632 -0.4590  0.1056 -0.1453
 2428TIP3    H228920   4.829   3.800   0.496  0.2999 -0.0981 -0.2178
 2429TIP3   OH228921   2.790   4.212   1.391 -0.4679  0.0733 -0.1187
 2429TIP3    H128922   2.749   4.281   1.442  0.5266  1.0564 -0.6302
 2429TIP3    H228923   2.809   4.252   1.306  1.8381 -0.2146  0.1874
 2430TIP3   OH228924   0.468   3.603   7.964  0.0838 -0.0375  0.0277
 2430TIP3    H128925   0.514   3.684   7.985 -0.1325 -0.1266  0.8993
 2430TIP3    H228926   0.403   3.628   7.899  1.7942 -0.0352 -1.7711
 2431TIP3   OH228927   4.369   3.095   1.445 -0.2014  0.4486 -0.8440
 2431TIP3    H128928   4.320   3.060   1.372  1.4153  0.4978 -2.0175
 2431TIP3    H228929   4.426   3.023   1.473 -0.3670  0.6218 -0.0362
 2432TIP3   OH228930   0.989   6.362   0.581  0.3545  0.2639 -0.3469
 2432TIP3    H128931   1.049   6.307   0.630  2.0640  0.6339 -1.9288
 2432TIP3    H228932   0.931   6.299   0.536  1.0074 -0.1768 -0.5810
 2433TIP3   OH228933   4.106   0.529   8.546  0.4266 -0.3339  0.4124
 2433TIP3    H128934   4.094   0.620   8.521 -0.4161 -0.5409  0.0383
 2433TIP3    H228935   4.201   0.521   8.560  0.3015  1.1101  2.5508
 2434TIP3   OH228936   1.440   0.032   2.020 -0.5011 -0.4602 -0.1743
 2434TIP3    H128937   1.515  -0.025   2.000  1.6134  1.9065  0.4821
 2434TIP3    H228938   1.450   0.106   1.960 -0.3691  1.4728  2.1084
 2435TIP3   OH228939   1.252   2.661   0.573  0.1184  0.5965 -0.0833
 2435TIP3    H128940   1.229   2.574   0.606  0.4669  0.1433 -0.9820
 2435TIP3    H228941   1.172   2.691   0.528  1.0305 -0.8532 -2.9485
 2436TIP3   OH228942   3.356   4.374   2.395 -0.1796 -0.5565  0.4624
 2436TIP3    H128943   3.311   4.300   2.436 -1.1119  1.2112  2.9176
 2436TIP3    H228944   3.448   4.350   2.395 -0.1355 -0.8178  3.5741
 2437TIP3   OH228945   6.032   0.537   0.855 -1.0528  0.1297  0.6629
 2437TIP3    H128946   6.057   0.445   0.860  0.1342  0.5049  2.8721
 2437TIP3    H228947   6.075   0.568   0.775  0.0215 -0.8307  0.8313
 2438TIP3   OH228948   4.695   5.948   1.377  0.8496  0.0232  0.2909
 2438TIP3    H128949   4.615   5.904   1.406  0.9552 -0.0013  0.5454
 2438TIP3    H228950   4.728   5.992   1.455  0.9482  0.2435  0.1272
 2439TIP3   OH228951   2.012   2.744   2.145 -0.2039 -0.0818 -0.6495
 2439TIP3    H128952   2.022   2.699   2.061 -2.7415 -1.4447 -0.3238
 2439TIP3    H228953   1.951   2.689   2.194  0.4223  1.2059  1.7230
 2440TIP3   OH228954   0.927   6.426   7.012  0.2408 -0.0381  0.2867
 2440TIP3    H128955   0.834   6.407   7.027 -0.0758  0.1648 -1.2928
 2440TIP3    H228956   0.941   6.406   6.920  1.4186  1.3181  0.1341
 2441TIP3   OH228957   1.419   2.787   8.579  0.0530 -0.2761  0.3907
 2441TIP3    H128958   1.354   2.718   8.564 -0.8874  0.1073  2.3350
 2441TIP3    H228959   1.391   2.828   8.661  3.3466 -0.8049  1.9512
 2442TIP3   OH228960   4.318   2.365   8.790  0.6455 -0.1846 -0.0402
 2442TIP3    H128961   4.357   2.452   8.791  0.8594 -0.2789  0.5524
 2442TIP3    H228962   4.360   2.319   8.863 -0.8104 -0.1855  0.8415
 2443TIP3   OH228963   5.214   2.528   7.270  0.4952 -0.9003  0.0942
 2443TIP3    H128964   5.130   2.486   7.250  0.6575 -1.0953 -0.1866
 2443TIP3    H228965   5.266   2.517   7.191  0.3343  0.3712 -0.2099
 2444TIP3   OH228966   1.675   2.974   7.740 -0.3201 -0.3185  0.5822
 2444TIP3    H128967   1.668   2.899   7.798  1.2998 -1.7776 -0.9706
 2444TIP3    H228968   1.752   3.022   7.771 -0.5530 -0.0572  0.7575
 2445TIP3   OH228969   0.652   2.966   1.753  0.0037  0.4947  0.3813
 2445TIP3    H128970   0.575   3.004   1.711 -0.1946 -1.1886 -0.8392
 2445TIP3    H228971   0.637   2.980   1.847 -2.2114 -0.5357  0.2390
 2446TIP3   OH228972   2.636   0.326   8.244 -0.4428  0.7253  0.3512
 2446TIP3    H128973   2.656   0.316   8.151  0.9944  0.7331  0.6352
 2446TIP3    H228974   2.566   0.263   8.261 -0.1539  0.1519 -0.5570
 2447TIP3   OH228975   4.247   4.835   1.628 -0.5177 -0.1899 -0.7441
 2447TIP3    H128976   4.199   4.769   1.579 -0.9126 -0.6656  0.2501
 2447TIP3    H228977   4.339   4.813   1.616 -0.6384 -0.7211 -0.7044
 2448TIP3   OH228978   4.309   1.753   0.097 -0.0889 -0.2488  0.1673
 2448TIP3    H128979   4.400   1.723   0.107  0.1904  0.7986  1.0102
 2448TIP3    H228980   4.259   1.702   0.160  0.1438  0.0613  0.6076
 2449TIP3   OH228981   6.767   2.118   0.818  0.2617  0.8522 -0.6625
 2449TIP3    H128982   6.758   2.150   0.728 -1.0033  4.2022  0.5087
 2449TIP3    H228983   6.794   2.194   0.868 -1.7886 -0.1514  2.2482
 2450TIP3   OH228984   4.812   3.232   1.070 -0.2902  0.2212 -0.0362
 2450TIP3    H128985   4.740   3.173   1.051  1.6381 -1.7592 -1.7677
 2450TIP3    H228986   4.843   3.260   0.984  1.7413  0.0302  0.5897
 2451TIP3   OH228987   5.336   6.060   0.802 -0.0810  0.3336  0.5221
 2451TIP3    H128988   5.381   6.017   0.729  0.0778 -1.1133  1.4348
 2451TIP3    H228989   5.395   6.131   0.828  0.3649  0.1856 -0.0700
 2452TIP3   OH228990   5.392   4.766   8.732 -0.7907  0.2514 -0.5959
 2452TIP3    H128991   5.386   4.753   8.637  1.9518  0.0894 -0.8382
 2452TIP3    H228992   5.355   4.687   8.770 -0.0641 -0.5967 -1.6063
 2453TIP3   OH228993   6.595   5.899   1.158 -0.0685  0.5996  1.0850
 2453TIP3    H128994   6.652   5.894   1.234  0.3877  1.8068  0.8426
 2453TIP3    H228995   6.520   5.844   1.181  0.7705 -0.3185  1.7540
 2454TIP3   OH228996   4.078   4.356   8.590 -0.0719 -0.0137  0.0111
 2454TIP3    H128997   4.043   4.279   8.635 -1.7323 -0.2851 -1.6375
 2454TIP3    H228998   4.036   4.430   8.634  1.1302 -0.0470  1.2614
 2455TIP3   OH228999   6.588   5.255   6.579 -0.3917  0.1847 -0.0881
 2455TIP3    H129000   6.513   5.310   6.555 -1.1229 -1.1884 -1.1860
 2455TIP3    H229001   6.664   5.312   6.571 -1.2982  1.5980  0.9619
 2456TIP3   OH229002   0.588   5.396   8.075  0.4239  0.5949 -0.5532
 2456TIP3    H129003   0.553   5.321   8.122  1.2762  0.3884 -0.2357
 2456TIP3    H229004   0.676   5.370   8.049  0.3370  1.0847 -1.3878
 2457TIP3   OH229005   2.776   4.231   8.046  0.2276  0.6582  0.3042
 2457TIP3    H129006   2.857   4.194   8.011 -0.0033  0.7622 -0.3628
 2457TIP3    H229007   2.718   4.238   7.969 -0.6276  0.0020  0.8655
 2458TIP3   OH229008   4.776   2.326   0.716 -0.4329  0.3429  0.1357
 2458TIP3    H129009   4.682   2.328   0.698 -0.2506  1.4775 -0.7758
 2458TIP3    H229010   4.786   2.255   0.780 -1.6859 -0.8942 -0.9677
 2459TIP3   OH229011   6.039   0.489   8.468 -0.0857  0.0452 -0.0379
 2459TIP3    H129012   6.075   0.401   8.457 -0.8006 -0.2331 -0.2142
 2459TIP3    H229013   6.044   0.528   8.380 -2.1941 -0.7826 -0.5949
 2460TIP3   OH229014   1.827   0.827   8.363  0.3303 -0.4820 -0.1078
 2460TIP3    H129015   1.880   0.761   8.407 -1.7280 -1.4092  1.1654
 2460TIP3    H229016   1.737   0.805   8.386 -0.5237  2.2258 -0.4218
 2461TIP3   OH229017   3.233   6.691   1.117 -0.3740 -0.3265  0.1897
 2461TIP3    H129018   3.289   6.766   1.100 -0.2607 -0.4090  0.1956
 2461TIP3    H229019   3.145   6.727   1.119 -0.6803 -0.6106 -2.8017
 2462TIP3   OH229020   2.831   1.237   0.707 -0.3959 -0.0945  0.0370
 2462TIP3    H129021   2.924   1.262   0.706 -0.7153  1.1255  0.0937
 2462TIP3    H229022   2.821   1.180   0.630  0.2114  0.4817 -0.4847
 2463TIP3   OH229023   6.513   3.606   8.871 -0.1061  0.0211  0.0736
 2463TIP3    H129024   6.597   3.561   8.884  0.1578 -0.2403 -2.1340
 2463TIP3    H229025   6.511   3.627   8.778 -1.4484  2.2208  0.5256
 2464TIP3   OH229026   4.119   3.192   8.956 -0.2889 -0.2963  0.3815
 2464TIP3    H129027   4.027   3.167   8.945 -0.1717  0.1250 -2.0844
 2464TIP3    H229028   4.116   3.282   8.986 -0.6740 -0.3439  0.4926
 2465TIP3   OH229029   1.733   5.638   6.843 -0.2736  0.1348  0.2167
 2465TIP3    H129030   1.786   5.593   6.909 -0.9347 -1.2882 -0.1888
 2465TIP3    H229031   1.794   5.698   6.801  0.8950 -1.0326  0.1716
 2466TIP3   OH229032   1.060   1.990   0.748  0.7173  0.0431  0.2491
 2466TIP3    H129033   1.152   1.966   0.750  0.5415 -0.6346  0.3737
 2466TIP3    H229034   1.015   1.911   0.717  0.4129  1.0798 -2.2212
 2467TIP3   OH229035   5.018   4.695   7.469  0.7365 -0.0292  0.2272
 2467TIP3    H129036   4.936   4.664   7.505  0.7894 -1.0577 -0.5011
 2467TIP3    H229037   5.062   4.737   7.542  0.2845 -0.9427  1.0444
 2468TIP3   OH229038   1.838   5.494   7.045 -0.2152  0.4385  0.2139
 2468TIP3    H129039   1.903   5.442   6.998  0.0477  0.6483  0.3445
 2468TIP3    H229040   1.790   5.431   7.099  0.3644  0.3904  0.6757
 2469TIP3   OH229041   3.843   3.406   8.422  0.2658  0.2116  0.7077
 2469TIP3    H129042   3.814   3.314   8.423  0.6704  0.0836  1.3320
 2469TIP3    H229043   3.888   3.416   8.338  2.3072 -0.8434  1.6061
 2470TIP3   OH229044   2.576   2.698   0.262 -0.5859  0.7412  0.2179
 2470TIP3    H129045   2.576   2.676   0.355  0.5588  1.4648  0.4102
 2470TIP3    H229046   2.556   2.791   0.259 -1.8562  0.4697 -0.3628
 2471TIP3   OH229047   1.767   2.462   7.243 -0.0196  0.4690  0.4762
 2471TIP3    H129048   1.697   2.436   7.304  1.7859 -1.0583  2.0183
 2471TIP3    H229049   1.761   2.399   7.171  1.2042 -1.2240  1.7815
 2472TIP3   OH229050   6.109   2.139   0.388 -0.8839 -0.3702 -0.2460
 2472TIP3    H129051   6.088   2.187   0.469  0.8520  2.2061 -1.1937
 2472TIP3    H229052   6.172   2.073   0.415 -0.4066  0.3910  0.5434
 2473TIP3   OH229053   3.693   3.830   0.531  0.0677  0.0180 -0.2323
 2473TIP3    H129054   3.639   3.871   0.463 -0.0264  0.2899  0.0066
 2473TIP3    H229055   3.647   3.749   0.553 -1.0458  0.9697  1.0470
 2474TIP3   OH229056   4.721   1.398   2.176  0.0078 -0.5154 -0.5019
 2474TIP3    H129057   4.686   1.322   2.130 -0.8714  0.5930 -1.7431
 2474TIP3    H229058   4.805   1.415   2.135 -0.6943  0.3613 -1.6387
 2475TIP3   OH229059   5.672   0.884   2.101  0.3691  0.3748 -0.0287
 2475TIP3    H129060   5.722   0.807   2.130  0.0374  0.0130 -0.4138
 2475TIP3    H229061   5.697   0.953   2.163  1.0114  0.0807  0.0518
 2476TIP3   OH229062   4.322   0.556   7.438 -0.1531 -0.3244 -1.0905
 2476TIP3    H129063   4.352   0.636   7.394  1.8822  0.7338  1.8742
 2476TIP3    H229064   4.402   0.511   7.464 -1.1360 -0.8146  1.4369
 2477TIP3   OH229065   5.171   6.322   7.218  0.5746 -0.5135 -0.2106
 2477TIP3    H129066   5.139   6.386   7.155  1.3493 -0.3355 -0.4320
 2477TIP3    H229067   5.123   6.242   7.198 -2.2611  0.5593  1.6445
 2478TIP3   OH229068   1.020   4.698   7.365  0.3286 -0.0832 -0.2641
 2478TIP3    H129069   1.086   4.693   7.434  1.9943 -1.0309 -1.8690
 2478TIP3    H229070   1.002   4.607   7.342 -0.3723  0.2104 -0.9363
 2479TIP3   OH229071   0.659   3.543   0.711  0.8796  0.5509 -0.2107
 2479TIP3    H129072   0.658   3.637   0.691 -1.5424 -0.1126 -4.3060
 2479TIP3    H229073   0.725   3.507   0.652 -0.5950 -0.6192 -1.2259
 2480TIP3   OH229074   4.394   3.201   8.649 -0.3547 -0.0066 -0.1902
 2480TIP3    H129075   4.462   3.135   8.642  1.7039  2.0983 -1.3767
 2480TIP3    H229076   4.375   3.206   8.742  3.6538  1.6322  0.7297
 2481TIP3   OH229077   5.624   1.325   7.148  0.0650  0.0617  0.6508
 2481TIP3    H129078   5.683   1.278   7.089  0.0176  0.3250  0.3910
 2481TIP3    H229079   5.590   1.258   7.207 -0.2060 -0.2844  0.1127
 2482TIP3   OH229080   6.331   5.131   7.245  0.0359 -0.1003  0.7029
 2482TIP3    H129081   6.344   5.199   7.311 -1.7837  1.8496 -0.7956
 2482TIP3    H229082   6.240   5.104   7.257 -0.5861  0.8571 -1.4240
 2483TIP3   OH229083   0.441   6.587   1.931  0.0879  0.9674  0.5623
 2483TIP3    H129084   0.528   6.624   1.915  0.1221  0.1579 -1.2531
 2483TIP3    H229085   0.458   6.500   1.968  0.1236  0.0384 -1.5269
 2484TIP3   OH229086   3.064   6.417   8.874 -0.3906  0.4130  0.4320
 2484TIP3    H129087   3.002   6.344   8.873 -1.5259  1.3381 -0.9090
 2484TIP3    H229088   3.014   6.491   8.909  0.5751  0.7135  1.2385
 2485TIP3   OH229089   1.360   0.791   7.644 -0.5510  0.0146  0.7413
 2485TIP3    H129090   1.427   0.745   7.594 -1.0558 -0.9260  0.8979
 2485TIP3    H229091   1.406   0.822   7.722 -0.5995 -2.1390  1.7258
 2486TIP3   OH229092   6.728   1.328   1.889  0.1448 -0.6807  0.1080
 2486TIP3    H129093   6.731   1.376   1.972  2.1369  1.0870 -0.9013
 2486TIP3    H229094   6.787   1.376   1.831 -3.1390 -0.2116 -3.2658
 2487TIP3   OH229095   0.366   6.764   6.981  0.0077 -0.0246  0.0031
 2487TIP3    H129096   0.322   6.816   7.048 -1.0637 -0.7234 -0.1321
 2487TIP3    H229097   0.386   6.827   6.911 -0.8998  0.2947  0.0130
 2488TIP3   OH229098   1.819   6.533   1.454  0.1584 -0.2272 -0.3158
 2488TIP3    H129099   1.810   6.474   1.529 -0.3035 -0.3474 -0.4623
 2488TIP3    H229100   1.899   6.582   1.472 -0.5463  0.5677  0.8421
 2489TIP3   OH229101   2.124   1.265   1.513  0.1877 -0.0196  0.6969
 2489TIP3    H129102   2.061   1.328   1.479 -0.5294  2.1833  5.3236
 2489TIP3    H229103   2.208   1.296   1.480 -0.6071  0.0339 -1.4515
 2490TIP3   OH229104   3.088   4.855   0.208  0.4595  0.1126  0.1402
 2490TIP3    H129105   3.109   4.765   0.236 -0.0278 -0.3729 -1.0029
 2490TIP3    H229106   3.098   4.853   0.113 -0.8598  0.9100 -0.0348
 2491TIP3   OH229107   5.827   2.555   7.179 -0.1900  0.0910 -0.0786
 2491TIP3    H129108   5.749   2.528   7.229 -0.7702  0.1513 -0.9274
 2491TIP3    H229109   5.797   2.630   7.127  1.3170  2.3079  2.0259
 2492TIP3   OH229110   4.383   1.542   1.347 -0.2764 -0.2939 -0.0286
 2492TIP3    H129111   4.363   1.583   1.432 -0.5779  0.6132 -0.5213
 2492TIP3    H229112   4.452   1.597   1.310 -1.8327  0.8379 -1.4425
 2493TIP3   OH229113   5.845   2.900   7.178  0.5088  0.3988  0.1308
 2493TIP3    H129114   5.806   2.986   7.161 -1.2384 -0.7239 -2.0746
 2493TIP3    H229115   5.899   2.882   7.101 -0.9449 -1.3879 -0.5259
 2494TIP3   OH229116   2.737   3.934   8.808 -0.3787  0.7800  0.0382
 2494TIP3    H129117   2.767   3.843   8.803  0.5230  1.1161 -1.8302
 2494TIP3    H229118   2.644   3.927   8.829 -0.6435 -0.6676 -1.3752
 2495TIP3   OH229119   6.158   0.325   0.464 -0.1052 -0.0861 -0.2799
 2495TIP3    H129120   6.081   0.271   0.478 -0.7278  0.8543  0.0689
 2495TIP3    H229121   6.192   0.341   0.552  1.8220 -2.2922 -0.5205
 2496TIP3   OH229122   2.302   5.586   0.133 -0.0705 -0.6395  1.0378
 2496TIP3    H129123   2.267   5.668   0.168 -0.9652 -0.7516  0.4403
 2496TIP3    H229124   2.253   5.572   0.052  0.8261 -1.2207  0.5818
 2497TIP3   OH229125   3.789   6.244   7.526  0.0158  0.6887  0.3231
 2497TIP3    H129126   3.804   6.159   7.485 -0.8519  0.2997  0.7731
 2497TIP3    H229127   3.807   6.229   7.618  0.2168  1.0900  0.3470
 2498TIP3   OH229128   2.528   2.347   1.733  0.7559 -0.6065 -0.1221
 2498TIP3    H129129   2.595   2.411   1.756 -0.1758 -0.1289  1.4623
 2498TIP3    H229130   2.565   2.263   1.759  2.3132 -0.9270 -2.9351
 2499TIP3   OH229131   1.058   6.740   6.646  0.3133  0.4045 -0.1711
 2499TIP3    H129132   1.115   6.797   6.595  4.1740  0.5983  3.7385
 2499TIP3    H229133   0.991   6.799   6.682 -0.2076  0.9186 -1.8907
 2500TIP3   OH229134   6.701   4.090   0.342  0.3206  0.4668 -0.6177
 2500TIP3    H129135   6.624   4.049   0.382  0.1227  0.0045 -1.4593
 2500TIP3    H229136   6.695   4.068   0.249  1.1544  0.9311 -0.7924
 2501TIP3   OH229137   3.525   2.293   7.498  0.1432  0.6585 -0.0303
 2501TIP3    H129138   3.436   2.259   7.505 -0.3366  1.3313 -2.2002
 2501TIP3    H229139   3.518   2.383   7.530 -0.0433  0.8144 -0.4982
 2502TIP3   OH229140   5.371   1.745   6.529  0.6398 -0.8243 -0.0577
 2502TIP3    H129141   5.315   1.747   6.452 -1.0437 -0.0609  1.1230
 2502TIP3    H229142   5.311   1.732   6.602  1.7848  1.5129  1.4283
 2503TIP3   OH229143   6.429   0.138   7.453  0.1803 -0.3409  0.5099
 2503TIP3    H129144   6.335   0.120   7.460  0.2526 -1.1376 -0.4009
 2503TIP3    H229145   6.470   0.064   7.498  0.4094 -1.3445 -1.2227
 2504TIP3   OH229146   2.769   5.757   1.238 -0.5194 -0.7243 -1.1705
 2504TIP3    H129147   2.825   5.833   1.224 -1.3332  0.4480  1.4961
 2504TIP3    H229148   2.827   5.691   1.277 -0.6607 -0.0126  0.2754
 2505TIP3   OH229149   5.252   1.361   0.869 -0.1048  0.1009  0.2081
 2505TIP3    H129150   5.223   1.361   0.961 -0.9617  0.2440 -0.0560
 2505TIP3    H229151   5.246   1.269   0.843  3.3166 -0.5545  1.2408
 2506TIP3   OH229152   4.619   6.383   0.371 -0.5205 -0.2899 -0.1002
 2506TIP3    H129153   4.548   6.441   0.344 -0.3003 -0.1738 -0.4316
 2506TIP3    H229154   4.575   6.301   0.394 -0.6454 -0.6789 -1.6322
 2507TIP3   OH229155   6.235   6.224   6.679 -0.0056 -0.1278 -0.0348
 2507TIP3    H129156   6.194   6.267   6.754 -1.8265 -0.1226 -0.9764
 2507TIP3    H229157   6.258   6.295   6.619  1.3456 -0.1393  0.4425
 2508TIP3   OH229158   1.139   1.036   7.914  0.1187 -0.0137  0.3679
 2508TIP3    H129159   1.114   1.085   7.993 -2.1846  2.0252 -1.4566
 2508TIP3    H229160   1.130   1.099   7.843 -1.2469 -2.6150 -1.9476
 2509TIP3   OH229161   2.582   0.472   0.819  0.0997  0.0488  0.9883
 2509TIP3    H129162   2.646   0.477   0.890  0.8683 -1.0629  0.4094
 2509TIP3    H229163   2.606   0.392   0.771  0.5778  1.5370 -1.4376
 2510TIP3   OH229164   2.470   1.328   0.836  0.1253 -0.3915 -0.0022
 2510TIP3    H129165   2.518   1.265   0.889 -0.5205 -0.6534  0.2729
 2510TIP3    H229166   2.487   1.413   0.879  0.8677 -0.3823 -0.2874
 2511TIP3   OH229167   5.977   0.596   7.851  0.8819 -0.5656 -0.0204
 2511TIP3    H129168   6.015   0.512   7.825  1.5594 -0.2501 -0.0613
 2511TIP3    H229169   5.888   0.574   7.879 -0.3095 -0.8149 -3.5456
 2512TIP3   OH229170   5.694   3.924   8.829  0.9312 -0.2303 -0.2196
 2512TIP3    H129171   5.665   3.878   8.908  0.2183 -0.8644 -0.8331
 2512TIP3    H229172   5.617   3.974   8.801  1.1985  0.0412 -0.4809
 2513TIP3   OH229173   4.485   6.528   6.951  0.3101 -0.2663 -0.4323
 2513TIP3    H129174   4.480   6.563   6.862 -0.1321 -0.3529 -0.4454
 2513TIP3    H229175   4.461   6.436   6.941 -0.9149 -0.0029 -0.0617
 2514TIP3   OH229176   5.974   0.883   0.230  0.1722  0.2118  0.5929
 2514TIP3    H129177   6.033   0.835   0.172 -0.2400 -0.3778  0.6447
 2514TIP3    H229178   5.906   0.917   0.173  0.0795  0.1242  0.6498
 2515TIP3   OH229179   3.713   5.236   1.726  0.0539 -0.2692 -0.2921
 2515TIP3    H129180   3.694   5.145   1.701  0.7607 -0.4933 -0.0260
 2515TIP3    H229181   3.720   5.283   1.643  1.2369 -0.7784 -0.5054
 2516TIP3   OH229182   1.702   4.416   6.961  0.1165  0.1727  0.2461
 2516TIP3    H129183   1.770   4.359   6.923 -0.4705 -0.9788  0.8495
 2516TIP3    H229184   1.732   4.505   6.943  0.5464 -0.3255 -1.6529
 2517TIP3   OH229185   4.123   1.843   1.606  0.4721 -0.0281 -0.0433
 2517TIP3    H129186   4.085   1.766   1.649  0.7486  0.1279  0.4927
 2517TIP3    H229187   4.109   1.828   1.513  0.7259 -0.8355  0.0437
 2518TIP3   OH229188   6.399   0.071   0.681  0.2293 -0.3410 -0.5810
 2518TIP3    H129189   6.462   0.025   0.626  0.0964 -1.7021  0.3695
 2518TIP3    H229190   6.316   0.024   0.669  0.0993 -0.4111  0.4525
 2519TIP3   OH229191   4.229   2.084   7.305  0.4494 -0.4887 -0.4693
 2519TIP3    H129192   4.134   2.079   7.313  0.5571 -0.3567  1.2163
 2519TIP3    H229193   4.245   2.165   7.258 -0.2839 -0.8739 -1.4131
 2520TIP3   OH229194   6.148   2.781   1.650 -0.0945  0.6932 -0.0337
 2520TIP3    H129195   6.199   2.809   1.726  0.6474  1.9682 -0.9811
 2520TIP3    H229196   6.067   2.833   1.656 -0.4487  0.1095  0.3787
 2521TIP3   OH229197   3.301   2.700   0.572 -0.2084  0.0499  0.5605
 2521TIP3    H129198   3.292   2.792   0.596 -0.8599  0.0327  0.4037
 2521TIP3    H229199   3.395   2.688   0.557 -0.2836  1.0807 -0.9565
 2522TIP3   OH229200   0.834   3.957   0.072  0.6989 -0.5243 -0.6214
 2522TIP3    H129201   0.878   3.951   0.157 -3.1499 -0.8952  1.5760
 2522TIP3    H229202   0.875   3.888   0.019  2.2204 -1.2962  1.4162
 2523TIP3   OH229203   4.380   2.604   1.591  0.0685 -0.1131 -0.8794
 2523TIP3    H129204   4.433   2.582   1.667  1.2212  0.9178 -1.3465
 2523TIP3    H229205   4.375   2.523   1.541  2.1859  0.0062 -1.3665
 2524TIP3   OH229206   4.506   1.707   7.614 -0.5087 -0.5971 -0.3857
 2524TIP3    H129207   4.500   1.711   7.709 -2.0743  2.0211 -0.4947
 2524TIP3    H229208   4.597   1.729   7.595 -0.5117  0.2749  0.5072
 2525TIP3   OH229209   2.220   0.886   1.367  0.1749 -0.4721  0.3504
 2525TIP3    H129210   2.161   0.940   1.314  1.0356 -0.1176 -0.2820
 2525TIP3    H229211   2.193   0.796   1.350  0.9146 -0.4207 -1.3442
 2526TIP3   OH229212   5.232   5.545   2.153 -0.8652  0.1790 -0.0696
 2526TIP3    H129213   5.141   5.563   2.177 -0.5380  2.0697 -0.1340
 2526TIP3    H229214   5.266   5.629   2.124  0.5220 -0.7896 -1.3750
 2527TIP3   OH229215   4.857   4.304   8.869 -0.4000  0.0782 -0.2282
 2527TIP3    H129216   4.917   4.255   8.926 -2.4776 -1.4488  0.8045
 2527TIP3    H229217   4.823   4.238   8.809 -1.0326  0.9075 -0.8010
 2528TIP3   OH229218   3.201   6.046   8.365 -1.1441 -0.1332  0.4338
 2528TIP3    H129219   3.236   5.957   8.363  1.7909  0.8844  1.0283
 2528TIP3    H229220   3.203   6.070   8.458 -0.5431  0.9756  0.1559
 2529TIP3   OH229221   4.657   1.673   7.316 -0.2021  0.9838  0.3512
 2529TIP3    H129222   4.735   1.688   7.262  0.1887 -0.4530  0.4904
 2529TIP3    H229223   4.691   1.659   7.404 -0.5804  0.0909  0.3665
 2530TIP3   OH229224   1.612   5.742   7.423 -0.4389  0.2524  0.2241
 2530TIP3    H129225   1.556   5.780   7.355  0.2819  0.9274 -0.0033
 2530TIP3    H229226   1.700   5.747   7.387  0.3374  2.9569  2.1488
 2531TIP3   OH229227   0.990   0.599   8.971  0.4216 -0.0030  0.3446
 2531TIP3    H129228   0.903   0.559   8.965 -0.2850  1.2201  1.8493
 2531TIP3    H229229   0.977   0.690   8.945  1.2167  0.2376  0.7366
 2532TIP3   OH229230   1.203   2.430   1.596 -0.0292 -0.3322 -0.0147
 2532TIP3    H129231   1.185   2.479   1.517  0.9402  0.9354  0.5120
 2532TIP3    H229232   1.140   2.463   1.660  1.0696  0.7908  0.5361
 2533TIP3   OH229233   5.090   3.536   0.169  0.1716  0.1890 -0.3573
 2533TIP3    H129234   5.027   3.473   0.133 -0.4490  1.0709 -0.8646
 2533TIP3    H229235   5.136   3.487   0.237  0.3741 -1.0996 -1.3714
 2534TIP3   OH229236   1.195   5.980   1.301  0.1206  0.0711  0.0789
 2534TIP3    H129237   1.185   5.890   1.332 -0.6848  0.4717  1.0179
 2534TIP3    H229238   1.290   5.994   1.299  0.2347 -0.6103  0.4806
 2535TIP3   OH229239   1.799   5.267   6.711 -0.2331  0.5537  0.0710
 2535TIP3    H129240   1.841   5.340   6.665  0.6624 -0.0669 -0.1192
 2535TIP3    H229241   1.789   5.199   6.644 -0.5764  0.3032  0.3713
 2536TIP3   OH229242   3.707   2.215   2.199 -0.3488  0.0309 -0.0747
 2536TIP3    H129243   3.647   2.154   2.156 -1.7622 -0.0625  1.8860
 2536TIP3    H229244   3.710   2.186   2.290  1.0061  1.3486  0.3539
 2537TIP3   OH229245   4.807   6.048   7.927  0.5946 -0.6276  0.9136
 2537TIP3    H129246   4.780   6.066   8.017 -0.4244  0.4969  0.4213
 2537TIP3    H229247   4.894   6.010   7.934  1.1301  0.7624  2.3169
 2538TIP3   OH229248   0.116   6.671   7.795  0.0516  0.1343 -0.4470
 2538TIP3    H129249   0.129   6.621   7.875 -0.3023 -1.0436 -1.1037
 2538TIP3    H229250   0.080   6.755   7.824  0.3634 -0.1052  0.6538
 2539TIP3   OH229251   6.088   2.614   7.961  0.1687  0.2323 -0.1140
 2539TIP3    H129252   6.136   2.610   7.878 -0.6283  0.0032 -0.5709
 2539TIP3    H229253   6.059   2.525   7.977 -1.1068  0.5774 -0.4476
 2540TIP3   OH229254   6.239   1.970   0.788  0.8486  0.5042 -0.4649
 2540TIP3    H129255   6.176   2.007   0.849  1.2125  0.3332  0.0260
 2540TIP3    H229256   6.322   2.013   0.810  1.0234  0.2973 -0.7106
 2541TIP3   OH229257   2.592   2.411   0.406  0.5490 -0.1704  0.0339
 2541TIP3    H129258   2.589   2.321   0.439 -1.4812 -0.1772 -0.0053
 2541TIP3    H229259   2.586   2.402   0.311 -1.2237 -0.0115  0.0925
 2542TIP3   OH229260   5.052   1.604   1.280 -0.3473  0.4930 -0.1004
 2542TIP3    H129261   5.002   1.661   1.221 -0.7090  1.7075  1.3151
 2542TIP3    H229262   4.986   1.549   1.322 -0.0977 -0.3256 -0.7552
 2543TIP3   OH229263   4.408   0.674   0.949 -0.2531  0.0661 -0.1347
 2543TIP3    H129264   4.355   0.739   0.993  2.3168  1.6960  0.7931
 2543TIP3    H229265   4.406   0.597   1.006  0.8037  1.1924  1.4922
 2544TIP3   OH229266   0.709   6.080   7.003  0.1107  0.0329 -0.2291
 2544TIP3    H129267   0.749   6.075   7.090  0.2306 -0.3059 -0.3003
 2544TIP3    H229268   0.705   6.173   6.983 -0.1258  0.1233  0.2370
 2545TIP3   OH229269   0.462   1.442   6.934 -0.1708 -0.0965 -0.1774
 2545TIP3    H129270   0.477   1.463   6.842 -0.3176  1.2928  0.0915
 2545TIP3    H229271   0.530   1.377   6.955  1.7823  1.7046 -0.5296
 2546TIP3   OH229272   4.602   4.265   0.452 -0.0748  0.0642 -0.5049
 2546TIP3    H129273   4.514   4.304   0.448 -1.3001 -2.4461 -0.1852
 2546TIP3    H229274   4.592   4.190   0.511  1.5333 -2.0747 -2.7658
 2547TIP3   OH229275   6.751   3.491   0.534  0.1573  0.3990  0.6997
 2547TIP3    H129276   6.658   3.472   0.526  0.0421  0.8671  0.8735
 2547TIP3    H229277   6.754   3.584   0.558  0.7127  0.7563 -0.6847
 2548TIP3   OH229278   0.110   2.332   0.981 -0.4171  0.3236  0.2671
 2548TIP3    H129279   0.203   2.340   1.001  0.0725 -1.6570 -1.0331
 2548TIP3    H229280   0.067   2.340   1.066  1.2600 -3.1036  1.6188
 2549TIP3   OH229281   0.488   4.728   0.173 -0.0127 -0.0640  0.1778
 2549TIP3    H129282   0.410   4.753   0.223  0.1243  0.4622  0.1315
 2549TIP3    H229283   0.461   4.651   0.123 -0.2499 -0.4021  0.8117
 2550TIP3   OH229284   3.515   2.664   0.116 -0.1470 -0.2098 -0.0688
 2550TIP3    H129285   3.424   2.682   0.141  0.3088 -0.2122  1.7870
 2550TIP3    H229286   3.515   2.571   0.094 -0.6607 -0.1229 -0.4736
 2551TIP3   OH229287   5.405   5.522   8.028  0.4072  0.2544 -0.5345
 2551TIP3    H129288   5.496   5.520   8.059  0.3588  0.7317 -0.3459
 2551TIP3    H229289   5.362   5.451   8.074  0.3545  0.9068  0.4432
 2552TIP3   OH229290   0.856   2.827   8.108 -0.4734 -0.9954  0.4984
 2552TIP3    H129291   0.887   2.740   8.081  4.7112  1.1682 -1.9848
 2552TIP3    H229292   0.816   2.864   8.030 -2.0490 -0.8494  1.3425
 2553TIP3   OH229293   4.410   1.642   2.393 -0.0888 -0.5741  0.0869
 2553TIP3    H129294   4.396   1.726   2.437  0.9502 -0.1959 -0.2774
 2553TIP3    H229295   4.336   1.588   2.421  1.2683 -0.8917  3.5785
 2554TIP3   OH229296   1.503   5.224   8.181  0.2569  0.0001  0.7206
 2554TIP3    H129297   1.510   5.200   8.089  0.0172  2.4659 -0.0350
 2554TIP3    H229298   1.438   5.164   8.217 -2.0379  0.9002 -1.5324
 2555TIP3   OH229299   1.648   5.919   6.884 -0.2340  0.4481  0.2999
 2555TIP3    H129300   1.651   5.823   6.881  0.0591  0.4687 -0.1364
 2555TIP3    H229301   1.579   5.939   6.947 -0.2251 -0.0503  0.4709
 2556TIP3   OH229302   2.123   0.340   8.614  0.0924 -0.1935  0.4057
 2556TIP3    H129303   2.182   0.305   8.681 -1.7732  2.2106  3.6135
 2556TIP3    H229304   2.045   0.286   8.618 -0.7319  1.0238  1.5777
 2557TIP3   OH229305   0.449   0.451   8.620  0.0323 -0.0898 -0.1436
 2557TIP3    H129306   0.423   0.471   8.710 -1.4552 -1.6741 -0.1784
 2557TIP3    H229307   0.487   0.532   8.588  0.8967  0.4320  2.0023
 2558TIP3   OH229308   0.030   1.873   8.692  0.3050  0.4751  0.0424
 2558TIP3    H129309   0.009   1.871   8.786 -0.6694  1.1068 -0.1451
 2558TIP3    H229310  -0.032   1.937   8.656  1.4038  1.0603 -0.8537
 2559TIP3   OH229311   3.204   0.654   8.674 -0.8180 -0.7199 -0.6865
 2559TIP3    H129312   3.299   0.665   8.674 -0.9778  1.5458  0.6746
 2559TIP3    H229313   3.178   0.667   8.583  0.0757 -0.0176 -0.8586
 2560TIP3   OH229314   1.886   0.654   7.524  0.0928  0.7260 -0.3916
 2560TIP3    H129315   1.819   0.707   7.567 -0.1278 -0.6147  1.0170
 2560TIP3    H229316   1.837   0.593   7.469  0.1149 -0.2529  0.6356
 2561TIP3   OH229317   2.350   6.548   8.351  0.2849  0.1778  0.4629
 2561TIP3    H129318   2.294   6.584   8.282 -1.3564 -2.8624  0.0200
 2561TIP3    H229319   2.428   6.517   8.305 -0.8799 -1.9958 -0.1459
 2562TIP3   OH229320   3.747   4.828   0.887 -0.3256  0.1333  0.7347
 2562TIP3    H129321   3.806   4.833   0.811  0.8130  2.4719  1.6999
 2562TIP3    H229322   3.805   4.815   0.961 -1.0115  2.0861  1.6686
 2563TIP3   OH229323   3.435   2.266   8.306 -0.7661  0.0303 -0.3288
 2563TIP3    H129324   3.430   2.190   8.249  2.3481 -0.2758 -0.3836
 2563TIP3    H229325   3.449   2.340   8.247  1.1765 -0.1154 -0.1305
 2564TIP3   OH229326   1.699   4.375   1.201  0.2437  0.3764  0.2027
 2564TIP3    H129327   1.712   4.413   1.288 -2.0724  0.5527  0.5347
 2564TIP3    H229328   1.622   4.421   1.166  0.6451 -0.2592 -1.6145
 2565TIP3   OH229329   6.770   3.764   0.559 -0.6182 -0.4176 -0.4990
 2565TIP3    H129330   6.827   3.816   0.502  0.7811 -1.6083 -0.2404
 2565TIP3    H229331   6.681   3.793   0.537  0.0308  0.9955 -1.4086
 2566TIP3   OH229332   4.353   1.920   7.659  0.5802 -0.3112 -0.4401
 2566TIP3    H129333   4.277   1.874   7.696 -0.3987  1.4314 -0.1912
 2566TIP3    H229334   4.397   1.854   7.605 -1.4708 -1.1966 -1.1182
 2567TIP3   OH229335   1.039   3.509   1.464  0.2966  0.0312 -0.1181
 2567TIP3    H129336   0.945   3.515   1.447  0.4330 -1.9471 -2.1012
 2567TIP3    H229337   1.047   3.510   1.559 -1.9283 -1.6782  0.1644
 2568TIP3   OH229338   4.531   1.016   7.608 -0.2797 -0.0050  0.1386
 2568TIP3    H129339   4.596   0.970   7.554  0.4434  3.4482 -2.2781
 2568TIP3    H229340   4.447   0.989   7.571  0.1397  0.6652 -1.4350
 2569TIP3   OH229341   5.450   0.636   8.031  1.0544  0.2905 -0.2283
 2569TIP3    H129342   5.544   0.650   8.020  0.8813  0.7696 -1.1507
 2569TIP3    H229343   5.414   0.639   7.942  0.3319 -1.1649 -0.0091
 2570TIP3   OH229344   1.911   2.361   8.297 -0.5699 -0.2194 -0.0381
 2570TIP3    H129345   1.894   2.426   8.228  0.4923  0.0604 -0.0657
 2570TIP3    H229346   1.937   2.282   8.250  0.0241 -0.0688  0.0257
 2571TIP3   OH229347   5.870   0.381   1.663 -0.0955  0.5194  0.6762
 2571TIP3    H129348   5.798   0.328   1.629 -0.7436  1.1063  1.1051
 2571TIP3    H229349   5.901   0.430   1.586 -0.1089  0.2143  0.4745
 2572TIP3   OH229350   6.346   6.063   7.878  0.1562  0.3565  0.0888
 2572TIP3    H129351   6.274   6.057   7.940 -0.8219 -1.9780 -1.1668
 2572TIP3    H229352   6.421   6.089   7.931 -1.0929  0.5040  1.8468
 2573TIP3   OH229353   2.540   3.474   7.826  0.5863 -0.1195 -0.1175
 2573TIP3    H129354   2.493   3.447   7.746  0.1615 -0.5716  0.2780
 2573TIP3    H229355   2.604   3.538   7.795 -0.8779  1.2088 -0.5682
 2574TIP3   OH229356   6.752   4.013   0.003  0.5753  0.1751 -0.2145
 2574TIP3    H129357   6.774   3.925   0.033 -0.3289 -0.8872 -2.3774
 2574TIP3    H229358   6.658   4.020   0.019 -0.0051 -0.5381 -2.7346
 2575TIP3   OH229359   3.297   2.921   8.653 -0.3184  0.1851 -0.0732
 2575TIP3    H129360   3.240   2.848   8.629  0.1036 -0.4902  0.9111
 2575TIP3    H229361   3.341   2.892   8.733  0.9146  0.9495 -0.4446
 2576TIP3   OH229362   3.837   4.318   8.887 -0.6082 -0.7541 -0.5256
 2576TIP3    H129363   3.832   4.343   8.795 -0.9125  0.0712 -0.2927
 2576TIP3    H229364   3.879   4.232   8.886 -0.3068 -0.6061 -1.4080
 2577TIP3   OH229365   1.449   2.877   0.506 -0.0070 -0.1461  0.0712
 2577TIP3    H129366   1.372   2.846   0.554 -0.1279  1.1769  0.7583
 2577TIP3    H229367   1.419   2.956   0.461 -0.2996 -2.0074 -3.3412
 2578TIP3   OH229368   2.763   6.749   0.335  0.1372 -0.3459  0.0494
 2578TIP3    H129369   2.775   6.808   0.260  1.6056  1.6423  1.7618
 2578TIP3    H229370   2.703   6.682   0.302 -0.6773  1.4153 -2.3771
 2579TIP3   OH229371   1.230   0.634   0.853  0.8068 -0.4726  0.4104
 2579TIP3    H129372   1.146   0.608   0.814  0.7566 -0.5124  0.5424
 2579TIP3    H229373   1.219   0.728   0.870  2.3062  0.6013 -3.4658
 2580TIP3   OH229374   6.033   4.033   1.532  0.2845  0.2999  0.0683
 2580TIP3    H129375   6.060   4.122   1.512  0.1953  0.1614 -0.6954
 2580TIP3    H229376   6.097   3.978   1.486 -0.8903 -0.0284 -1.2626
 2581TIP3   OH229377   0.222   3.629   0.265 -0.3724  0.6477  0.3933
 2581TIP3    H129378   0.215   3.620   0.360  0.0767 -1.5973  0.2452
 2581TIP3    H229379   0.290   3.567   0.239 -1.0560  0.6208 -1.4891
 2582TIP3   OH229380   2.780   6.582   7.362  0.1883 -0.4049  0.4623
 2582TIP3    H129381   2.711   6.543   7.417 -1.3347  1.0466 -0.3164
 2582TIP3    H229382   2.858   6.582   7.418 -0.4314 -2.0144  1.4170
 2583TIP3   OH229383   4.735   3.036   2.104 -0.0517 -0.2749 -0.2737
 2583TIP3    H129384   4.661   3.093   2.084  0.2111 -0.1858 -1.0366
 2583TIP3    H229385   4.774   3.074   2.183  0.3966  0.8989 -1.0375
 2584TIP3   OH229386   4.716   3.789   7.694 -0.5391  0.2204 -0.0049
 2584TIP3    H129387   4.743   3.723   7.759 -0.0242  0.4517  0.0255
 2584TIP3    H229388   4.782   3.782   7.625 -1.7620 -0.8595 -1.0950
 2585TIP3   OH229389   1.651   1.159   7.078  0.3225 -0.5414 -0.7737
 2585TIP3    H129390   1.746   1.153   7.083  0.3276  0.2131  0.2848
 2585TIP3    H229391   1.621   1.068   7.086  1.0291 -1.2856 -4.8213
 2586TIP3   OH229392   6.498   3.991   8.773  0.3500 -0.5262 -0.6496
 2586TIP3    H129393   6.542   3.907   8.762 -0.2354 -0.9637  0.2315
 2586TIP3    H229394   6.478   3.996   8.867 -1.4616 -0.3495 -1.0019
 2587TIP3   OH229395   1.551   0.677   8.258 -0.0135 -0.5479  0.2840
 2587TIP3    H129396   1.462   0.687   8.222  0.6978 -1.5731 -1.9266
 2587TIP3    H229397   1.540   0.616   8.330 -1.0612 -1.0522 -0.2677
 2588TIP3   OH229398   4.121   0.365   8.801 -0.1798 -0.3660  0.1057
 2588TIP3    H129399   4.181   0.360   8.727 -0.9652  3.0296 -0.9090
 2588TIP3    H229400   4.055   0.298   8.783  0.1563 -0.2452 -1.7732
 2589TIP3   OH229401   4.714   1.851   1.020  0.2811 -0.6204 -0.0091
 2589TIP3    H129402   4.662   1.813   0.949  1.0545 -2.4356  0.3592
 2589TIP3    H229403   4.801   1.811   1.011  0.4029 -0.9095  1.9517
 2590TIP3   OH229404   6.436   0.233   8.226  0.1239 -0.4832 -0.1677
 2590TIP3    H129405   6.479   0.211   8.308  0.4478 -1.3369 -0.5520
 2590TIP3    H229406   6.420   0.149   8.184 -1.6898 -0.1769 -0.1652
 2591TIP3   OH229407   6.434   6.012   7.037 -0.2608  0.4979  0.1005
 2591TIP3    H129408   6.466   5.939   7.089 -2.4966 -0.1179  0.7579
 2591TIP3    H229409   6.481   6.088   7.071  0.8969 -0.3840  0.5502
 2592TIP3   OH229410   1.647   3.435   1.070  0.0523  0.1176 -0.6541
 2592TIP3    H129411   1.672   3.518   1.111  1.8456 -1.2492  1.2217
 2592TIP3    H229412   1.569   3.407   1.119  2.4876 -1.7799  2.5885
 2593TIP3   OH229413   5.681   6.680   7.360  0.3795 -0.5090  0.9091
 2593TIP3    H129414   5.611   6.647   7.304  0.0639 -0.3700  1.2205
 2593TIP3    H229415   5.752   6.701   7.300 -0.6744  1.5984  0.3251
 2594TIP3   OH229416   6.045   3.868   0.382 -0.1963  0.2370  0.7944
 2594TIP3    H129417   5.956   3.899   0.398 -0.4244  0.7935 -1.3340
 2594TIP3    H229418   6.072   3.912   0.302  1.3480 -1.2819  0.4220
 2595TIP3   OH229419   5.535   3.707   1.817  0.1002  0.0499  0.2453
 2595TIP3    H129420   5.486   3.742   1.892  0.7800 -1.0798  1.2735
 2595TIP3    H229421   5.541   3.780   1.756 -1.9595  0.5276  0.5161
 2596TIP3   OH229422   2.061   1.078   7.533  0.3552 -0.3695  0.1611
 2596TIP3    H129423   2.033   1.115   7.449  0.6217 -2.8128 -1.0969
 2596TIP3    H229424   1.982   1.075   7.586 -0.2135 -0.5088 -0.6883
 2597TIP3   OH229425   5.165   2.047   8.204  0.4481  0.1762  0.2066
 2597TIP3    H129426   5.072   2.043   8.181  0.5388 -2.6278  0.0540
 2597TIP3    H229427   5.166   2.070   8.297 -0.2252  2.9744 -0.3878
 2598TIP3   OH229428   6.496   4.361   1.737  0.1607  0.3515  0.3352
 2598TIP3    H129429   6.525   4.340   1.648 -1.0814  0.2664 -0.0693
 2598TIP3    H229430   6.577   4.372   1.786  0.8827  0.6562 -0.8645
 2599TIP3   OH229431   3.743   3.110   1.447  0.5197  0.1300 -0.1725
 2599TIP3    H129432   3.684   3.135   1.519  0.9855  0.8078 -0.0184
 2599TIP3    H229433   3.709   3.025   1.417 -1.4621  1.1691 -1.0766
 2600TIP3   OH229434   1.231   0.435   6.846 -0.1576 -0.2153 -0.2867
 2600TIP3    H129435   1.254   0.477   6.929  0.2214 -1.3623  0.2074
 2600TIP3    H229436   1.309   0.445   6.792 -0.3502  0.3995 -0.4534
 2601TIP3   OH229437   6.608   0.997   7.964 -1.1464  0.0720 -0.4447
 2601TIP3    H129438   6.625   1.028   8.053 -0.3254  1.5106 -1.0580
 2601TIP3    H229439   6.529   1.043   7.937 -1.1583 -0.0437 -0.6088
 2602TIP3   OH229440   1.664   5.787   1.602 -0.3531  0.2866 -0.5146
 2602TIP3    H129441   1.588   5.764   1.548 -3.0927  0.4043  2.8883
 2602TIP3    H229442   1.668   5.882   1.598  0.4255  0.2214 -1.6277
 2603TIP3   OH229443   0.556   1.891   7.300 -0.1381 -0.0833  0.2708
 2603TIP3    H129444   0.554   1.796   7.311 -0.2596  0.0614  1.7581
 2603TIP3    H229445   0.643   1.916   7.329 -0.5722  0.3763  1.2308
 2604TIP3   OH229446   4.803   1.270   7.702  0.1062 -0.3305 -0.3743
 2604TIP3    H129447   4.833   1.179   7.701  1.3536 -0.0970  2.9069
 2604TIP3    H229448   4.756   1.278   7.785  0.6857  2.1916 -0.2214
 2605TIP3   OH229449   4.821   5.825   2.050 -0.1493 -0.5350  0.0061
 2605TIP3    H129450   4.824   5.809   1.956 -0.0972  0.7963 -0.2376
 2605TIP3    H229451   4.732   5.801   2.076 -0.2553 -0.6250 -0.4344
 2606TIP3   OH229452   1.173   2.379   0.343 -0.0453  0.2618  0.2597
 2606TIP3    H129453   1.128   2.451   0.298  0.3961  0.8526  0.7437
 2606TIP3    H229454   1.178   2.408   0.434  2.3747  0.8005  0.0327
 2607TIP3   OH229455   4.282   0.435   6.889 -0.3195  0.1301 -0.1964
 2607TIP3    H129456   4.286   0.419   6.984  0.7114  1.4233  0.0112
 2607TIP3    H229457   4.189   0.444   6.871 -0.4699  1.3373  0.9936
 2608TIP3   OH229458   0.080   2.675   0.617  0.4006 -0.9381  0.3073
 2608TIP3    H129459   0.127   2.601   0.656  2.9216 -0.6957 -1.9421
 2608TIP3    H229460   0.091   2.747   0.679  1.3807 -1.4167  0.7075
 2609TIP3   OH229461   3.911   0.408   7.280  0.2392 -0.0100  0.1392
 2609TIP3    H129462   3.938   0.367   7.362 -1.5038  0.3540  0.9512
 2609TIP3    H229463   3.825   0.370   7.261  0.1323  0.7119 -0.9458
 2610TIP3   OH229464   4.609   6.408   8.121  0.2997 -0.1238 -0.4586
 2610TIP3    H129465   4.586   6.501   8.120 -0.5903 -0.2492  1.9264
 2610TIP3    H229466   4.535   6.365   8.078 -0.5112  0.1093  0.6425
 2611TIP3   OH229467   3.626   1.449   0.490  0.1928  0.0252 -0.0119
 2611TIP3    H129468   3.674   1.414   0.565  1.2123  1.0132 -0.1740
 2611TIP3    H229469   3.544   1.483   0.527  0.3353 -0.2209  0.5275
 2612TIP3   OH229470   3.617   2.586   7.199  0.2504  0.2263  0.2880
 2612TIP3    H129471   3.665   2.636   7.266 -0.2829  1.5692 -0.2989
 2612TIP3    H229472   3.649   2.496   7.210  0.9470  0.5982  1.6462
 2613TIP3   OH229473   4.448   4.509   0.687  0.1015  1.1272 -0.4284
 2613TIP3    H129474   4.445   4.467   0.601  1.8246  1.9274 -0.9221
 2613TIP3    H229475   4.486   4.595   0.670  1.1414  1.0371  1.2063
 2614TIP3   OH229476   4.613   6.113   7.748 -0.1758  0.2845  0.2038
 2614TIP3    H129477   4.645   6.191   7.705  0.3722  1.3503  2.3983
 2614TIP3    H229478   4.690   6.075   7.791 -0.7459 -0.4904  0.5790
 2615TIP3   OH229479   1.023   4.398   2.050 -0.3475  0.8968 -0.3872
 2615TIP3    H129480   0.948   4.437   2.007 -2.1799 -0.4437  1.4085
 2615TIP3    H229481   1.027   4.440   2.136 -1.6457 -1.7553  1.1283
 2616TIP3   OH229482   5.413   6.427   6.955  0.5768 -0.3120 -0.5968
 2616TIP3    H129483   5.376   6.452   7.040  0.5140  0.5918 -0.8718
 2616TIP3    H229484   5.500   6.467   6.954  0.2391  0.4312 -1.2966
 2617TIP3   OH229485   0.334   1.200   2.479  0.5198 -0.1344 -0.3855
 2617TIP3    H129486   0.360   1.279   2.526  1.6468 -1.5142  1.3973
 2617TIP3    H229487   0.239   1.195   2.491  0.4061  1.0251 -0.6893
 2618TIP3   OH229488   0.950   5.916   1.271 -0.2135 -0.6578  0.2824
 2618TIP3    H129489   1.040   5.949   1.277 -0.4491 -0.0516  0.5103
 2618TIP3    H229490   0.905   5.979   1.215 -0.6372 -0.6505  0.6293
 2619TIP3   OH229491   1.721   6.310   0.901 -0.9287 -0.0787  0.5139
 2619TIP3    H129492   1.806   6.270   0.887  0.1659  1.6251  1.8675
 2619TIP3    H229493   1.658   6.244   0.873  0.7950 -0.3970 -3.3423
 2620TIP3   OH229494   1.244   0.254   8.373  0.8355  0.5591  0.4704
 2620TIP3    H129495   1.241   0.346   8.399  0.9733  0.7458 -0.1597
 2620TIP3    H229496   1.301   0.252   8.296  0.2598  0.0507  0.0450
 2621TIP3   OH229497   3.713   3.264   2.104  0.1614 -0.4902  0.0550
 2621TIP3    H129498   3.736   3.354   2.126 -0.4065 -0.4183  0.3667
 2621TIP3    H229499   3.637   3.271   2.047  0.9457 -0.7241 -1.0617
 2622TIP3   OH229500   5.074   0.131   6.900  0.4414  0.1209  0.1595
 2622TIP3    H129501   5.026   0.212   6.883 -0.4021 -0.4748 -0.4099
 2622TIP3    H229502   5.005   0.065   6.912  1.0929 -0.8913 -1.3121
 2623TIP3   OH229503   2.606   5.271   8.083 -0.0492  0.2042 -0.5282
 2623TIP3    H129504   2.638   5.181   8.073  0.4876  0.0895  1.8118
 2623TIP3    H229505   2.666   5.324   8.031  1.3614 -0.5025  0.3341
 2624TIP3   OH229506   4.976   0.208   8.604 -0.3684  0.5681 -0.3247
 2624TIP3    H129507   5.057   0.197   8.554  0.2497  0.7576  0.6160
 2624TIP3    H229508   4.998   0.273   8.670 -1.1615  0.2952  0.2156
 2625TIP3   OH229509   1.948   4.649   7.286 -0.2616 -0.0263  0.0649
 2625TIP3    H129510   2.033   4.690   7.275 -0.3575  0.0164 -0.5425
 2625TIP3    H229511   1.941   4.633   7.380  0.0143  0.8270  0.2356
 2626TIP3   OH229512   4.263   2.927   7.762  0.6582 -0.5809  0.6318
 2626TIP3    H129513   4.195   2.880   7.713  0.6794 -1.0195  1.0166
 2626TIP3    H229514   4.287   2.867   7.833  1.3507 -0.3692  0.5781
 2627TIP3   OH229515   4.577   1.007   6.914 -0.1583  0.1211 -0.4509
 2627TIP3    H129516   4.615   0.964   6.991 -1.1704  0.5805  0.3399
 2627TIP3    H229517   4.642   1.073   6.889  0.0869  0.1168  0.1477
 2628TIP3   OH229518   5.822   2.291   6.660  0.4742  0.2211  0.3321
 2628TIP3    H129519   5.909   2.328   6.676  0.8958 -0.8544  0.6462
 2628TIP3    H229520   5.777   2.297   6.744  0.3560  0.4722  0.2534
 2629TIP3   OH229521   2.879   3.112   1.572  0.7472 -0.2853 -0.4949
 2629TIP3    H129522   2.888   3.197   1.614 -0.2707 -0.4083  0.0039
 2629TIP3    H229523   2.911   3.126   1.482  3.5092 -0.1719  0.4168
 2630TIP3   OH229524   1.809   5.854   0.821  0.0525  0.5547  0.2856
 2630TIP3    H129525   1.761   5.937   0.818 -0.3597  0.3043 -2.1530
 2630TIP3    H229526   1.813   5.832   0.914 -2.5768  1.7300  0.7654
 2631TIP3   OH229527   6.772   3.503   8.932 -0.0876 -0.6511 -0.0623
 2631TIP3    H129528   6.798   3.430   8.988 -0.5736  0.2750  1.4415
 2631TIP3    H229529   6.810   3.483   8.847  1.7970 -1.4940  0.9151
 2632TIP3   OH229530   4.468   1.900   7.024 -0.4473 -0.1534  0.1803
 2632TIP3    H129531   4.498   1.983   7.061  0.0194 -1.1750  2.2585
 2632TIP3    H229532   4.529   1.881   6.954  0.2717  0.6011  0.5861
 2633TIP3   OH229533   6.142   2.333   2.116  0.0879  0.1255 -0.2717
 2633TIP3    H129534   6.112   2.419   2.086 -0.9123 -0.5743 -1.4168
 2633TIP3    H229535   6.062   2.289   2.145  0.6135 -0.3602  0.4685
 2634TIP3   OH229536   5.144   5.407   7.281 -0.0339 -0.2149  0.1159
 2634TIP3    H129537   5.072   5.459   7.247  1.1527  0.7615 -1.0113
 2634TIP3    H229538   5.223   5.459   7.262  0.9748 -1.2159  1.3358
 2635TIP3   OH229539   1.754   5.589   8.163  0.0685 -0.1944  0.3599
 2635TIP3    H129540   1.842   5.605   8.128 -1.0209 -0.4608 -2.8057
 2635TIP3    H229541   1.743   5.494   8.158 -1.0836  0.0005 -1.1682
 2636TIP3   OH229542   0.284   0.909   8.489  0.0250 -0.3260 -0.2770
 2636TIP3    H129543   0.261   0.898   8.581 -0.6872  2.8607  0.0710
 2636TIP3    H229544   0.222   0.855   8.441 -2.2474  0.9922  1.0241
 2637TIP3   OH229545   3.179   3.379   7.532  0.1105 -0.3633  0.5679
 2637TIP3    H129546   3.245   3.439   7.567 -0.4705  0.4092  0.3565
 2637TIP3    H229547   3.216   3.292   7.547  1.3182  0.0599  0.1894
 2638TIP3   OH229548   4.943   1.885   8.730  0.2656 -0.0066 -0.2977
 2638TIP3    H129549   4.897   1.819   8.782  0.1538 -0.4176 -0.9128
 2638TIP3    H229550   4.885   1.902   8.656  0.8811 -0.1737 -0.8219
 2639TIP3   OH229551   3.768   1.770   1.752 -0.4750  0.2984  0.4348
 2639TIP3    H129552   3.743   1.843   1.810  1.1993  0.1659  1.3903
 2639TIP3    H229553   3.748   1.692   1.803 -1.0169  0.1202 -0.0492
 2640TIP3   OH229554   2.636   2.328   1.360  0.5740  0.1660 -0.4167
 2640TIP3    H129555   2.665   2.414   1.331 -0.5164  1.8198  2.8458
 2640TIP3    H229556   2.710   2.293   1.410  0.8040 -0.5633 -1.2493
 2641TIP3   OH229557   0.384   5.749   7.264  0.3625  0.4092  0.2700
 2641TIP3    H129558   0.473   5.739   7.230  0.6832  0.5636  1.0498
 2641TIP3    H229559   0.348   5.822   7.215  0.5486  0.1370 -0.2807
 2642TIP3   OH229560   5.961   3.110   0.742  0.2374  0.0740 -0.1770
 2642TIP3    H129561   5.883   3.164   0.728 -0.0102  0.0429  0.9727
 2642TIP3    H229562   5.941   3.059   0.820  0.2820 -2.0262 -1.4323
 2643TIP3   OH229563   1.593   6.154   1.792  0.3047  0.3335  0.3177
 2643TIP3    H129564   1.589   6.060   1.808  0.1220  0.0572 -1.2081
 2643TIP3    H229565   1.562   6.194   1.873  0.7306 -0.8986  1.1145
 2644TIP3   OH229566   0.011   4.342   6.161  0.0761  0.4829  0.0811
 2644TIP3    H129567  -0.040   4.314   6.236  1.8538 -0.8440  0.8741
 2644TIP3    H229568   0.034   4.261   6.116 -0.7127  1.2268 -1.7835
 2645TIP3   OH229569   0.544   2.002   0.588  0.4227  0.4070 -0.5775
 2645TIP3    H129570   0.635   1.974   0.574  0.1203 -0.2836 -1.2875
 2645TIP3    H229571   0.542   2.033   0.678  0.6849 -2.5523  0.5892
 2646TIP3   OH229572   0.343   1.460   1.477 -0.3906  0.0455  0.3335
 2646TIP3    H129573   0.262   1.479   1.430 -1.2590  1.0397  2.1355
 2646TIP3    H229574   0.348   1.528   1.545  1.5792 -0.4360  0.7314
 2647TIP3   OH229575   4.225   6.238   8.633  0.3192  0.1414  0.1237
 2647TIP3    H129576   4.159   6.178   8.666 -1.6507  1.7641 -0.6441
 2647TIP3    H229577   4.181   6.323   8.630  1.5833  0.8210 -2.9208
 2648TIP3   OH229578   1.563   3.375   8.038 -0.0259  0.6211  0.4700
 2648TIP3    H129579   1.649   3.340   8.062  0.4762  1.2693 -0.3091
 2648TIP3    H229580   1.552   3.350   7.946 -1.0715 -0.2015  0.7936
 2649TIP3   OH229581   1.205   5.855   7.998  0.9552  0.2119  0.0439
 2649TIP3    H129582   1.172   5.941   8.025 -0.9928 -0.4413 -0.0610
 2649TIP3    H229583   1.227   5.866   7.905 -0.9218  0.2193 -0.4490
 2650TIP3   OH229584   0.810   0.479   1.621  0.2947 -0.6074 -0.3624
 2650TIP3    H129585   0.757   0.425   1.562  1.5623  0.2074 -2.3486
 2650TIP3    H229586   0.820   0.425   1.700 -0.1147 -2.4431 -1.5022
 2651TIP3   OH229587   3.628   0.699   1.764  0.4209 -0.6346 -0.5974
 2651TIP3    H129588   3.629   0.793   1.745  1.2966 -0.9756 -2.5153
 2651TIP3    H229589   3.623   0.694   1.860  1.6143  1.3945 -0.3552
 2652TIP3   OH229590   1.993   4.576   1.252 -0.0156  0.3122 -0.1369
 2652TIP3    H129591   1.965   4.551   1.340 -1.2044  0.5939 -0.4285
 2652TIP3    H229592   2.082   4.541   1.245 -0.2714 -0.5734  0.8176
 2653TIP3   OH229593   0.651   1.248   6.883 -0.3409  0.3807  0.1174
 2653TIP3    H129594   0.713   1.186   6.845 -0.7952 -0.6639  1.0565
 2653TIP3    H229595   0.618   1.298   6.808  0.5428 -0.0358 -0.5619
 2654TIP3   OH229596   2.765   6.325   0.402  0.7175 -0.0022  0.4328
 2654TIP3    H129597   2.764   6.278   0.485  0.7592  0.3543  0.6404
 2654TIP3    H229598   2.676   6.318   0.369  0.5746  0.2798  0.7544
 2655TIP3   OH229599   0.799   0.611   7.887 -0.4806  0.1233  0.1773
 2655TIP3    H129600   0.832   0.594   7.975  0.2593  0.7773  0.0305
 2655TIP3    H229601   0.849   0.687   7.856 -0.0506 -0.6769 -1.1737
 2656TIP3   OH229602   6.683   1.414   1.579 -0.1251 -0.1277 -0.4593
 2656TIP3    H129603   6.605   1.371   1.612  1.3019 -0.4338  2.8918
 2656TIP3    H229604   6.744   1.343   1.561  0.9023  0.2500  1.3545
 2657TIP3   OH229605   4.007   1.050   8.543  0.5635  0.0612  0.1616
 2657TIP3    H129606   3.959   0.970   8.562 -2.0779  1.4830 -0.0716
 2657TIP3    H229607   3.960   1.119   8.591  2.4789  1.5532  0.0320
 2658TIP3   OH229608   0.687   1.734   1.780 -0.1901  0.6779 -0.6299
 2658TIP3    H129609   0.759   1.797   1.775 -0.1606  0.7304  0.3141
 2658TIP3    H229610   0.688   1.690   1.695  1.2978  0.2976 -0.4344
 2659TIP3   OH229611   0.438   4.403   0.688  0.6702  0.0563  0.3294
 2659TIP3    H129612   0.510   4.371   0.635 -0.2918  1.1219 -1.7177
 2659TIP3    H229613   0.406   4.480   0.642  1.2697  2.5700  3.7037
 2660TIP3   OH229614   0.819   1.505   8.432  0.1768  0.0605 -0.0538
 2660TIP3    H129615   0.895   1.512   8.489 -0.0147  2.5643  0.0256
 2660TIP3    H229616   0.761   1.575   8.461 -0.7286  0.2627 -2.1615
 2661TIP3   OH229617   1.390   4.225   1.691 -0.1278  0.5781 -0.5519
 2661TIP3    H129618   1.461   4.161   1.698  0.2202  0.9981 -0.1986
 2661TIP3    H229619   1.399   4.280   1.769 -1.5008 -0.0321  0.0779
 2662TIP3   OH229620   0.850   3.819   7.636 -0.3557  0.5831  0.0282
 2662TIP3    H129621   0.821   3.867   7.558 -1.7534 -1.3000 -0.6840
 2662TIP3    H229622   0.941   3.796   7.617 -0.1135  1.6884 -0.2344
 2663TIP3   OH229623   0.724   5.503   1.894  0.3095  0.2367 -0.0152
 2663TIP3    H129624   0.766   5.545   1.819 -0.9543 -1.4224 -1.8024
 2663TIP3    H229625   0.794   5.455   1.938  0.9650  0.6288 -0.6157
 2664TIP3   OH229626   3.941   3.543   1.192 -0.1897  0.7128  0.4405
 2664TIP3    H129627   3.871   3.593   1.234 -1.2475  1.0616 -1.6299
 2664TIP3    H229628   4.011   3.607   1.180 -0.3084  0.8861  0.6533
 2665TIP3   OH229629   1.654   4.923   8.965 -0.8946 -0.3129 -0.3949
 2665TIP3    H129630   1.730   4.868   8.945 -0.5628  0.0814 -0.2461
 2665TIP3    H229631   1.624   4.955   8.880 -1.5391 -1.3028 -0.5465
 2666TIP3   OH229632   6.511   3.963   1.350 -0.0550 -0.4630  0.2245
 2666TIP3    H129633   6.471   3.877   1.341  0.8060 -0.8389 -0.0980
 2666TIP3    H229634   6.439   4.025   1.336 -0.0418 -1.0676 -3.1792
 2667TIP3   OH229635   2.128   5.053   8.462  0.6177 -0.2496  0.3618
 2667TIP3    H129636   2.090   5.096   8.538  0.0053  0.6745 -0.4307
 2667TIP3    H229637   2.132   5.122   8.395  1.6300 -0.8971 -0.2767
 2668TIP3   OH229638   2.770   1.937   6.896 -0.1721 -0.3294  0.4674
 2668TIP3    H129639   2.721   1.867   6.940  1.0887 -1.1941  0.5548
 2668TIP3    H229640   2.859   1.903   6.890  0.5127  1.3727  0.6717
 2669TIP3   OH229641   2.748   3.617   8.083 -0.4608 -0.2913 -0.1531
 2669TIP3    H129642   2.729   3.523   8.092  0.2252 -0.5119 -0.8513
 2669TIP3    H229643   2.797   3.623   8.000  1.8524  0.3063  1.1770
 2670TIP3   OH229644   1.393   0.964   0.222  0.1218  0.2184  0.1515
 2670TIP3    H129645   1.487   0.958   0.238  0.2475  1.1145 -0.1828
 2670TIP3    H229646   1.368   0.877   0.193  1.1918  0.4103 -1.4722
 2671TIP3   OH229647   5.834   3.383   1.454 -0.6030  0.3378  0.6643
 2671TIP3    H129648   5.862   3.457   1.400  0.0750  0.4584  1.1709
 2671TIP3    H229649   5.741   3.373   1.435 -0.5801  0.9853  0.1946
 2672TIP3   OH229650   5.815   3.588   0.090 -0.2265 -0.3638  0.4994
 2672TIP3    H129651   5.840   3.527   0.159  2.2574 -1.9353 -1.6123
 2672TIP3    H229652   5.897   3.633   0.068 -1.4063  1.6440 -0.0260
 2673TIP3   OH229653   6.433   6.321   0.075  0.0073  0.6881 -0.2926
 2673TIP3    H129654   6.490   6.374   0.130 -1.1816  2.8644 -1.0308
 2673TIP3    H229655   6.356   6.376   0.060 -1.3198 -1.2656 -1.1397
 2674TIP3   OH229656   5.789   6.673   0.637  0.0165 -0.1583  0.2021
 2674TIP3    H129657   5.833   6.612   0.578 -0.5359 -0.0057 -0.3740
 2674TIP3    H229658   5.743   6.616   0.700  2.0326 -0.3293  1.6056
 2675TIP3   OH229659   6.050   5.970   0.418  0.5573 -0.1623 -0.0247
 2675TIP3    H129660   6.044   6.063   0.439  1.7212 -0.5238  2.1434
 2675TIP3    H229661   5.962   5.936   0.437  1.0789 -0.1328  2.9341
 2676TIP3   OH229662   1.397   5.514   6.434 -0.5253  0.4148  0.3807
 2676TIP3    H129663   1.408   5.608   6.422  0.2275  0.2883 -0.0301
 2676TIP3    H229664   1.484   5.483   6.459 -0.9705 -0.0526  1.3763
 2677TIP3   OH229665   2.975   5.783   8.435  0.0960  0.5230  0.2742
 2677TIP3    H129666   2.973   5.824   8.522 -0.8726 -1.6114  1.3428
 2677TIP3    H229667   2.951   5.854   8.375  0.9782  2.1120  1.7035
 2678TIP3   OH229668   6.460   4.859   6.894  0.1289 -0.0515 -0.2355
 2678TIP3    H129669   6.393   4.795   6.917  0.9155 -0.7387  0.2052
 2678TIP3    H229670   6.481   4.842   6.803 -1.5638  1.3595 -0.9460
 2679TIP3   OH229671   3.463   0.922   7.581 -0.1299  0.0398  0.2302
 2679TIP3    H129672   3.460   1.017   7.592  0.8236  0.2260 -0.8458
 2679TIP3    H229673   3.409   0.905   7.503  1.2403 -0.0507 -0.7377
 2680TIP3   OH229674   4.484   2.172   8.042 -0.6072 -0.2671  0.2868
 2680TIP3    H129675   4.492   2.266   8.061  5.6906 -0.7434  2.4422
 2680TIP3    H229676   4.473   2.132   8.128  0.1352 -1.6306 -0.2393
 2681TIP3   OH229677   3.523   5.658   6.283 -0.2332  0.9141 -0.1213
 2681TIP3    H129678   3.618   5.658   6.272  0.2327 -0.2143  2.8057
 2681TIP3    H229679   3.504   5.744   6.322 -0.2150  0.7350  0.2952
 2682TIP3   OH229680   3.303   3.671   6.210  0.2113  0.7266 -0.0581
 2682TIP3    H129681   3.325   3.626   6.291 -5.3967 -0.5794  1.1520
 2682TIP3    H229682   3.312   3.604   6.142  2.4015  1.0951 -0.2056
 2683TIP3   OH229683   2.764   2.681   7.723  0.4533  0.3606 -0.2609
 2683TIP3    H129684   2.846   2.685   7.674  0.7651 -0.3150  0.1787
 2683TIP3    H229685   2.724   2.598   7.695  0.2155  0.3951 -0.0284
 2684TIP3   OH229686   1.329   2.975   7.744  0.3716 -0.0301 -0.8300
 2684TIP3    H129687   1.254   2.951   7.690  0.4741 -2.2936 -0.0691
 2684TIP3    H229688   1.402   2.977   7.683  0.3017 -1.5012 -1.0089
 2685TIP3   OH229689   6.373   2.771   6.496 -0.0725 -0.0991  0.5913
 2685TIP3    H129690   6.293   2.726   6.523 -0.4807  0.8117  0.9213
 2685TIP3    H229691   6.366   2.779   6.401 -0.3796  0.0086  0.6246
 2686TIP3   OH229692   4.048   5.114   1.546  0.0612 -1.1731 -0.3539
 2686TIP3    H129693   3.973   5.174   1.551 -0.4656 -1.8740  0.4464
 2686TIP3    H229694   4.015   5.032   1.581  0.6028 -2.1280 -1.9453
 2687TIP3   OH229695   6.721   4.174   7.431  0.4692  0.3991  0.4116
 2687TIP3    H129696   6.676   4.150   7.512 -1.7148  1.0705 -0.5366
 2687TIP3    H229697   6.814   4.164   7.452 -0.0741 -0.9245  2.5101
 2688TIP3   OH229698   1.929   5.180   0.087 -0.4206 -0.2739  0.1982
 2688TIP3    H129699   1.971   5.265   0.099  0.2894 -0.1176 -2.7021
 2688TIP3    H229700   1.841   5.192   0.123  0.4979  0.7923  2.2663
 2689TIP3   OH229701   1.617   1.555   0.936  0.1831 -0.4076  0.0455
 2689TIP3    H129702   1.682   1.590   0.875 -0.4896  1.1383  0.1792
 2689TIP3    H229703   1.607   1.623   1.002 -1.7246 -0.5019 -0.0938
 2690TIP3   OH229704   1.346   2.064   7.792 -0.1785 -0.4193 -0.5538
 2690TIP3    H129705   1.322   2.032   7.878 -2.0991 -0.5836 -1.1186
 2690TIP3    H229706   1.432   2.106   7.805 -1.0349  0.7748  1.7055
 2691TIP3   OH229707   0.134   3.232   7.894 -0.0930 -0.2751  0.2461
 2691TIP3    H129708   0.222   3.257   7.921 -0.9702  0.5793  2.5477
 2691TIP3    H229709   0.111   3.296   7.826 -0.0716  1.5707  1.8785
 2692TIP3   OH229710   0.002   0.121   6.927  0.5544 -0.6889 -0.2145
 2692TIP3    H129711  -0.056   0.106   6.853 -2.0167  2.4486  0.9264
 2692TIP3    H229712   0.039   0.208   6.911  2.3328 -1.2007  0.8075
 2693TIP3   OH229713   4.245   1.853   6.643 -0.2179  0.2528 -0.9528
 2693TIP3    H129714   4.295   1.930   6.670  1.1072 -1.5626  2.2934
 2693TIP3    H229715   4.305   1.805   6.585  0.8558 -0.5728  0.7733
 2694TIP3   OH229716   3.569   5.732   0.788  0.0856 -0.5580 -0.0201
 2694TIP3    H129717   3.507   5.755   0.858 -0.4694 -0.7870 -0.4227
 2694TIP3    H229718   3.554   5.799   0.720  1.7188  0.5995  0.7052
 2695TIP3   OH229719   5.295   3.131   7.131  0.4244  0.3160 -0.1158
 2695TIP3    H129720   5.304   3.222   7.103 -0.2508  0.7679  1.0361
 2695TIP3    H229721   5.371   3.087   7.094 -0.1733  0.9384 -2.1950
 2696TIP3   OH229722   4.391   4.452   8.214  0.0173 -0.1262 -0.0104
 2696TIP3    H129723   4.298   4.446   8.238 -0.0245 -0.4656 -0.2560
 2696TIP3    H229724   4.437   4.463   8.297 -0.0545 -1.9970  0.3058
 2697TIP3   OH229725   0.419   6.042   7.070 -0.4490  0.1442 -0.3511
 2697TIP3    H129726   0.408   5.985   6.994 -1.7235  0.9800 -0.8324
 2697TIP3    H229727   0.513   6.055   7.077 -0.2538 -0.7065 -1.2181
 2698TIP3   OH229728   4.227   4.774   7.436  0.0617  0.7268 -0.2616
 2698TIP3    H129729   4.135   4.760   7.456 -0.5010  1.6385 -1.9421
 2698TIP3    H229730   4.266   4.687   7.437 -0.8312  0.3243  0.4237
 2699TIP3   OH229731   1.648   0.773   1.901  0.2071 -0.5927 -0.1142
 2699TIP3    H129732   1.732   0.747   1.862 -0.0250 -1.4368 -0.0855
 2699TIP3    H229733   1.621   0.695   1.950 -0.6468 -0.3684 -0.2240
 2700TIP3   OH229734   6.453   6.151   2.372  0.1971 -0.3097  0.6346
 2700TIP3    H129735   6.494   6.216   2.315 -1.3380  0.5444  0.4497
 2700TIP3    H229736   6.403   6.202   2.435  0.0460 -1.2943  1.3450
 2701TIP3   OH229737   4.040   0.457   7.512  0.3206 -0.1402  0.2398
 2701TIP3    H129738   4.112   0.457   7.449  0.2606  0.8471  0.1624
 2701TIP3    H229739   4.060   0.528   7.572  0.6003 -1.3335  1.6272
 2702TIP3   OH229740   2.032   1.234   7.998 -0.1355  0.1020 -0.1553
 2702TIP3    H129741   1.979   1.154   7.989 -0.9608  0.7610 -1.5134
 2702TIP3    H229742   2.121   1.202   8.009 -0.5013 -1.0216 -0.3007
 2703TIP3   OH229743   0.587   6.607   6.804  0.1447  0.1850  0.2787
 2703TIP3    H129744   0.531   6.653   6.866  0.8820 -0.7442  1.6797
 2703TIP3    H229745   0.605   6.671   6.735  0.4543  1.7034  1.7216
 2704TIP3   OH229746   3.382   0.586   7.405  0.2777  0.1766  0.2778
 2704TIP3    H129747   3.366   0.493   7.419  0.1703  0.3719  1.5883
 2704TIP3    H229748   3.297   0.623   7.382 -0.2089  0.3457  2.1959
 2705TIP3   OH229749   1.846   5.772   7.803  0.4212  0.1728  0.0782
 2705TIP3    H129750   1.899   5.693   7.817  0.9599  0.1162 -1.9493
 2705TIP3    H229751   1.764   5.755   7.849  0.9193 -1.1391  0.5137
 2706TIP3   OH229752   5.133   2.939   8.475  0.2432  0.6106  0.8019
 2706TIP3    H129753   5.099   3.010   8.420  2.1783  1.2082  0.2852
 2706TIP3    H229754   5.215   2.914   8.433  1.8449  1.0934  3.4105
 2707TIP3   OH229755   0.389   0.185   1.582  0.0866  0.0087  0.6767
 2707TIP3    H129756   0.458   0.166   1.518 -1.5114 -1.4349 -0.7386
 2707TIP3    H229757   0.401   0.119   1.650 -0.4731 -0.8955 -0.0793
 2708TIP3   OH229758   6.198   4.686   1.978 -0.0282 -0.1275 -0.3515
 2708TIP3    H129759   6.285   4.688   1.938 -0.6455  1.1144 -1.6916
 2708TIP3    H229760   6.157   4.767   1.951 -1.3916 -0.3988  0.8055
 2709TIP3   OH229761   1.103   5.796   0.386  0.0208  0.0211  0.6334
 2709TIP3    H129762   1.171   5.826   0.325 -0.2252  0.2251  0.4599
 2709TIP3    H229763   1.127   5.705   0.404 -0.2001 -0.2101 -0.1855
 2710TIP3   OH229764   3.975   4.481   0.794  0.3667  0.4867  0.4311
 2710TIP3    H129765   3.946   4.474   0.885 -0.9448 -0.3347 -0.0126
 2710TIP3    H229766   3.914   4.426   0.746  3.1843 -2.0567 -0.5269
 2711TIP3   OH229767   5.552   2.340   7.772  0.2404  0.1186 -0.7133
 2711TIP3    H129768   5.625   2.345   7.710  1.1362 -0.0933  0.2788
 2711TIP3    H229769   5.590   2.298   7.850 -0.5894  1.2187  0.3221
 2712TIP3   OH229770   0.820   2.526   8.337  0.0901 -0.2639 -0.5785
 2712TIP3    H129771   0.820   2.618   8.309  1.2999 -0.2025 -0.4175
 2712TIP3    H229772   0.910   2.496   8.322 -0.6107 -1.8471 -1.9367
 2713TIP3   OH229773   2.499   5.368   8.917  0.9134 -0.0392 -0.1866
 2713TIP3    H129774   2.492   5.424   8.839 -0.3485  0.8658  0.5507
 2713TIP3    H229775   2.569   5.409   8.969 -0.3988  1.2492  0.6261
 2714TIP3   OH229776   0.401   6.650   0.695  0.3051  0.3951  0.4545
 2714TIP3    H129777   0.491   6.628   0.673 -0.0437 -1.5953  0.8749
 2714TIP3    H229778   0.392   6.742   0.669  2.3317  0.5296  0.0810
 2715TIP3   OH229779   1.763   1.940   0.200  0.4556 -0.7907 -0.2142
 2715TIP3    H129780   1.809   1.999   0.259 -0.1913 -1.1015  0.6254
 2715TIP3    H229781   1.795   1.963   0.113  1.1148 -0.0370  0.2141
 2716TIP3   OH229782   5.281   3.147   1.088 -0.0181  0.2714  0.1844
 2716TIP3    H129783   5.349   3.090   1.122  0.2503  0.0656 -0.6664
 2716TIP3    H229784   5.219   3.157   1.160 -0.3503 -1.5191  0.1926
 2717TIP3   OH229785   4.394   3.286   8.923 -0.1845  0.2721  0.4893
 2717TIP3    H129786   4.300   3.284   8.941 -0.0455 -0.5556  1.1947
 2717TIP3    H229787   4.416   3.379   8.917 -0.6637  0.5696  2.5246
 2718TIP3   OH229788   2.143   0.468   7.444  0.6325  0.2212  0.4115
 2718TIP3    H129789   2.201   0.405   7.400  0.3565 -1.1104  1.8323
 2718TIP3    H229790   2.057   0.451   7.407  0.2843 -1.3284  1.7844
 2719TIP3   OH229791   6.034   5.235   1.186 -0.8441 -0.3118 -0.3997
 2719TIP3    H129792   6.001   5.169   1.125  0.8325 -0.5577 -1.1118
 2719TIP3    H229793   6.092   5.186   1.245 -3.1944 -0.2618  2.1105
 2720TIP3   OH229794   6.205   0.988   6.502  0.2120  0.3143  0.4318
 2720TIP3    H129795   6.117   0.954   6.516  0.9462 -2.3561 -0.8394
 2720TIP3    H229796   6.260   0.941   6.564  1.0168  0.6058 -0.0408
 2721TIP3   OH229797   2.037   5.116   1.406 -0.6385  0.3019  0.7727
 2721TIP3    H129798   2.027   5.042   1.345 -3.0570 -0.2854  1.7782
 2721TIP3    H229799   2.050   5.074   1.492 -0.9778  1.0673  1.2014
 2722TIP3   OH229800   3.977   1.934   7.606 -0.0930 -0.4238 -0.0462
 2722TIP3    H129801   3.937   1.858   7.649  0.2054 -0.8668 -0.5378
 2722TIP3    H229802   4.037   1.969   7.671 -1.8928  0.7920  1.0440
 2723TIP3   OH229803   2.749   5.858   7.198 -0.4439 -0.0138 -0.1893
 2723TIP3    H129804   2.773   5.849   7.290  2.0638 -0.7861 -0.8325
 2723TIP3    H229805   2.708   5.944   7.192 -0.3005  0.2093  1.5777
 2724TIP3   OH229806   2.314   6.224   8.301 -0.2244 -0.3487 -0.6675
 2724TIP3    H129807   2.408   6.213   8.288 -0.1978 -0.3249 -0.5006
 2724TIP3    H229808   2.275   6.198   8.218 -0.0132  0.5336 -1.0553
 2725TIP3   OH229809   0.660   3.295   8.819  0.0638 -0.2393  0.1048
 2725TIP3    H129810   0.666   3.391   8.815 -0.8229 -0.2105 -0.8309
 2725TIP3    H229811   0.748   3.265   8.798 -0.3061  0.3374 -2.6729
 2726TIP3   OH229812   4.220   1.477   7.919 -0.3663 -0.4494  0.0720
 2726TIP3    H129813   4.193   1.492   8.010 -0.7156  0.8294 -0.2246
 2726TIP3    H229814   4.165   1.404   7.889 -0.5832 -0.5620  0.7367
 2727TIP3   OH229815   0.690   4.491   2.430  0.0815 -0.4122 -0.6577
 2727TIP3    H129816   0.603   4.521   2.404  0.3899  0.3107 -0.8881
 2727TIP3    H229817   0.690   4.398   2.409 -0.7792 -0.5155 -0.2664
 2728TIP3   OH229818   0.891   2.560   8.956 -0.6278  0.4752  0.6201
 2728TIP3    H129819   0.923   2.577   8.868  0.8273  0.7543  1.1649
 2728TIP3    H229820   0.875   2.648   8.992 -1.1419  0.3657  0.6643
 2729TIP3   OH229821   4.580   1.506   8.588 -0.1327 -0.0261 -0.6412
 2729TIP3    H129822   4.560   1.413   8.590 -2.4518  0.4089 -0.8235
 2729TIP3    H229823   4.515   1.546   8.645  0.5880  1.5258 -0.8525
 2730TIP3   OH229824   3.118   1.870   8.891 -0.3250 -0.0709  0.2098
 2730TIP3    H129825   3.212   1.863   8.873 -0.4137 -1.4674  0.1960
 2730TIP3    H229826   3.085   1.932   8.825  0.7119  1.1013  0.7535
 2731TIP3   OH229827   1.109   2.592   2.097  0.6744 -0.6700  0.0237
 2731TIP3    H129828   1.193   2.608   2.053  1.2754 -2.5834  0.3816
 2731TIP3    H229829   1.110   2.652   2.171  0.5073  1.2116 -1.4141
 2732TIP3   OH229830   6.474   3.155   8.478 -0.3374  0.3284  0.0556
 2732TIP3    H129831   6.461   3.176   8.571 -0.3738 -0.3677  0.2150
 2732TIP3    H229832   6.430   3.226   8.432  1.6394  1.9649  0.5202
 2733TIP3   OH229833   1.676   4.156   1.678  0.1472 -0.4433 -0.1311
 2733TIP3    H129834   1.682   4.224   1.611 -1.7151 -0.9763 -0.9289
 2733TIP3    H229835   1.722   4.191   1.754  0.8882  0.8693 -1.1560
 2734TIP3   OH229836   4.883   4.282   2.118  0.2901  0.1159 -0.6112
 2734TIP3    H129837   4.900   4.372   2.091 -0.1261  0.1719 -0.6856
 2734TIP3    H229838   4.906   4.280   2.211  0.5716  0.2258 -0.6771
 2735TIP3   OH229839   3.320   5.214   8.900  0.0550 -0.4043  0.1464
 2735TIP3    H129840   3.285   5.139   8.852 -0.5476 -1.3510  1.9632
 2735TIP3    H229841   3.244   5.270   8.916 -0.0690 -0.8887  1.3417
 2736TIP3   OH229842   5.695   1.911   0.668 -0.1030 -0.2111 -0.0451
 2736TIP3    H129843   5.773   1.871   0.629 -1.1078 -1.5402 -0.7484
 2736TIP3    H229844   5.638   1.837   0.690 -2.0437  0.7914 -1.4359
 2737TIP3   OH229845   5.280   5.431   8.500 -0.3735  0.2507 -0.3946
 2737TIP3    H129846   5.352   5.489   8.476  0.4507  0.0113  1.3327
 2737TIP3    H229847   5.279   5.364   8.431 -0.8161  1.8064 -1.9804
 2738TIP3   OH229848   5.746   3.184   7.250 -0.2629 -0.2742 -0.0733
 2738TIP3    H129849   5.686   3.186   7.324  1.7694 -1.7919  1.7546
 2738TIP3    H229850   5.700   3.229   7.180 -3.2356 -0.8184  1.3971
 2739TIP3   OH229851   2.519   0.888   8.320  0.1204 -0.4220  0.3959
 2739TIP3    H129852   2.563   0.811   8.357  0.1960 -0.9799 -0.7946
 2739TIP3    H229853   2.496   0.941   8.395 -1.2819 -2.3177  1.3844
 2740TIP3   OH229854   6.479   2.092   0.783  0.3841  0.0775  0.1143
 2740TIP3    H129855   6.573   2.108   0.789  0.0519  3.0033 -0.7536
 2740TIP3    H229856   6.465   2.064   0.692  0.3028  1.1247 -0.2155
 2741TIP3   OH229857   3.704   4.161   7.268  1.0370  0.3389  0.1662
 2741TIP3    H129858   3.629   4.103   7.255  0.5210  0.8760  0.6269
 2741TIP3    H229859   3.667   4.236   7.316  1.7832  0.8105  0.0174
 2742TIP3   OH229860   1.644   1.424   1.188 -0.2259  0.5751  0.1353
 2742TIP3    H129861   1.652   1.329   1.200  0.1930  0.6850  0.7345
 2742TIP3    H229862   1.624   1.434   1.095  1.2999 -0.0163 -0.2738
 2743TIP3   OH229863   3.283   4.029   0.458  0.3894 -0.3970  0.5733
 2743TIP3    H129864   3.206   3.984   0.492  0.8311 -0.2745  1.8127
 2743TIP3    H229865   3.305   4.093   0.526  1.0496  0.1878 -0.1708
 2744TIP3   OH229866   3.515   4.386   1.427 -0.3277  0.0545  0.0438
 2744TIP3    H129867   3.467   4.342   1.357 -0.2668  0.6002 -0.3484
 2744TIP3    H229868   3.523   4.320   1.496  1.1326 -1.0945 -1.1541
 2745TIP3   OH229869   4.101   1.408   8.153  0.3779 -0.1130  0.4094
 2745TIP3    H129870   4.067   1.334   8.103  0.7920 -0.9949  1.3753
 2745TIP3    H229871   4.023   1.455   8.182 -0.0186 -1.3109  1.4173
 2746TIP3   OH229872   0.205   6.299   7.001  0.4916  0.5470  0.0400
 2746TIP3    H129873   0.211   6.292   7.096  0.0315 -1.2432 -0.0273
 2746TIP3    H229874   0.168   6.386   6.985  0.5970  0.8784  1.4872
 2747TIP3   OH229875   0.739   5.739   0.175 -0.2439  0.0540 -0.4542
 2747TIP3    H129876   0.752   5.805   0.107 -1.1116  2.4408  1.5251
 2747TIP3    H229877   0.645   5.720   0.171 -0.6256  1.3916  0.9667
 2748TIP3   OH229878   5.225   0.295   0.344 -0.0808  0.2624 -0.2356
 2748TIP3    H129879   5.272   0.354   0.403 -0.9935  1.1580 -0.3710
 2748TIP3    H229880   5.177   0.353   0.285 -2.9469 -0.4986  1.1442
 2749TIP3   OH229881   3.549   2.335   1.084  0.2850  0.0224 -0.3481
 2749TIP3    H129882   3.507   2.278   1.019 -1.2168  2.0019 -1.2216
 2749TIP3    H229883   3.608   2.390   1.033 -0.4353  1.1743  0.0265
 2750TIP3   OH229884   2.563   5.923   2.147  0.1790 -0.1576 -0.5279
 2750TIP3    H129885   2.617   5.960   2.077 -0.2664  1.5152 -0.0257
 2750TIP3    H229886   2.473   5.942   2.120 -0.0076  0.1911  0.3202
 2751TIP3   OH229887   0.943   3.439   0.890 -0.1033 -0.3935 -0.0136
 2751TIP3    H129888   0.903   3.525   0.906  0.1533 -0.4356  0.8944
 2751TIP3    H229889   0.891   3.379   0.942  0.9311 -0.4990  0.9285
 2752TIP3   OH229890   2.518   3.057   8.373 -0.7471 -0.1298  0.0493
 2752TIP3    H129891   2.557   3.063   8.286 -0.0206  1.9868  0.4606
 2752TIP3    H229892   2.587   3.086   8.432 -1.6221 -0.3615  1.2160
 2753TIP3   OH229893   5.349   2.823   7.191 -0.5570 -0.5587 -0.6793
 2753TIP3    H129894   5.300   2.754   7.147  0.8447 -1.0105 -1.5818
 2753TIP3    H229895   5.373   2.884   7.121 -2.2992  1.2428  0.1699
 2754TIP3   OH229896   0.422   2.709   7.175 -0.1919  0.2088  0.4772
 2754TIP3    H129897   0.356   2.777   7.156 -0.2131 -0.3683 -1.8462
 2754TIP3    H229898   0.496   2.758   7.211 -1.2663  1.0764  1.6171
 2755TIP3   OH229899   0.340   5.410   8.292  0.5129 -0.3064 -0.1223
 2755TIP3    H129900   0.385   5.338   8.248  1.6111 -0.5666  1.3448
 2755TIP3    H229901   0.320   5.376   8.379 -2.2835 -0.0795 -0.5793
 2756TIP3   OH229902   3.435   4.756   2.281  0.1139 -0.3023 -0.2725
 2756TIP3    H129903   3.403   4.820   2.344  1.5877  0.7963 -0.5969
 2756TIP3    H229904   3.477   4.807   2.212  5.5322 -1.4260  1.6159
 2757TIP3   OH229905   4.078   5.836   0.536  1.0512  0.3753  0.0338
 2757TIP3    H129906   3.996   5.830   0.586  0.6851  1.3543 -0.4287
 2757TIP3    H229907   4.068   5.771   0.466  0.9418  0.0502  0.3456
 2758TIP3   OH229908   2.692   0.228   8.890  0.1409  0.1797  0.3186
 2758TIP3    H129909   2.631   0.154   8.885  0.7228 -0.3645  1.0074
 2758TIP3    H229910   2.748   0.217   8.813 -0.2603  0.3499 -0.0011
 2759TIP3   OH229911   1.381   4.692   2.088 -0.0207  0.3548 -0.0573
 2759TIP3    H129912   1.367   4.674   1.995  0.9447 -0.0554 -0.1334
 2759TIP3    H229913   1.306   4.747   2.114 -1.6272 -1.5152 -0.4748
 2760TIP3   OH229914   2.859   1.941   8.051  0.0397 -0.5861  0.2125
 2760TIP3    H129915   2.919   1.879   8.093  0.1528 -1.0062 -0.5527
 2760TIP3    H229916   2.916   2.005   8.010 -0.0049 -1.1113 -0.7090
 2761TIP3   OH229917   1.427   3.966   7.365  1.0478 -0.0388  0.0738
 2761TIP3    H129918   1.520   3.940   7.362  1.4302  1.1025  1.1548
 2761TIP3    H229919   1.393   3.923   7.443  0.4352 -1.0976 -0.7538
 2762TIP3   OH229920   1.775   3.609   0.424  0.1582  0.0950  0.9888
 2762TIP3    H129921   1.860   3.645   0.451 -0.1566 -0.9033  3.5681
 2762TIP3    H229922   1.714   3.681   0.435  0.3605  0.2738  0.9507
 2763TIP3   OH229923   5.810   6.765   1.059 -0.4680  0.4847  0.1909
 2763TIP3    H129924   5.889   6.711   1.064 -0.9245 -0.0851  2.1524
 2763TIP3    H229925   5.842   6.853   1.040  0.5624  0.1070  0.1003
 2764TIP3   OH229926   1.399   1.710   0.348  0.9329 -0.4160 -0.6499
 2764TIP3    H129927   1.459   1.782   0.368  1.1926 -1.1453  1.5188
 2764TIP3    H229928   1.454   1.632   0.348  0.2697 -0.8979 -0.2990
 2765TIP3   OH229929   4.439   3.830   2.133  0.3049  0.0236  0.6654
 2765TIP3    H129930   4.371   3.824   2.200 -1.7831  2.9845 -0.9704
 2765TIP3    H229931   4.401   3.789   2.055  1.1760  0.0507  0.2047
 2766TIP3   OH229932   0.410   0.837   1.867 -0.5671 -0.2418  0.0388
 2766TIP3    H129933   0.413   0.758   1.921  0.5952  0.2109  0.6834
 2766TIP3    H229934   0.502   0.855   1.847 -0.6793  1.7642  1.1264
 2767TIP3   OH229935   1.952   3.556   1.552  0.0994 -0.1704  0.3026
 2767TIP3    H129936   1.918   3.640   1.582  0.4339  0.5483 -1.2172
 2767TIP3    H229937   2.041   3.553   1.586  0.3946  0.5249 -0.3647
 2768TIP3   OH229938   4.032   3.177   7.244 -0.1247 -0.0180  0.1911
 2768TIP3    H129939   4.058   3.237   7.314  2.7424  0.5017 -1.1708
 2768TIP3    H229940   3.977   3.111   7.287 -0.2359  1.4746  2.4580
 2769TIP3   OH229941   2.583   4.327   0.350  0.1042 -0.7011  0.1107
 2769TIP3    H129942   2.521   4.323   0.423 -0.0698  0.1319  0.0222
 2769TIP3    H229943   2.574   4.242   0.307 -0.9021 -0.6459  0.1744
 2770TIP3   OH229944   2.894   3.716   8.704  0.1207  0.2741  0.3792
 2770TIP3    H129945   2.821   3.656   8.689  0.3570 -0.1807  1.0178
 2770TIP3    H229946   2.966   3.660   8.732  1.5681  0.3690 -2.7431
 2771TIP3   OH229947   2.414   5.483   8.379  0.1202 -0.3367 -0.3783
 2771TIP3    H129948   2.446   5.504   8.291 -0.8083 -0.4043 -0.7445
 2771TIP3    H229949   2.358   5.406   8.366  0.2891 -0.5836  0.3344
 2772TIP3   OH229950   6.584   1.145   0.490  0.2907 -0.4107  0.3249
 2772TIP3    H129951   6.532   1.193   0.426  0.0728 -0.6397  0.3277
 2772TIP3    H229952   6.573   1.194   0.572  2.7573  1.4594 -0.3748
 2773TIP3   OH229953   5.869   2.336   6.353  0.0010 -0.0924  0.3710
 2773TIP3    H129954   5.811   2.412   6.353 -1.3193 -1.0683  1.1835
 2773TIP3    H229955   5.937   2.359   6.289 -1.4357  0.9583 -0.8600
 2774TIP3   OH229956   2.644   4.517   1.237 -0.1282 -0.4947 -0.1394
 2774TIP3    H129957   2.607   4.430   1.251  1.1919 -1.0270  0.1272
 2774TIP3    H229958   2.638   4.561   1.322 -1.8955  0.1490 -0.5450
 2775TIP3   OH229959   5.126   4.971   8.427 -0.4570 -0.2022 -0.2509
 2775TIP3    H129960   5.141   5.061   8.397 -0.2398 -0.2565 -0.3112
 2775TIP3    H229961   5.033   4.956   8.413 -0.5697  0.1460  0.1280
 2776TIP3   OH229962   4.511   6.631   0.113 -0.7998 -0.1359 -0.0144
 2776TIP3    H129963   4.511   6.716   0.156 -2.2299 -0.5498  0.8732
 2776TIP3    H229964   4.472   6.571   0.177  0.3279 -1.5088 -0.5433
 2777TIP3   OH229965   0.076   2.836   1.354  0.2886 -0.2824 -0.6005
 2777TIP3    H129966   0.108   2.869   1.270 -1.6299 -1.9684 -2.0882
 2777TIP3    H229967   0.115   2.749   1.363  3.5849  1.2013  2.2610
 2778TIP3   OH229968   3.213   6.438   7.215  0.2875 -0.2389 -0.0987
 2778TIP3    H129969   3.221   6.395   7.301  3.2476 -2.2101 -1.1904
 2778TIP3    H229970   3.120   6.429   7.193 -0.3322 -0.7366  2.3668
 2779TIP3   OH229971   1.903   4.059   1.481 -0.2830  0.0047 -0.2786
 2779TIP3    H129972   1.809   4.061   1.465  0.0407 -0.3542 -2.6519
 2779TIP3    H229973   1.941   4.037   1.396  1.8889 -1.0705  0.8761
 2780TIP3   OH229974   5.988   3.467   0.775 -0.2876 -0.0655  0.3830
 2780TIP3    H129975   6.080   3.454   0.753 -0.4663  1.1754 -1.2977
 2780TIP3    H229976   5.958   3.534   0.714 -2.2354 -0.2196  1.0989
 2781TIP3   OH229977   4.760   3.120   8.534  0.6669 -0.3439  0.5771
 2781TIP3    H129978   4.834   3.180   8.546  1.5775 -1.5548  1.2567
 2781TIP3    H229979   4.798   3.045   8.488 -0.1080 -1.0581  1.0939
 2782TIP3   OH229980   0.619   5.860   7.724  0.1772  0.0228  0.0368
 2782TIP3    H129981   0.677   5.798   7.679 -0.7976  0.2777 -1.6260
 2782TIP3    H229982   0.661   5.945   7.711  0.7967 -0.0846  1.1533
 2783TIP3   OH229983   2.551   1.989   0.148 -0.5537  0.2552 -0.1757
 2783TIP3    H129984   2.558   1.920   0.083  1.9295  0.3846 -0.1532
 2783TIP3    H229985   2.553   2.070   0.098 -1.2262  0.3460 -0.0676
 2784TIP3   OH229986   2.820   3.179   7.678  0.1038 -0.0668 -0.0679
 2784TIP3    H129987   2.743   3.177   7.735  1.2640 -1.7805  1.5497
 2784TIP3    H229988   2.790   3.226   7.600 -2.1991  0.4303  1.0128
 2785TIP3   OH229989   0.344   3.369   8.023  0.3506 -0.2081 -0.3784
 2785TIP3    H129990   0.367   3.332   8.108 -1.9762  0.7343  0.7522
 2785TIP3    H229991   0.394   3.451   8.018  1.3350 -0.8011 -0.4369
 2786TIP3   OH229992   0.961   2.641   7.681  0.5847  0.2861  0.3401
 2786TIP3    H129993   0.912   2.631   7.600 -0.7620 -0.8181  1.2372
 2786TIP3    H229994   0.955   2.734   7.701 -0.2358  0.3509 -0.1393
 2787TIP3   OH229995   5.194   4.276   1.946 -0.2213  0.2237  0.1719
 2787TIP3    H129996   5.202   4.349   1.886  0.7223  0.0125  0.0206
 2787TIP3    H229997   5.110   4.235   1.924  0.6805 -0.6209 -1.8776
 2788TIP3   OH229998   3.711   2.851   8.812 -0.6016 -0.2326  0.4504
 2788TIP3    H129999   3.788   2.905   8.797 -1.9506  2.2003  1.6224
 2788TIP3    H230000   3.662   2.854   8.730  0.2859 -1.4639 -0.1646
 2789TIP3   OH230001   0.555   0.874   2.312  0.1226  0.6547 -0.7013
 2789TIP3    H130002   0.557   0.865   2.407  1.2203  1.0623 -0.6755
 2789TIP3    H230003   0.509   0.795   2.282 -0.4702  0.6485  0.1696
 2790TIP3   OH230004   6.708   0.596   7.673 -0.2097 -0.1395 -0.3844
 2790TIP3    H130005   6.640   0.529   7.676 -1.0319  0.7264  1.1171
 2790TIP3    H230006   6.717   0.626   7.763  1.3772  0.5667 -0.7410
 2791TIP3   OH230007   0.211   2.920   0.420 -0.5026 -0.1499 -0.2723
 2791TIP3    H130008   0.152   2.947   0.490  0.0180 -0.0987  0.1492
 2791TIP3    H230009   0.185   2.973   0.345  0.1489  1.1447  0.3920
 2792TIP3   OH230010   6.381   1.346   2.386  0.3847 -0.4606  0.3816
 2792TIP3    H130011   6.402   1.254   2.399  1.6148  0.0084  2.2933
 2792TIP3    H230012   6.452   1.378   2.330  0.0520 -0.6483 -0.1434
 2793TIP3   OH230013   2.366   3.882   1.144 -0.7014  0.1624 -0.0514
 2793TIP3    H130014   2.347   3.891   1.051  0.4466 -1.7921 -0.5225
 2793TIP3    H230015   2.304   3.816   1.175  0.6473 -1.1692 -0.0721
 2794TIP3   OH230016   6.271   2.024   7.466 -0.2734  0.0743 -0.3503
 2794TIP3    H130017   6.228   2.069   7.539 -0.1914  1.0745 -0.8964
 2794TIP3    H230018   6.214   1.951   7.444 -0.4580 -0.0413  0.5049
 2795TIP3   OH230019   2.905   2.776   0.916  0.5367 -0.1489  0.3933
 2795TIP3    H130020   2.834   2.813   0.969  0.0711  0.2060 -0.4587
 2795TIP3    H230021   2.951   2.717   0.976  1.4573  1.9463  1.8944
 2796TIP3   OH230022   5.772   1.472   1.450 -0.0956 -0.1596  0.7890
 2796TIP3    H130023   5.720   1.446   1.374 -1.9151  0.2790  1.8337
 2796TIP3    H230024   5.858   1.434   1.433 -0.1464  0.7193 -1.9313
 2797TIP3   OH230025   3.090   2.599   0.409 -0.3039  0.1940  0.4307
 2797TIP3    H130026   3.125   2.667   0.467 -0.7790  1.1823 -0.4078
 2797TIP3    H230027   2.995   2.613   0.410 -0.5948 -1.5030  1.4995
 2798TIP3   OH230028   5.665   3.845   6.592  0.3223  0.4234  0.1836
 2798TIP3    H130029   5.670   3.824   6.685  0.7001  0.0313  0.0797
 2798TIP3    H230030   5.582   3.809   6.564  1.0251 -1.1297 -0.0246
 2799TIP3   OH230031   5.940   4.684   8.946 -0.4782 -0.4532 -0.0822
 2799TIP3    H130032   5.912   4.636   8.868 -1.1423 -1.2376  0.6156
 2799TIP3    H230033   5.972   4.616   9.005  1.2013  0.2542 -0.1424
 2800TIP3   OH230034   0.336   3.181   0.119 -0.0507 -0.3181  0.1307
 2800TIP3    H130035   0.330   3.092   0.085  0.6435  0.1842 -1.4195
 2800TIP3    H230036   0.366   3.233   0.044  2.7124  0.6871  1.7743
 2801TIP3   OH230037   1.226   5.188   8.941 -0.5390  0.4019  0.3901
 2801TIP3    H130038   1.282   5.208   9.017 -0.3744 -0.7623  0.5923
 2801TIP3    H230039   1.146   5.238   8.956 -0.0230  1.1488  0.7069
 2802TIP3   OH230040   1.678   0.919   0.322  0.4218 -0.0363  0.0011
 2802TIP3    H130041   1.623   0.950   0.395 -0.1199 -1.0503  0.0439
 2802TIP3    H230042   1.764   0.959   0.339  0.3604 -0.3968  1.3099
 2803TIP3   OH230043   4.833   4.105   1.613 -0.3771 -0.1710 -0.2151
 2803TIP3    H130044   4.914   4.055   1.608  1.0819  2.1468 -1.4813
 2803TIP3    H230045   4.843   4.158   1.693 -1.2773 -0.8118  0.3474
 2804TIP3   OH230046   0.992   1.725   0.258 -0.0565 -0.2529  0.4612
 2804TIP3    H130047   1.011   1.655   0.319  0.8779  1.5733  2.3993
 2804TIP3    H230048   0.993   1.805   0.311 -1.8972  1.1713 -1.4683
 2805TIP3   OH230049   3.114   5.552   8.422  0.1603  0.3475  0.2792
 2805TIP3    H130050   3.064   5.627   8.389  0.4903  0.0066 -1.0662
 2805TIP3    H230051   3.188   5.591   8.468  0.1685  0.8586 -0.1552
 2806TIP3   OH230052   2.733   2.630   1.240  0.3238 -0.1675  0.2971
 2806TIP3    H130053   2.688   2.655   1.320  0.0667 -0.9108  0.3935
 2806TIP3    H230054   2.824   2.618   1.266  0.3136 -0.0343  0.3936
 2807TIP3   OH230055   5.503   3.389   2.043  0.2553  0.2366  0.1889
 2807TIP3    H130056   5.437   3.321   2.032 -1.2555  1.7881 -0.8453
 2807TIP3    H230057   5.453   3.469   2.058  1.9778  1.1418  1.3986
 2808TIP3   OH230058   1.040   4.986   0.020  0.1087  1.2095 -0.3355
 2808TIP3    H130059   1.124   4.945   0.043  0.2563  1.0226 -1.1837
 2808TIP3    H230060   1.057   5.032  -0.062 -1.1732 -0.7796 -1.8292
 2809TIP3   OH230061   6.000   4.157   8.035 -0.3470 -0.0769 -0.4046
 2809TIP3    H130062   6.021   4.207   7.957 -1.1556  0.1902 -0.4630
 2809TIP3    H230063   5.908   4.178   8.053  0.2605  1.1490  1.5580
 2810TIP3   OH230064   2.575   5.018   0.490 -0.2153  0.2120 -0.0549
 2810TIP3    H130065   2.667   4.992   0.499  0.5758  2.5975 -0.5866
 2810TIP3    H230066   2.554   5.057   0.575 -0.4468  0.5403 -0.2671
 2811TIP3   OH230067   4.780   2.337   0.210  0.4061 -0.1986 -0.2677
 2811TIP3    H130068   4.716   2.407   0.202  2.4320  1.7142 -0.7311
 2811TIP3    H230069   4.818   2.349   0.298  0.7947 -0.6990 -0.3603
 2812TIP3   OH230070   3.617   6.392   0.645 -0.3577 -0.0515  0.0101
 2812TIP3    H130071   3.665   6.448   0.584  2.3595  2.3079  3.8480
 2812TIP3    H230072   3.660   6.307   0.638  0.3173  0.3382 -0.8819
 2813TIP3   OH230073   0.635   6.153   6.544  0.2410 -0.0193 -0.0471
 2813TIP3    H130074   0.638   6.093   6.469  0.3759 -0.7879  0.5613
 2813TIP3    H230075   0.572   6.112   6.604  0.3152  0.4677  0.3662
 2814TIP3   OH230076   1.562   3.145   0.126 -0.6758  0.6918 -0.6517
 2814TIP3    H130077   1.612   3.064   0.117  1.5797  1.7405  1.3272
 2814TIP3    H230078   1.501   3.129   0.197 -0.1630  0.7142 -0.1959
 2815TIP3   OH230079   4.389   4.470   7.121 -0.4432  0.3572 -0.7574
 2815TIP3    H130080   4.307   4.512   7.147 -0.5290 -0.4683  0.3345
 2815TIP3    H230081   4.367   4.378   7.110  0.2564  0.2024 -0.8941
 2816TIP3   OH230082   6.412   5.391   0.206  0.1083 -0.2760 -0.2510
 2816TIP3    H130083   6.429   5.485   0.196 -0.0854 -0.2660 -0.5155
 2816TIP3    H230084   6.319   5.382   0.184  0.2311 -0.5935 -0.6421
 2817TIP3   OH230085   1.722   0.726   0.114 -0.2910 -0.0060 -0.3067
 2817TIP3    H130086   1.639   0.681   0.132 -0.6841  0.5565 -0.6515
 2817TIP3    H230087   1.716   0.807   0.164 -0.4943  0.6089 -1.2857
 2818TIP3   OH230088   3.934   5.306   7.202 -0.1166  0.2722  0.0119
 2818TIP3    H130089   3.946   5.285   7.110 -0.1771 -0.3126  0.1341
 2818TIP3    H230090   4.015   5.350   7.227  0.2557 -0.3230 -0.1143
 2819TIP3   OH230091   1.578   3.704   0.605  0.8106  0.4218  0.0253
 2819TIP3    H130092   1.520   3.633   0.633  0.1148  1.2616  0.8059
 2819TIP3    H230093   1.523   3.783   0.610  1.7129  1.0866 -0.2897
 2820TIP3   OH230094   0.401   3.750   8.445  0.0833 -0.2361  0.2067
 2820TIP3    H130095   0.359   3.834   8.423  2.4072  0.5828 -1.5493
 2820TIP3    H230096   0.387   3.740   8.539  1.0557  2.9910  0.8356
 2821TIP3   OH230097   5.383   1.986   6.741  0.0063 -0.1484  0.0179
 2821TIP3    H130098   5.290   1.982   6.717 -0.4280 -0.1525  1.5830
 2821TIP3    H230099   5.423   1.913   6.694 -0.7646 -0.0794 -0.7618
 2822TIP3   OH230100   5.778   3.883   0.508  0.6540  0.1193  0.1648
 2822TIP3    H130101   5.825   3.946   0.562  0.6325  1.4290 -1.2658
 2822TIP3    H230102   5.718   3.937   0.456  2.4167 -0.7020 -2.9713
 2823TIP3   OH230103   3.153   4.254   1.738 -0.0830  0.3970  0.0215
 2823TIP3    H130104   3.122   4.310   1.666 -0.4390 -0.5259 -0.5568
 2823TIP3    H230105   3.079   4.250   1.798 -0.3643 -0.1353 -0.3540
 2824TIP3   OH230106   0.641   1.551   0.691 -0.0679 -0.6158 -0.4646
 2824TIP3    H130107   0.609   1.510   0.771 -2.1074  1.1755 -0.2773
 2824TIP3    H230108   0.720   1.502   0.669 -0.9562 -2.9316  1.1075
 2825TIP3   OH230109   4.440   2.436   5.996 -0.0733  0.3040  0.1848
 2825TIP3    H130110   4.355   2.460   6.031 -0.1738  0.3730 -0.1065
 2825TIP3    H230111   4.494   2.515   6.008  0.5176 -0.3514  2.1488
 2826TIP3   OH230112   0.944   2.633   0.631  0.0239 -0.2125  0.0621
 2826TIP3    H130113   1.002   2.567   0.592 -1.2287 -0.9312 -0.6693
 2826TIP3    H230114   0.896   2.585   0.698 -2.4677 -0.7246 -1.9096
 2827TIP3   OH230115   3.875   0.675   7.471  0.2079 -0.5858  0.6251
 2827TIP3    H130116   3.783   0.650   7.482  0.3181 -0.6713  1.3843
 2827TIP3    H230117   3.924   0.597   7.494  0.4998 -0.2387  1.2043
 2828TIP3   OH230118   4.278   3.796   1.905 -0.2305 -0.3261 -0.0531
 2828TIP3    H130119   4.276   3.768   1.813  2.2441  1.6339 -0.8145
 2828TIP3    H230120   4.284   3.892   1.900 -2.5906  0.0538  2.2761
 2829TIP3   OH230121   5.202   5.550   8.744  0.4541  0.5196 -0.6017
 2829TIP3    H130122   5.175   5.538   8.653 -3.1369  3.1012 -0.0897
 2829TIP3    H230123   5.210   5.461   8.779 -1.3069 -0.5146 -2.6225
 2830TIP3   OH230124   2.638   2.925   8.944 -0.0379 -0.4306  0.6144
 2830TIP3    H130125   2.562   2.983   8.951  0.8717  0.7780  0.7185
 2830TIP3    H230126   2.648   2.888   9.031 -0.2310 -0.2439  0.7161
 2831TIP3   OH230127   5.563   3.071   1.951  0.1414  0.0311  0.2881
 2831TIP3    H130128   5.576   2.981   1.980  2.1647  0.9680  2.6872
 2831TIP3    H230129   5.494   3.105   2.008 -1.0377 -0.1172 -1.0058
 2832TIP3   OH230130   3.852   2.081   8.912  0.0888 -0.2683 -0.5543
 2832TIP3    H130131   3.900   2.162   8.928  1.5720 -1.3802  1.0914
 2832TIP3    H230132   3.902   2.038   8.842  0.7794 -0.8336  0.2623
 2833TIP3   OH230133   5.883   2.072   0.224  0.7765 -0.1180 -0.2545
 2833TIP3    H130134   5.942   2.111   0.289  0.1143 -0.8172  0.8104
 2833TIP3    H230135   5.841   2.000   0.271 -0.2767 -0.1812 -1.2558
 2834TIP3   OH230136   4.898   5.113   8.172 -0.3267  0.5860  0.4678
 2834TIP3    H130137   4.864   5.189   8.219 -1.5430 -0.0880  0.7354
 2834TIP3    H230138   4.975   5.145   8.126  1.0065  1.2614  2.9949
 2835TIP3   OH230139   6.762   0.047   8.214  0.2175  0.1405  0.0532
 2835TIP3    H130140   6.758   0.143   8.222 -1.2816  0.0892  0.2471
 2835TIP3    H230141   6.851   0.029   8.184  1.0595  1.4794  1.5662
 2836TIP3   OH230142   3.774   5.821   6.774 -0.3395 -0.1963  0.2239
 2836TIP3    H130143   3.828   5.841   6.850 -1.6587 -0.7208  1.3349
 2836TIP3    H230144   3.744   5.907   6.743 -0.8857 -0.0436  1.1361
 2837TIP3   OH230145   6.251   1.107   0.020 -0.6539 -0.2568 -0.2603
 2837TIP3    H130146   6.219   1.095   0.110 -0.0872  0.1438  0.0016
 2837TIP3    H230147   6.332   1.057   0.016 -0.3842  0.1825 -0.3741
 2838TIP3   OH230148   2.741   2.245   6.252  0.2586 -0.0358 -0.4960
 2838TIP3    H130149   2.705   2.266   6.166  0.0155  0.4501 -0.2790
 2838TIP3    H230150   2.779   2.328   6.283 -1.2301  0.2636  0.6281
 2839TIP3   OH230151   0.383   1.744   8.865 -0.6108 -0.1687  0.1672
 2839TIP3    H130152   0.343   1.658   8.877 -1.4320  0.3853  1.7581
 2839TIP3    H230153   0.477   1.727   8.867 -0.6494 -0.7743  3.6194
 2840TIP3   OH230154   5.210   2.885   8.733 -0.2186  0.0228  0.4758
 2840TIP3    H130155   5.164   2.916   8.655  1.2398 -0.5570 -0.6625
 2840TIP3    H230156   5.183   2.794   8.742  2.2876 -1.0461 -1.5530
 2841TIP3   OH230157   3.801   4.981   1.352 -0.5012  0.3033  0.3597
 2841TIP3    H130158   3.730   5.042   1.367 -0.4407  0.6524 -0.7106
 2841TIP3    H230159   3.831   4.956   1.439 -2.3260 -0.3231  0.8449
 2842TIP3   OH230160   1.546   5.888   2.166 -0.0440 -0.4649  0.6259
 2842TIP3    H130161   1.587   5.802   2.175 -0.4029 -0.8175 -0.8881
 2842TIP3    H230162   1.562   5.931   2.250  2.0719 -1.1554  0.6307
 2843TIP3   OH230163   0.055   1.401   0.452  0.3280  0.0736 -0.2181
 2843TIP3    H130164   0.086   1.407   0.542  1.0744  1.2720 -0.5361
 2843TIP3    H230165   0.134   1.396   0.399 -0.0996 -0.3605 -0.8282
 2844TIP3   OH230166   6.043   3.277   6.303  0.2036 -0.1008  0.1029
 2844TIP3    H130167   5.989   3.266   6.381  1.7904 -0.9735  1.1240
 2844TIP3    H230168   6.084   3.363   6.314 -0.3441  0.2203 -0.2913
 2845TIP3   OH230169   4.358   4.172   1.783 -0.3582  0.3090 -0.8646
 2845TIP3    H130170   4.373   4.123   1.864 -1.0359  0.7337 -0.4799
 2845TIP3    H230171   4.423   4.136   1.722 -1.1199 -1.4048 -0.7298
 2846TIP3   OH230172   3.374   4.790   1.250  0.1503 -0.2885  0.9060
 2846TIP3    H130173   3.438   4.723   1.276  1.0069  0.1950  0.1012
 2846TIP3    H230174   3.425   4.854   1.201 -1.0246 -0.0881 -0.1079
 2847TIP3   OH230175   0.752   5.214   7.924 -0.0395 -0.3724 -0.0093
 2847TIP3    H130176   0.823   5.248   7.978 -0.6750  0.7997  0.1256
 2847TIP3    H230177   0.786   5.214   7.835 -0.2324  1.3254 -0.1171
 2848TIP3   OH230178   5.476   0.308   0.755 -0.1321 -0.0954  0.3104
 2848TIP3    H130179   5.444   0.218   0.761  0.6259 -0.4630 -0.8738
 2848TIP3    H230180   5.561   0.300   0.711  0.8481  1.0139  1.8679
 2849TIP3   OH230181   6.361   5.540   1.411 -0.6194 -0.6049 -0.3624
 2849TIP3    H130182   6.402   5.558   1.496  0.2780  0.8690 -1.0523
 2849TIP3    H230183   6.416   5.473   1.371  0.0646  0.0384 -0.5219
 2850TIP3   OH230184   1.774   5.548   1.772  0.5313  0.5289  0.4799
 2850TIP3    H130185   1.784   5.617   1.706  2.9491  2.6160  2.7690
 2850TIP3    H230186   1.859   5.504   1.773  0.4956  0.4515  2.0619
 2851TIP3   OH230187   3.303   3.372   6.082  0.1769 -0.5157 -0.0500
 2851TIP3    H130188   3.318   3.310   6.011  0.0941  0.1563 -0.6692
 2851TIP3    H230189   3.359   3.341   6.153 -1.2025 -2.3133  0.3093
 2852TIP3   OH230190   1.849   6.296   6.828  0.2190 -0.3381  0.0253
 2852TIP3    H130191   1.858   6.362   6.897  0.9060  0.1725 -0.5319
 2852TIP3    H230192   1.825   6.346   6.750  0.7821 -0.7376 -0.4150
 2853TIP3   OH230193   1.510   5.125   7.103  0.1353 -0.2911  0.0589
 2853TIP3    H130194   1.468   5.204   7.138  0.3489 -0.1694  0.0448
 2853TIP3    H230195   1.523   5.069   7.179 -1.2126 -0.8805 -0.1125
 2854TIP3   OH230196   0.518   4.279   8.033  0.0285 -0.0521  0.1335
 2854TIP3    H130197   0.547   4.210   8.092  0.8346 -0.5380 -0.8108
 2854TIP3    H230198   0.505   4.235   7.949 -0.3190  0.7766 -0.2589
 2855TIP3   OH230199   0.353   5.450   8.874 -0.3123  0.0998  0.2314
 2855TIP3    H130200   0.310   5.370   8.841 -1.3420  0.8663 -0.3361
 2855TIP3    H230201   0.423   5.417   8.930  0.3623 -1.2453 -1.3039
 2856TIP3   OH230202   6.115   2.099   7.707  0.3771 -0.6478 -0.1161
 2856TIP3    H130203   6.199   2.102   7.753  0.0953 -5.1727  1.1259
 2856TIP3    H230204   6.086   2.009   7.715 -3.9996  0.3577 -1.7606
 2857TIP3   OH230205   0.818   1.647   8.972  0.1104 -0.0708  0.1247
 2857TIP3    H130206   0.767   1.709   9.025 -1.2628 -1.5973  0.6769
 2857TIP3    H230207   0.815   1.684   8.883 -2.0687 -0.0968  0.1207
 2858TIP3   OH230208   3.398   0.110   1.272  0.2960 -0.9633  0.3527
 2858TIP3    H130209   3.491   0.127   1.281  0.5738 -1.1181 -1.6329
 2858TIP3    H230210   3.359   0.140   1.354  1.5548  3.1000 -0.3049
 2859TIP3   OH230211   5.308   5.035   8.803 -0.2976  0.7681  0.0056
 2859TIP3    H130212   5.342   4.946   8.800 -0.4594  0.7080 -0.0637
 2859TIP3    H230213   5.384   5.090   8.821 -0.3745  0.5154  1.1688
 2860TIP3   OH230214   3.370   4.866   0.011 -0.2066  0.2908  0.1104
 2860TIP3    H130215   3.283   4.836  -0.017 -0.5214 -1.6828  2.7941
 2860TIP3    H230216   3.360   4.885   0.104  1.8435  1.9041  0.0759
 2861TIP3   OH230217   4.110   2.205   8.911  0.3032 -0.0840  0.0689
 2861TIP3    H130218   4.195   2.172   8.880  0.0527 -0.4405 -0.2405
 2861TIP3    H230219   4.110   2.298   8.885  0.6552 -0.0452  0.1990
 2862TIP3   OH230220   0.615   5.014   2.714  0.2002  0.0614  0.1145
 2862TIP3    H130221   0.702   4.999   2.751 -0.2972 -1.7646  0.6759
 2862TIP3    H230222   0.572   4.928   2.719 -1.0735  0.5284 -1.6434
 2863TIP3   OH230223   0.426   5.617   1.630  0.4571 -0.3938  0.0376
 2863TIP3    H130224   0.408   5.704   1.667 -0.0871 -0.4126 -0.1740
 2863TIP3    H230225   0.522   5.609   1.634  0.4012 -0.5363  1.7373
 2864TIP3   OH230226   2.472   4.988   8.934 -0.2391  0.5500 -0.1905
 2864TIP3    H130227   2.494   4.978   9.026 -1.7823  0.0254  0.1438
 2864TIP3    H230228   2.552   4.960   8.888  0.7447  1.3449  0.9555
 2865TIP3   OH230229   3.670   4.783   7.490 -0.2238 -0.2613 -0.6582
 2865TIP3    H130230   3.575   4.791   7.502 -0.4419 -0.9880 -1.7250
 2865TIP3    H230231   3.679   4.729   7.411  1.0649  1.5309 -1.8088
 2866TIP3   OH230232   1.699   2.925   0.093 -0.3239  0.5293 -0.0166
 2866TIP3    H130233   1.682   2.857   0.158 -0.3577 -0.1264 -0.7019
 2866TIP3    H230234   1.788   2.954   0.112 -0.5055  0.6896  0.6281
 2867TIP3   OH230235   1.072   1.688   7.181 -0.2403  0.3040  0.6877
 2867TIP3    H130236   1.109   1.650   7.261  0.2975 -0.2741  0.1717
 2867TIP3    H230237   1.102   1.630   7.111 -0.8129  0.7336  0.0784
 2868TIP3   OH230238   1.662   1.277   8.162 -0.4724  0.0614  0.5809
 2868TIP3    H130239   1.716   1.262   8.239  0.8303 -0.7105 -0.4292
 2868TIP3    H230240   1.678   1.368   8.138  1.5975 -0.5279 -0.5322
 2869TIP3   OH230241   3.946   4.942   0.410 -0.0383 -0.1223 -0.1526
 2869TIP3    H130242   3.854   4.926   0.433 -0.0024 -0.4141 -0.2068
 2869TIP3    H230243   3.978   5.000   0.479 -0.1538 -0.3463  0.0955
 2870TIP3   OH230244   0.896   5.432   8.497  0.1897  0.4420 -0.1121
 2870TIP3    H130245   0.926   5.377   8.569 -0.2433  0.7918  0.3365
 2870TIP3    H230246   0.961   5.503   8.492 -1.0419  1.7713  1.5204
 2871TIP3   OH230247   0.876   5.341   7.262 -0.6015 -0.0332 -0.1291
 2871TIP3    H130248   0.900   5.399   7.334 -0.2973  0.1838 -0.4025
 2871TIP3    H230249   0.788   5.370   7.237 -0.1571  0.8292 -0.7651
 2872TIP3   OH230250   0.791   0.079   0.752  0.2234  0.1523  0.4044
 2872TIP3    H130251   0.724   0.080   0.684 -0.8255 -1.2713  1.3408
 2872TIP3    H230252   0.839  -0.002   0.737 -0.6379 -0.6790  1.8571
 2873TIP3   OH230253   3.143   2.102   1.424  0.5671  0.0797  0.3755
 2873TIP3    H130254   3.216   2.164   1.424  0.0856  0.6547  0.6707
 2873TIP3    H230255   3.115   2.098   1.515 -1.4240  1.8448 -0.0916
 2874TIP3   OH230256   0.462   0.677   8.459 -0.0618 -0.0127  0.3957
 2874TIP3    H130257   0.389   0.690   8.519  0.7888 -0.1015  1.4841
 2874TIP3    H230258   0.452   0.746   8.393 -0.8637  0.2491  0.7791
 2875TIP3   OH230259   5.848   5.185   1.466  0.3019  0.6157 -0.7153
 2875TIP3    H130260   5.785   5.138   1.411  1.7728 -2.1317 -0.2217
 2875TIP3    H230261   5.834   5.149   1.554  1.7829  0.8165 -0.3813
 2876TIP3   OH230262   0.710   5.032   8.545  0.0283  0.1926 -0.2144
 2876TIP3    H130263   0.691   5.117   8.584 -2.3441 -0.4812  0.2663
 2876TIP3    H230264   0.632   4.980   8.563  1.7295 -2.3744  0.2449
 2877TIP3   OH230265   5.423   3.748   6.448 -0.5333 -0.7516 -0.5937
 2877TIP3    H130266   5.354   3.794   6.402 -1.3033 -1.0707  0.2072
 2877TIP3    H230267   5.377   3.687   6.506  0.3667 -0.1620  0.7974
 2878TIP3   OH230268   5.634   3.094   6.670  0.4169 -0.0217 -0.1000
 2878TIP3    H130269   5.598   3.176   6.703 -0.3929 -0.3084 -0.2510
 2878TIP3    H230270   5.696   3.121   6.602 -0.5987  0.4497 -0.8815
 2879TIP3   OH230271   0.769   5.918   8.603 -0.5741 -0.3743  0.3294
 2879TIP3    H130272   0.709   5.866   8.657 -0.2050 -0.3425  0.7767
 2879TIP3    H230273   0.751   6.009   8.628 -1.1829 -0.2819 -0.4137
 2880TIP3   OH230274   5.870   3.640   8.197  0.3692 -0.1259 -0.0720
 2880TIP3    H130275   5.942   3.591   8.238  1.1344  2.2176  1.6508
 2880TIP3    H230276   5.910   3.723   8.170 -1.2856  0.4497 -0.8997
 2881TIP3   OH230277   6.639   2.471   7.596 -0.5244  0.0287 -0.3545
 2881TIP3    H130278   6.573   2.403   7.581 -0.1146 -0.2501 -0.8951
 2881TIP3    H230279   6.683   2.443   7.677 -1.1438  0.2837  0.0823
 2882TIP3   OH230280   0.842   6.591   8.790 -0.2040  0.4599  0.2751
 2882TIP3    H130281   0.779   6.649   8.747 -2.3925 -1.7496  0.2578
 2882TIP3    H230282   0.798   6.565   8.872  0.7591 -0.9964  0.3535
 2883TIP3   OH230283   5.738   0.091   0.418 -0.2514 -0.1069 -0.3691
 2883TIP3    H130284   5.754   0.019   0.478 -1.9349  1.6387  2.3788
 2883TIP3    H230285   5.643   0.100   0.415 -0.1155  1.4927 -1.2489
 2884TIP3   OH230286   2.627   3.990   1.429  0.4221  0.4061 -0.4566
 2884TIP3    H130287   2.689   4.052   1.392 -0.5211  1.0047 -1.0781
 2884TIP3    H230288   2.542   4.034   1.424 -0.3558 -1.1052 -1.3572
 2885TIP3   OH230289   2.641   2.105   8.182 -0.1855  0.3690 -0.0400
 2885TIP3    H130290   2.713   2.046   8.161 -0.9084 -0.2334 -0.8942
 2885TIP3    H230291   2.644   2.172   8.113 -0.3412  0.4280  0.0087
 2886TIP3   OH230292   1.207   0.012   7.872 -0.5819  0.3643 -0.1264
 2886TIP3    H130293   1.184   0.088   7.925 -0.9004  1.9433 -2.4081
 2886TIP3    H230294   1.133  -0.048   7.884 -0.9707  0.9642  0.6465
 2887TIP3   OH230295   2.211   6.596   7.941  0.3387 -0.2299  0.3334
 2887TIP3    H130296   2.203   6.681   7.897 -0.5976 -0.4857 -0.0253
 2887TIP3    H230297   2.305   6.586   7.957  0.3959  1.2046  1.0761
 2888TIP3   OH230298   6.000   0.917   7.824  0.2490  0.2902  0.1491
 2888TIP3    H130299   5.932   0.965   7.871  0.0286 -0.1257  0.2616
 2888TIP3    H230300   5.969   0.826   7.824 -0.0529  0.3637 -1.3094
 2889TIP3   OH230301   2.523   1.463   1.733 -0.4233 -0.0917 -0.3916
 2889TIP3    H130302   2.607   1.419   1.745  0.2888  1.5300  1.0445
 2889TIP3    H230303   2.505   1.456   1.639  1.6299  0.0679 -0.8323
 2890TIP3   OH230304   2.612   4.048   8.200 -0.6229 -0.3554  0.2919
 2890TIP3    H130305   2.677   4.116   8.182  2.0257 -2.2872  1.7641
 2890TIP3    H230306   2.602   4.050   8.296 -0.3650 -2.0681  0.3878
 2891TIP3   OH230307   0.606   4.196   7.367  0.1428  0.1350 -0.3081
 2891TIP3    H130308   0.654   4.201   7.284 -0.5453 -0.2887 -0.7432
 2891TIP3    H230309   0.514   4.199   7.341 -0.0783  0.1693  0.4608
 2892TIP3   OH230310   0.004   4.076   6.129 -0.3639  0.0631  0.1131
 2892TIP3    H130311   0.087   4.028   6.124  0.0974  0.9187 -0.7959
 2892TIP3    H230312  -0.061   4.015   6.094  0.4617  0.5809 -2.5611
 2893TIP3   OH230313   4.768   2.512   1.834  0.0456 -0.1138 -0.3933
 2893TIP3    H130314   4.677   2.515   1.864  0.2639  1.0030  0.2457
 2893TIP3    H230315   4.763   2.493   1.741 -0.7909 -1.0017 -0.1828
 2894TIP3   OH230316   4.336   2.158   8.610  0.3722  0.2215  0.5896
 2894TIP3    H130317   4.429   2.143   8.628  0.8414  2.8409  0.7124
 2894TIP3    H230318   4.312   2.231   8.667 -0.9468  1.6091 -1.5951
 2895TIP3   OH230319   3.789   1.964   8.144  0.3478 -0.6608 -0.8282
 2895TIP3    H130320   3.854   1.942   8.077  1.4963 -1.1335  0.3945
 2895TIP3    H230321   3.833   2.028   8.200 -0.5520 -0.3501 -0.4635
 2896TIP3   OH230322   0.342   1.596   7.776 -0.1584 -0.2126 -0.2750
 2896TIP3    H130323   0.418   1.538   7.777 -1.8384 -2.5710  0.5650
 2896TIP3    H230324   0.345   1.642   7.860  0.7046  0.2797 -0.5630
 2897TIP3   OH230325   2.534   3.311   6.936 -0.3156  0.2885 -0.0598
 2897TIP3    H130326   2.550   3.250   6.864  1.2439  0.7421 -0.1357
 2897TIP3    H230327   2.467   3.268   6.990 -0.3013 -0.8121 -0.8867
 2898TIP3   OH230328   1.683   3.247   1.448 -0.4429  0.6542  0.3531
 2898TIP3    H130329   1.619   3.226   1.517 -0.2163 -1.9388 -0.1128
 2898TIP3    H230330   1.758   3.191   1.467  0.3631  1.2381 -0.9661
 2899TIP3   OH230331   4.405   4.169   0.859 -0.0336  0.3469  0.6040
 2899TIP3    H130332   4.433   4.257   0.884  2.1471 -0.2606  0.5520
 2899TIP3    H230333   4.481   4.114   0.881 -0.5898 -1.2118 -1.1978
 2900TIP3   OH230334   2.201   6.347   1.181  0.3566 -0.2052  0.0501
 2900TIP3    H130335   2.135   6.282   1.203 -1.0485  1.4282  0.9063
 2900TIP3    H230336   2.177   6.424   1.233  0.7093  1.7187 -2.4613
 2901TIP3   OH230337   2.922   5.342   8.317  0.5649 -0.5469  0.0006
 2901TIP3    H130338   3.010   5.374   8.334 -0.0586  0.7370  1.0445
 2901TIP3    H230339   2.872   5.420   8.293 -0.6817 -0.9191  1.1968
 2902TIP3   OH230340   0.843   5.059   0.173  0.1103  0.4852 -0.7251
 2902TIP3    H130341   0.862   5.009   0.252  0.4436 -0.1609 -1.2008
 2902TIP3    H230342   0.904   5.025   0.107  0.1232  1.2975 -1.1517
 2903TIP3   OH230343   3.619   4.629   1.929 -0.7664 -0.2935 -0.5109
 2903TIP3    H130344   3.562   4.566   1.974  1.1526 -0.9720  1.1116
 2903TIP3    H230345   3.707   4.592   1.937 -0.0872  0.3900 -3.4690
 2904TIP3   OH230346   6.195   1.073   0.288  0.1071  0.0251 -0.1988
 2904TIP3    H130347   6.118   1.019   0.267  0.7072 -1.4195  1.1305
 2904TIP3    H230348   6.212   1.056   0.380  2.4090 -0.2223 -0.5986
 2905TIP3   OH230349   0.054   5.009   8.596 -0.3254  0.2341 -0.6389
 2905TIP3    H130350   0.023   4.970   8.678 -1.0713  1.1628 -0.4599
 2905TIP3    H230351   0.104   4.939   8.554 -0.9783 -0.6664  0.0231
 2906TIP3   OH230352   1.180   4.255   1.078  0.7703  0.5180  0.5486
 2906TIP3    H130353   1.115   4.244   1.009  0.6031  2.5361  0.3246
 2906TIP3    H230354   1.153   4.193   1.146  0.5721 -1.0402 -0.8908
 2907TIP3   OH230355   6.688   1.794   1.342 -0.5330 -0.0212  0.2682
 2907TIP3    H130356   6.678   1.778   1.248 -0.1938  0.0259  0.2212
 2907TIP3    H230357   6.767   1.848   1.349 -0.9191  0.5192  0.5301
 2908TIP3   OH230358   2.033   1.048   2.305  0.5491  0.5173  0.0103
 2908TIP3    H130359   2.088   1.107   2.253  1.4162  0.6823  1.0740
 2908TIP3    H230360   2.071   0.962   2.292 -0.1372  0.3199 -0.7819
 2909TIP3   OH230361   3.547   3.372   8.615  0.3677 -0.6654 -0.0503
 2909TIP3    H130362   3.517   3.399   8.528 -0.6435 -1.4842  0.0209
 2909TIP3    H230363   3.609   3.301   8.597 -0.9033 -1.8100 -0.0942
 2910TIP3   OH230364   0.051   1.758   7.488 -0.0118 -0.3079  0.0498
 2910TIP3    H130365  -0.016   1.743   7.421 -1.4686 -0.3899  1.4642
 2910TIP3    H230366   0.042   1.683   7.547 -0.1235  0.7543  1.4029
 2911TIP3   OH230367   5.979   3.396   1.046 -0.0847  0.5210 -0.2144
 2911TIP3    H130368   5.888   3.385   1.073 -0.1829 -0.4701 -0.8675
 2911TIP3    H230369   5.976   3.460   0.975 -0.6284 -1.2278 -1.8596
 2912TIP3   OH230370   3.654   0.461   8.556 -0.5971 -0.2604 -0.2146
 2912TIP3    H130371   3.747   0.440   8.543 -0.2682  1.0591 -0.1151
 2912TIP3    H230372   3.622   0.483   8.469 -0.5022  0.4627 -0.0713
 2913TIP3   OH230373   4.670   1.458   1.409 -0.8720 -0.1397 -0.3977
 2913TIP3    H130374   4.722   1.538   1.413 -0.2600 -0.5178 -0.6611
 2913TIP3    H230375   4.662   1.429   1.500  0.1540 -0.5633 -0.4266
 2914TIP3   OH230376   2.882   2.470   6.307 -0.3705  0.0575  0.4837
 2914TIP3    H130377   2.887   2.524   6.386 -0.9740 -0.5192  0.9241
 2914TIP3    H230378   2.971   2.435   6.297  0.0194  1.0922  0.2089
 2915TIP3   OH230379   5.941   3.399   0.238  0.4120 -0.1798 -0.4435
 2915TIP3    H130380   6.001   3.446   0.297  0.1450 -0.6218  0.1963
 2915TIP3    H230381   5.911   3.324   0.290  0.3031 -0.6766 -1.2100
 2916TIP3   OH230382   6.116   3.826   2.084  0.2640  0.2580 -0.2672
 2916TIP3    H130383   6.100   3.920   2.088  1.3109  0.4219  0.5355
 2916TIP3    H230384   6.183   3.810   2.151  0.3159 -1.0094 -0.5923
 2917TIP3   OH230385   4.208   5.143   7.259 -0.5067 -0.1536  0.6321
 2917TIP3    H130386   4.243   5.104   7.338 -1.3411 -1.3332  0.4540
 2917TIP3    H230387   4.276   5.203   7.229  0.6165 -1.1073  1.2017
 2918TIP3   OH230388   5.248   5.817   8.805  0.1206 -0.5352  0.0593
 2918TIP3    H130389   5.216   5.732   8.776 -2.9990  0.0110  1.5471
 2918TIP3    H230390   5.329   5.797   8.853 -1.0692 -2.8354  1.2696
 2919TIP3   OH230391   6.042   1.248   0.674 -0.5947  0.0939  0.1314
 2919TIP3    H130392   6.003   1.161   0.686 -1.5834  0.6710  1.4551
 2919TIP3    H230393   5.969   1.308   0.691 -0.0814  1.1847 -1.3827
 2920TIP3   OH230394   4.503   5.266   7.638 -0.4142  0.1072 -0.0839
 2920TIP3    H130395   4.550   5.183   7.637  0.3163  0.5173 -0.7341
 2920TIP3    H230396   4.502   5.295   7.547  0.1334  1.2366  0.2432
 2921TIP3   OH230397   3.398   6.345   8.934  0.2627  0.0481 -0.0852
 2921TIP3    H130398   3.461   6.417   8.931  0.5688 -0.0459  2.2210
 2921TIP3    H230399   3.329   6.375   8.993 -0.0571 -1.2215  0.2261
 2922TIP3   OH230400   6.482   6.252   8.528 -0.2849  0.3203 -0.3470
 2922TIP3    H130401   6.422   6.236   8.455 -0.3704  1.2452 -0.4840
 2922TIP3    H230402   6.452   6.334   8.567 -0.0370  0.0084  0.5303
 2923TIP3   OH230403   4.972   2.704   0.355  0.2866  0.6798 -1.2409
 2923TIP3    H130404   4.999   2.618   0.322  3.1550  1.4863 -1.3247
 2923TIP3    H230405   4.877   2.698   0.364  0.5126 -3.0980  0.5819
 2924TIP3   OH230406   1.492   0.799   0.990  0.6071 -0.3615  0.0312
 2924TIP3    H130407   1.412   0.752   0.966  1.2056 -0.8124 -1.2417
 2924TIP3    H230408   1.506   0.778   1.082  0.0370 -1.4793 -0.1162
 2925TIP3   OH230409   5.328   2.847   0.440  0.1681 -0.0815 -0.0180
 2925TIP3    H130410   5.254   2.785   0.445 -1.5773  1.8573 -0.2963
 2925TIP3    H230411   5.376   2.820   0.362 -0.7758 -0.8429 -0.3710
 2926TIP3   OH230412   2.044   0.636   6.344  0.5738 -0.3880  0.0127
 2926TIP3    H130413   2.080   0.714   6.300  0.3332 -0.5210 -0.4225
 2926TIP3    H230414   2.117   0.575   6.348  0.6673 -0.2755  0.0363
 2927TIP3   OH230415   0.614   0.226   8.001 -0.3132 -0.6932  0.1859
 2927TIP3    H130416   0.577   0.314   7.992  0.4064 -0.1145  2.3537
 2927TIP3    H230417   0.692   0.227   7.946 -0.2160  0.0965  0.3275
 2928TIP3   OH230418   0.588   4.349   7.624  0.1145 -0.6394 -0.5706
 2928TIP3    H130419   0.631   4.314   7.545  2.1885 -0.2969  0.3271
 2928TIP3    H230420   0.615   4.441   7.626 -0.2905 -0.5402  0.3046
 2929TIP3   OH230421   3.300   2.226   0.181  0.4486 -0.3171 -0.4907
 2929TIP3    H130422   3.351   2.302   0.151  1.9634 -1.3786 -0.7619
 2929TIP3    H230423   3.217   2.233   0.135  0.5670  1.1728 -0.5069
 2930TIP3   OH230424   4.903   5.291   7.135  0.2946  0.0018 -0.2157
 2930TIP3    H130425   4.956   5.307   7.057 -0.5901  0.5504 -0.7239
 2930TIP3    H230426   4.904   5.195   7.145 -0.1927 -0.1494 -1.3642
 2931TIP3   OH230427   5.238   4.352   8.183  0.8877 -0.2386  0.2198
 2931TIP3    H130428   5.144   4.344   8.198  0.6974 -0.4663 -0.9637
 2931TIP3    H230429   5.246   4.417   8.113  1.6339  0.0657  0.5791
 2932TIP3   OH230430   2.246   0.867   8.261  0.4476 -0.0176 -0.1373
 2932TIP3    H130431   2.199   0.940   8.302  0.3426 -1.3724  2.3685
 2932TIP3    H230432   2.337   0.882   8.284  0.9806  1.1811 -2.7262
 2933TIP3   OH230433   5.115   1.582   8.901 -0.0819  0.2398 -0.4369
 2933TIP3    H130434   5.074   1.638   8.966 -0.3501  1.9649 -1.9833
 2933TIP3    H230435   5.064   1.502   8.902  1.4503 -0.9032  3.1769
 2934TIP3   OH230436   3.412   0.363   0.786  0.0424  0.2169 -0.0189
 2934TIP3    H130437   3.344   0.400   0.730 -0.4862 -1.8447 -0.8480
 2934TIP3    H230438   3.491   0.410   0.762 -0.5825  0.8064 -1.0015
 2935TIP3   OH230439   1.051   1.893   7.954 -0.3207  0.3992 -0.4902
 2935TIP3    H130440   1.055   1.815   8.009 -0.8699  1.1865  0.6996
 2935TIP3    H230441   1.135   1.937   7.968 -0.0859  0.1330 -1.0190
 2936TIP3   OH230442   5.731   3.717   0.805  0.4838  0.0915 -0.4148
 2936TIP3    H130443   5.653   3.666   0.826  1.3450 -0.6267  1.1963
 2936TIP3    H230444   5.723   3.734   0.711 -1.0658 -0.8704 -0.5001
 2937TIP3   OH230445   2.565   3.265   1.021 -0.3461 -0.4322 -0.3710
 2937TIP3    H130446   2.533   3.242   1.108 -2.8221 -1.6265 -1.4956
 2937TIP3    H230447   2.543   3.358   1.011 -0.5880 -0.4444  0.0372
 2938TIP3   OH230448   3.379   3.235   0.692 -0.7189  0.1003 -0.4778
 2938TIP3    H130449   3.325   3.289   0.635  1.0872  1.0056 -1.4010
 2938TIP3    H230450   3.382   3.283   0.775 -1.6570 -0.1844 -0.2663
 2939TIP3   OH230451   4.680   2.126   8.875  0.3689  0.4734  0.3937
 2939TIP3    H130452   4.652   2.083   8.956  1.1986 -0.8070  0.0360
 2939TIP3    H230453   4.734   2.199   8.905  0.0109  0.4999  1.0070
 2940TIP3   OH230454   3.179   3.706   2.361  0.1345 -0.0915 -0.4257
 2940TIP3    H130455   3.105   3.765   2.375 -0.1097 -0.4379 -0.2485
 2940TIP3    H230456   3.146   3.639   2.301  0.0990 -0.6154  0.1654
 2941TIP3   OH230457   6.396   6.713   1.591  0.1292  0.8385 -0.0825
 2941TIP3    H130458   6.414   6.623   1.618  1.4359  0.7975 -1.0151
 2941TIP3    H230459   6.330   6.744   1.653  0.4773 -0.3959  0.9394
 2942TIP3   OH230460   1.846   0.195   7.104  0.3656 -0.7153 -0.0847
 2942TIP3    H130461   1.811   0.106   7.102  0.9370 -1.1125  2.9698
 2942TIP3    H230462   1.937   0.185   7.077 -0.2326 -0.5455 -2.4242
 2943TIP3   OH230463   0.795   0.845   1.425  0.0565 -0.2731 -0.3287
 2943TIP3    H130464   0.852   0.883   1.491  0.8190  0.5412 -1.4073
 2943TIP3    H230465   0.711   0.833   1.469 -0.2571  2.7303  0.0892
 2944TIP3   OH230466   0.788   5.896   8.940  0.3501 -1.0007  0.4249
 2944TIP3    H130467   0.704   5.857   8.916 -0.8276 -0.0287  2.7219
 2944TIP3    H230468   0.784   5.984   8.903  1.5935 -1.7942 -1.8219
 2945TIP3   OH230469   0.797   3.798   7.282  0.9568 -0.0609 -0.3389
 2945TIP3    H130470   0.806   3.889   7.309  0.2715 -0.3521  0.9367
 2945TIP3    H230471   0.703   3.785   7.272  1.0669 -0.5693 -0.7545
 2946TIP3   OH230472   6.513   6.173   6.772 -0.3343  0.1846 -0.2400
 2946TIP3    H130473   6.456   6.123   6.714 -1.3789 -0.3058  1.1399
 2946TIP3    H230474   6.466   6.175   6.856  1.4140  0.2837  0.7887
 2947TIP3   OH230475   0.409   4.383   0.313 -0.1808  0.0516 -0.9633
 2947TIP3    H130476   0.422   4.307   0.370 -2.1178  0.5290  0.2493
 2947TIP3    H230477   0.489   4.434   0.322  0.6312 -1.2003 -0.7915
 2948TIP3   OH230478   5.492   4.961   0.187  0.2514 -0.2544 -0.7047
 2948TIP3    H130479   5.521   5.011   0.264  1.5473 -2.5581  0.3835
 2948TIP3    H230480   5.572   4.924   0.151 -0.7683 -2.8160 -0.5057
 2949TIP3   OH230481   3.833   4.040   7.817  0.4580  0.2361 -0.2620
 2949TIP3    H130482   3.798   4.069   7.732 -0.4508 -3.5580 -1.4192
 2949TIP3    H230483   3.760   4.051   7.878 -0.5532 -1.1941 -1.1191
 2950TIP3   OH230484   0.559   4.665   1.462 -0.0333 -0.0565  0.2789
 2950TIP3    H130485   0.559   4.713   1.545  0.8629 -0.8049  0.7327
 2950TIP3    H230486   0.486   4.603   1.471  1.0964 -1.3126  1.2520
 2951TIP3   OH230487   0.702   2.017   8.704 -0.0648 -0.5209  0.1657
 2951TIP3    H130488   0.628   2.036   8.646 -0.2246  0.5751  0.7055
 2951TIP3    H230489   0.779   2.018   8.646  0.0810  2.7942  0.2078
 2952TIP3   OH230490   2.905   4.166   6.828  0.4119 -0.1763 -0.1697
 2952TIP3    H130491   2.855   4.248   6.834 -0.6575 -0.8875  1.5155
 2952TIP3    H230492   2.895   4.139   6.737 -2.0913 -0.1291  0.0064
 2953TIP3   OH230493   1.193   2.999   2.111 -0.1122  0.5079 -0.1100
 2953TIP3    H130494   1.107   3.036   2.088 -0.0506 -0.0729 -1.3482
 2953TIP3    H230495   1.176   2.945   2.188 -1.0732 -0.4059 -0.9345
 2954TIP3   OH230496   3.705   1.733   8.240 -0.1296 -0.2918  0.8152
 2954TIP3    H130497   3.741   1.820   8.223 -0.8039  0.2731  2.1515
 2954TIP3    H230498   3.649   1.715   8.165 -0.3946  0.6552  0.7785
 2955TIP3   OH230499   6.770   5.896   1.388 -0.4597  0.3161  0.0929
 2955TIP3    H130500   6.710   5.943   1.446 -0.7824  2.8176 -2.0823
 2955TIP3    H230501   6.854   5.941   1.398 -0.6609  1.2087 -1.6875
 2956TIP3   OH230502   0.688   5.542   8.347  0.9586  0.2257  0.0233
 2956TIP3    H130503   0.767   5.500   8.380  0.0734 -1.0868  0.5674
 2956TIP3    H230504   0.657   5.484   8.277 -0.5387 -0.3574  1.0955
 2957TIP3   OH230505   2.835   2.653   0.407  0.9082  0.4019  0.0505
 2957TIP3    H130506   2.796   2.578   0.363  1.7157  0.3036 -0.5210
 2957TIP3    H230507   2.792   2.655   0.493  2.3974 -2.0501  0.9713
 2958TIP3   OH230508   1.749   3.782   7.945 -0.4653 -0.2033 -0.1345
 2958TIP3    H130509   1.843   3.762   7.937 -0.2540  0.5442  0.3506
 2958TIP3    H230510   1.729   3.836   7.868 -0.3749  0.0608  0.0259
 2959TIP3   OH230511   2.155   6.266   6.888 -0.0881 -0.4482 -0.0834
 2959TIP3    H130512   2.092   6.217   6.941  0.3313 -1.8538 -0.8173
 2959TIP3    H230513   2.103   6.299   6.814  0.0166 -1.7146 -0.7559
 2960TIP3   OH230514   2.110   1.798   0.803 -0.1819 -0.0619  0.6900
 2960TIP3    H130515   2.053   1.870   0.775  1.0053  0.9458  0.7619
 2960TIP3    H230516   2.163   1.836   0.873  1.1066 -0.7192  0.1024
 2961TIP3   OH230517   2.679   3.724   1.431  0.1270 -0.2816  0.0937
 2961TIP3    H130518   2.720   3.706   1.516 -2.9312 -3.6470  1.1133
 2961TIP3    H230519   2.648   3.815   1.439 -0.2700 -0.5594  2.7448
 2962TIP3   OH230520   3.265   5.282   8.078  0.1017 -0.5554  0.6661
 2962TIP3    H130521   3.351   5.292   8.038  0.3089 -0.3029  1.1673
 2962TIP3    H230522   3.277   5.214   8.145  0.6414  1.4468  2.7195
 2963TIP3   OH230523   6.726   2.214   8.799 -0.1286  0.6217  0.1725
 2963TIP3    H130524   6.679   2.191   8.879 -0.7715 -0.6372 -0.5366
 2963TIP3    H230525   6.816   2.230   8.828 -0.6474  1.6394  1.3397
 2964TIP3   OH230526   6.727   5.935   1.744  0.3690  0.4041 -0.2157
 2964TIP3    H130527   6.782   5.965   1.816 -0.8666  3.3669 -0.3824
 2964TIP3    H230528   6.719   6.011   1.686 -1.7117 -0.7315 -1.5542
 2965TIP3   OH230529   2.235   4.221   8.560  0.6699  0.3404 -0.5435
 2965TIP3    H130530   2.312   4.256   8.517 -0.2869  0.4221 -2.2642
 2965TIP3    H230531   2.173   4.294   8.563  0.0460 -0.1657 -0.7351
 2966TIP3   OH230532   3.319   5.682   8.544  0.3769 -0.5778 -0.0871
 2966TIP3    H130533   3.255   5.696   8.615 -1.1842 -1.5073 -1.2627
 2966TIP3    H230534   3.404   5.696   8.586 -0.5910  1.7725  1.2946
 2967TIP3   OH230535   0.689   2.865   7.887  0.1325  0.0504  0.2247
 2967TIP3    H130536   0.632   2.899   7.956 -0.0716 -0.2380  0.2016
 2967TIP3    H230537   0.667   2.772   7.882  1.0658 -0.2035  0.6591
 2968TIP3   OH230538   4.569   5.550   1.354  0.1119  0.3619  0.3704
 2968TIP3    H130539   4.581   5.631   1.304  0.3231  0.0783 -0.0379
 2968TIP3    H230540   4.478   5.553   1.383 -0.1644  0.2842 -0.4649
 2969TIP3   OH230541   6.161   1.127   6.172  0.7280 -0.5394 -0.9400
 2969TIP3    H130542   6.211   1.057   6.212  0.4426 -0.3247 -0.2047
 2969TIP3    H230543   6.070   1.099   6.177  0.6503 -0.3131 -1.0451
 2970TIP3   OH230544   3.729   3.207   8.777  0.6391  0.1424  0.1696
 2970TIP3    H130545   3.638   3.223   8.801  1.1741  1.0483  1.7864
 2970TIP3    H230546   3.775   3.288   8.800  1.8743 -0.3365 -0.4923
 2971TIP3   OH230547   5.537   6.238   6.558 -0.6459 -0.0499 -0.0298
 2971TIP3    H130548   5.550   6.143   6.561  0.2546  0.0850  1.3003
 2971TIP3    H230549   5.618   6.272   6.522  0.3363  0.3771  2.3674
 2972TIP3   OH230550   2.720   1.765   0.059 -0.1953 -0.7962  0.1372
 2972TIP3    H130551   2.664   1.688   0.070  0.6389 -1.2762  1.2183
 2972TIP3    H230552   2.792   1.751   0.121  0.1609  0.6797  0.0848
 2973TIP3   OH230553   4.080   4.413   7.036 -0.4007  0.3447  0.3171
 2973TIP3    H130554   3.999   4.437   6.991  0.0540  2.6465  0.5983
 2973TIP3    H230555   4.095   4.484   7.098  0.0304 -1.7537  2.8083
 2974TIP3   OH230556   0.417   6.113   8.669 -0.3466  0.1764  0.4416
 2974TIP3    H130557   0.345   6.175   8.662  0.1199  0.6997  0.2099
 2974TIP3    H230558   0.419   6.068   8.585  0.2867  0.9369  0.0401
 2975TIP3   OH230559   1.765   2.180   7.553  0.1201 -0.5778 -0.2478
 2975TIP3    H130560   1.748   2.271   7.529 -0.2302 -1.1594 -2.3555
 2975TIP3    H230561   1.859   2.176   7.567  0.4064 -0.2573 -1.9293
 2976TIP3   OH230562   0.495   4.582   6.908 -0.2754 -0.4127  0.4264
 2976TIP3    H130563   0.574   4.537   6.939 -0.4912 -1.0869  0.0329
 2976TIP3    H230564   0.487   4.554   6.817  0.2445  1.3790 -0.2152
 2977TIP3   OH230565   2.254   3.209   6.967 -0.0760 -0.5300 -0.0474
 2977TIP3    H130566   2.174   3.244   7.005 -0.1870 -0.3791 -0.4148
 2977TIP3    H230567   2.225   3.164   6.888  0.2650  0.0158 -0.4861
 2978TIP3   OH230568   6.585   0.070   0.198 -0.5148 -0.7184  0.6582
 2978TIP3    H130569   6.546   0.157   0.193 -0.0172 -0.4884  0.7187
 2978TIP3    H230570   6.654   0.078   0.264  0.4370 -0.8046 -0.3099
 2979TIP3   OH230571   0.439   3.393   7.365  0.3808 -0.1681 -0.7028
 2979TIP3    H130572   0.477   3.378   7.451  1.2529  2.8394 -0.4420
 2979TIP3    H230573   0.354   3.434   7.383  0.3163 -0.0418 -1.2739
 2980TIP3   OH230574   4.788   4.159   0.288  0.2157  0.7805 -0.2967
 2980TIP3    H130575   4.813   4.113   0.369 -1.9091 -0.2666 -0.1854
 2980TIP3    H230576   4.714   4.214   0.314 -0.3522  0.5954 -1.4804
 2981TIP3   OH230577   6.086   6.776   0.896  0.2304  0.2402 -0.5954
 2981TIP3    H130578   6.064   6.683   0.908 -1.8438  0.8038  0.3580
 2981TIP3    H230579   6.097   6.787   0.802  0.9081 -1.0319 -0.6889
 2982TIP3   OH230580   1.231   0.391   1.426 -0.2301  0.0669  0.5792
 2982TIP3    H130581   1.321   0.421   1.437  0.1211 -0.9660  0.5550
 2982TIP3    H230582   1.238   0.307   1.381 -1.1719 -0.3630  1.2028
 2983TIP3   OH230583   3.631   5.560   7.643 -0.2997  0.0760  0.4308
 2983TIP3    H130584   3.692   5.489   7.660 -1.2902 -0.6811  0.9521
 2983TIP3    H230585   3.680   5.640   7.664  0.2024 -0.5575  1.7631
 2984TIP3   OH230586   5.455   5.170   7.459 -0.4269 -0.1308  0.0038
 2984TIP3    H130587   5.389   5.235   7.484  0.6390  0.7068  0.6715
 2984TIP3    H230588   5.483   5.197   7.372 -1.3836 -0.8525 -0.5554
 2985TIP3   OH230589   3.875   5.528   0.322 -0.4265 -0.3759  0.0895
 2985TIP3    H130590   3.825   5.518   0.241 -2.6502 -0.1563  1.3501
 2985TIP3    H230591   3.914   5.615   0.316 -0.8852 -0.2069 -0.5786
 2986TIP3   OH230592   6.492   3.985   0.711 -0.0280  0.0664  0.3070
 2986TIP3    H130593   6.576   4.027   0.693  0.3144 -0.5566  0.4078
 2986TIP3    H230594   6.475   3.932   0.633 -1.8575  2.5243 -1.1287
 2987TIP3   OH230595   5.918   3.692   0.999  0.3040  0.3742  0.5989
 2987TIP3    H130596   5.847   3.710   0.936 -0.0577  0.2489  0.9687
 2987TIP3    H230597   5.994   3.672   0.944 -0.5748 -2.0913  0.1590
 2988TIP3   OH230598   2.927   4.539   7.597  0.0714  0.5375 -0.3307
 2988TIP3    H130599   2.911   4.464   7.540 -2.1135  1.8682 -1.6027
 2988TIP3    H230600   3.020   4.533   7.619 -0.1326 -2.8088  0.1175
 2989TIP3   OH230601   0.689   2.564   7.486  0.0010  0.3077 -0.4613
 2989TIP3    H130602   0.676   2.495   7.550 -1.0612  1.0124  0.1174
 2989TIP3    H230603   0.622   2.549   7.420 -0.7597  1.2093  0.0742
 2990TIP3   OH230604   5.342   1.891   7.457 -0.5570  0.2658  0.4195
 2990TIP3    H130605   5.345   1.879   7.362  0.1150  0.7386  0.3723
 2990TIP3    H230606   5.352   1.985   7.469 -1.8887  0.3601  0.9182
 2991TIP3   OH230607   2.557   2.183   7.687  0.8407  0.2870  0.6386
 2991TIP3    H130608   2.621   2.136   7.739 -0.9293 -2.4899  0.4885
 2991TIP3    H230609   2.593   2.184   7.598  1.2096 -0.1636  0.7820
 2992TIP3   OH230610   0.212   6.749   0.271  0.1208 -0.4403  0.3491
 2992TIP3    H130611   0.175   6.830   0.236  0.1172 -0.2187  0.8664
 2992TIP3    H230612   0.203   6.686   0.199  0.3892  0.0901 -0.1637
 2993TIP3   OH230613   5.044   3.077   0.955  0.3327  0.1527 -0.0072
 2993TIP3    H130614   5.124   3.117   0.987  1.4882 -3.4773  2.1862
 2993TIP3    H230615   4.976   3.108   1.014  0.5709  1.2064 -0.2669
 2994TIP3   OH230616   5.022   6.704   1.921  0.1079  0.2236 -0.1464
 2994TIP3    H130617   4.985   6.775   1.974  0.3970 -0.2201  0.6653
 2994TIP3    H230618   4.960   6.694   1.849  0.0807  1.3288 -0.3043
 2995TIP3   OH230619   5.957   5.404   1.799 -0.4627  0.2884  0.3260
 2995TIP3    H130620   6.024   5.347   1.837  1.2545  2.1335  0.1737
 2995TIP3    H230621   5.906   5.435   1.874  0.2697  0.6263  0.6874
 2996TIP3   OH230622   6.775   4.753   0.968 -0.3212 -0.2208  0.1659
 2996TIP3    H130623   6.800   4.677   1.020  1.1001 -0.2605 -0.5015
 2996TIP3    H230624   6.844   4.759   0.901 -2.1083 -0.2385 -1.7685
 2997TIP3   OH230625   5.612   2.248   8.060 -0.6979 -0.2018 -0.0426
 2997TIP3    H130626   5.654   2.284   8.138 -0.1566  0.7575 -0.7497
 2997TIP3    H230627   5.519   2.265   8.073 -0.6428 -0.3056  0.5191
 2998TIP3   OH230628   3.982   0.031   0.872  0.3022 -0.1073 -0.2280
 2998TIP3    H130629   3.983  -0.037   0.940 -0.7290 -0.6716 -0.7465
 2998TIP3    H230630   3.920   0.096   0.905  0.5028  0.0720 -0.2059
 2999TIP3   OH230631   5.973   1.311   8.033  0.4996 -0.1086  0.2217
 2999TIP3    H130632   5.912   1.260   7.981  0.0930 -0.8252  1.3678
 2999TIP3    H230633   6.036   1.346   7.970 -2.1345  2.2906 -1.3023
 3000TIP3   OH230634   2.564   4.437   7.205  0.5509 -0.1526  0.2493
 3000TIP3    H130635   2.588   4.345   7.194  1.3220  0.1281 -0.6333
 3000TIP3    H230636   2.583   4.457   7.297  1.6993 -0.5291  0.1140
 3001TIP3   OH230637   6.315   1.464   1.704  0.2850  0.3749 -0.5374
 3001TIP3    H130638   6.342   1.394   1.644  1.1811 -0.2372  0.5367
 3001TIP3    H230639   6.397   1.509   1.726  0.1151  0.0435  0.8776
 3002TIP3   OH230640   3.662   3.795   8.795  0.2057  0.3377 -0.4762
 3002TIP3    H130641   3.740   3.832   8.836  1.5236 -1.2856 -1.4033
 3002TIP3    H230642   3.611   3.760   8.868  0.9140  0.3921  0.0544
 3003TIP3   OH230643   0.118   0.769   8.285 -0.0514 -0.3785  0.4508
 3003TIP3    H130644   0.156   0.737   8.203  0.7369  0.5672  0.4313
 3003TIP3    H230645   0.034   0.808   8.259 -0.7591 -1.8613  0.3983
 3004TIP3   OH230646   4.928   5.048   0.855 -0.0758 -0.3819 -0.0392
 3004TIP3    H130647   4.841   5.084   0.874 -0.2916 -0.4041 -0.9222
 3004TIP3    H230648   4.981   5.125   0.831 -0.4771 -0.5771 -1.7064
 3005TIP3   OH230649   4.335   4.443   1.666 -0.1726 -0.3836 -0.3468
 3005TIP3    H130650   4.306   4.370   1.721 -0.9121  0.6373  0.6676
 3005TIP3    H230651   4.419   4.414   1.631  0.9054 -0.6822  2.2155
 3006TIP3   OH230652   1.514   6.320   1.342  0.2572  0.3216 -0.2411
 3006TIP3    H130653   1.529   6.331   1.436 -1.6911  0.2450  0.1302
 3006TIP3    H230654   1.601   6.327   1.303  1.0274  1.1220  1.4823
 3007TIP3   OH230655   0.896   0.055   1.528 -0.4864  0.1225  0.8545
 3007TIP3    H130656   0.950   0.074   1.451 -1.7678  0.6278  0.0541
 3007TIP3    H230657   0.914  -0.036   1.548 -1.0243 -0.3897 -0.7990
 3008TIP3   OH230658   0.676   1.191   0.240  0.3632  0.0979  0.6625
 3008TIP3    H130659   0.676   1.107   0.285 -1.3605  0.7543  1.9855
 3008TIP3    H230660   0.658   1.169   0.148 -1.1736 -0.9103  1.1700
 3009TIP3   OH230661   3.729   1.400   1.620 -0.0836  0.0940  0.1464
 3009TIP3    H130662   3.670   1.418   1.547  1.5161 -0.9034 -1.4681
 3009TIP3    H230663   3.817   1.417   1.585  0.6182  2.8377  2.8630
 3010TIP3   OH230664   2.921   2.687   8.133 -0.2828  0.2122  0.1094
 3010TIP3    H130665   2.839   2.671   8.179  0.3283 -0.6576  0.9359
 3010TIP3    H230666   2.895   2.712   8.045 -1.4313 -1.2037  0.0050
 3011TIP3   OH230667   1.579   1.016   8.114 -0.4808  0.4403 -0.1552
 3011TIP3    H130668   1.506   1.024   8.175 -0.7704 -0.3617 -0.3868
 3011TIP3    H230669   1.630   1.096   8.128 -1.3671  0.9871  0.0415
 3012TIP3   OH230670   5.106   2.479   1.196 -0.6186 -0.3819 -0.0150
 3012TIP3    H130671   5.100   2.565   1.154 -1.7386 -0.2071  0.4735
 3012TIP3    H230672   5.048   2.423   1.145  0.3943 -0.9652 -0.5605
 3013TIP3   OH230673   1.004   1.215   2.648  0.1145  0.1649  0.5922
 3013TIP3    H130674   0.997   1.277   2.720 -1.0605  0.5592  0.1655
 3013TIP3    H230675   1.070   1.152   2.676  1.2860  1.5603  1.0563
 3014TIP3   OH230676   5.148   6.572   8.824 -0.4491 -0.1813 -0.2345
 3014TIP3    H130677   5.178   6.588   8.914  1.2501 -1.5884 -0.4886
 3014TIP3    H230678   5.175   6.651   8.776 -2.9101  1.3661  0.7542
 3015TIP3   OH230679   6.284   1.109   8.253 -0.3744 -0.2281 -0.6418
 3015TIP3    H130680   6.309   1.020   8.231  2.9824 -0.1401  1.9236
 3015TIP3    H230681   6.338   1.164   8.196  1.6725 -0.0022  1.3539
 3016TIP3   OH230682   4.082   1.453   0.544  0.1836 -0.0345  0.0527
 3016TIP3    H130683   4.046   1.538   0.570 -0.3857 -0.2135 -0.1421
 3016TIP3    H230684   4.112   1.415   0.627  0.8690  0.5438  0.0839
 3017TIP3   OH230685   0.847   6.674   1.187  0.2284  0.6500  0.2598
 3017TIP3    H130686   0.850   6.754   1.134 -2.1675  1.3141  0.9866
 3017TIP3    H230687   0.772   6.687   1.245 -0.4656 -2.2883  0.1686
 3018TIP3   OH230688   0.278   3.521   8.348  0.3629 -0.2447 -0.5164
 3018TIP3    H130689   0.317   3.608   8.355  0.4184 -0.2986 -0.1718
 3018TIP3    H230690   0.206   3.521   8.410 -0.0773 -0.2088 -1.0151
 3019TIP3   OH230691   5.052   3.708   0.638 -0.6744  0.7008  0.4365
 3019TIP3    H130692   4.999   3.629   0.645  2.0770 -1.2868  0.4805
 3019TIP3    H230693   5.094   3.717   0.724  0.2314  1.3187 -0.0524
 3020TIP3   OH230694   0.949   5.439   0.578  0.4454  0.6093  0.1133
 3020TIP3    H130695   0.901   5.394   0.509  1.2390 -0.1247  0.0243
 3020TIP3    H230696   0.990   5.369   0.629  1.0194  1.1923  0.4820
 3021TIP3   OH230697   5.577   6.772   1.176 -0.3265 -0.3584 -0.7074
 3021TIP3    H130698   5.661   6.781   1.131  0.1470  0.0811  0.2409
 3021TIP3    H230699   5.549   6.861   1.195 -1.9744 -0.3596 -2.6612
 3022TIP3   OH230700   5.856   4.614   8.685 -0.1233  1.0107 -0.3727
 3022TIP3    H130701   5.798   4.544   8.716  0.1879  0.2642 -1.3921
 3022TIP3    H230702   5.798   4.673   8.636 -0.1189  0.4755 -1.0533
 3023TIP3   OH230703   5.657   0.452   7.394 -0.1384  0.4038 -0.1586
 3023TIP3    H130704   5.657   0.508   7.317 -0.1791  1.1390  0.3669
 3023TIP3    H230705   5.698   0.371   7.365  0.7440  1.0256 -0.6962
 3024TIP3   OH230706   2.111   2.174   0.442 -0.2004 -0.2206  0.3720
 3024TIP3    H130707   2.034   2.202   0.492  1.0100 -0.7043  2.6630
 3024TIP3    H230708   2.076   2.148   0.357 -2.4296  0.4451  0.9989
 3025TIP3   OH230709   4.093   5.911   8.106 -0.0971  0.4640  0.4945
 3025TIP3    H130710   4.081   5.826   8.148  0.3200 -0.8380 -1.9216
 3025TIP3    H230711   4.187   5.922   8.098 -0.1697 -0.3735 -2.0764
 3026TIP3   OH230712   1.649   1.322   6.560 -0.1669  0.4492  0.3088
 3026TIP3    H130713   1.567   1.352   6.522 -0.3486  0.1673  0.4734
 3026TIP3    H230714   1.634   1.326   6.655 -0.3227 -0.5178  0.3258
 3027TIP3   OH230715   1.862   4.492   0.729  0.3854 -0.2416 -0.2288
 3027TIP3    H130716   1.903   4.537   0.802  0.8471  1.0141 -1.2172
 3027TIP3    H230717   1.898   4.535   0.651 -0.3243 -1.3225 -1.1909
 3028TIP3   OH230718   0.090   5.248   8.072  0.0404  0.3277 -0.1465
 3028TIP3    H130719   0.079   5.311   8.002  0.4900  1.8103  1.0531
 3028TIP3    H230720   0.144   5.178   8.034 -1.6915 -0.1143 -1.9244
 3029TIP3   OH230721   2.795   0.565   0.215 -0.3998  0.0091  0.5917
 3029TIP3    H130722   2.797   0.533   0.305 -0.4685 -1.7687 -0.0118
 3029TIP3    H230723   2.709   0.539   0.182 -0.8560  1.6887  0.3309
 3030TIP3   OH230724   5.358   4.248   2.148 -0.5247 -0.3381  0.6560
 3030TIP3    H130725   5.313   4.258   2.064 -1.5209  0.5254  1.2744
 3030TIP3    H230726   5.416   4.173   2.135 -0.1547  0.1835 -1.0211
 3031TIP3   OH230727   5.768   0.425   1.222 -0.2425 -0.6396 -0.4657
 3031TIP3    H130728   5.807   0.350   1.177  0.5934  0.5351 -1.8212
 3031TIP3    H230729   5.833   0.451   1.286 -0.4637 -0.9631 -0.1054
 3032TIP3   OH230730   3.349   2.258   1.437  0.0131  0.1569 -0.1984
 3032TIP3    H130731   3.330   2.342   1.394 -1.3189 -0.4535 -0.8600
 3032TIP3    H230732   3.400   2.209   1.372 -2.6175 -1.0513 -1.5339
 3033TIP3   OH230733   0.087   3.493   6.992 -0.0492 -0.0052 -0.8853
 3033TIP3    H130734   0.171   3.464   7.026 -0.3369 -1.2674 -1.2187
 3033TIP3    H230735   0.075   3.580   7.030  0.0560 -0.9767  1.5920
 3034TIP3   OH230736   6.678   5.325   7.219 -0.5737 -0.4164  0.2405
 3034TIP3    H130737   6.702   5.280   7.138  0.5494  1.5593 -0.6001
 3034TIP3    H230738   6.724   5.278   7.288 -1.4174 -2.0320 -0.2521
 3035TIP3   OH230739   6.033   3.851   8.074  1.0449  0.3850 -0.8321
 3035TIP3    H130740   5.968   3.919   8.055 -2.1462 -2.4584 -1.0558
 3035TIP3    H230741   6.080   3.839   7.992 -0.9929 -0.2392 -1.9544
 3036TIP3   OH230742   0.221   4.536   1.902 -0.4119  0.1106 -0.5941
 3036TIP3    H130743   0.225   4.615   1.956 -0.4594 -0.0791 -0.3142
 3036TIP3    H230744   0.132   4.504   1.913 -0.7183  0.6051 -1.5457
 3037TIP3   OH230745   2.101   1.657   1.341  0.3196 -0.2364  0.0550
 3037TIP3    H130746   2.027   1.623   1.393  0.8289 -1.5560 -0.0510
 3037TIP3    H230747   2.121   1.741   1.382 -1.8701  0.6436 -0.5246
 3038TIP3   OH230748   2.419   5.510   1.664 -0.0418  0.0694  0.1445
 3038TIP3    H130749   2.342   5.455   1.649  0.3997 -1.0072  1.5998
 3038TIP3    H230750   2.396   5.594   1.625 -1.9284 -0.2480  0.4478
 3039TIP3   OH230751   3.918   1.691   7.200 -0.1881  0.4157  0.4472
 3039TIP3    H130752   3.992   1.738   7.239 -0.1718  1.3063 -0.6264
 3039TIP3    H230753   3.840   1.733   7.237 -0.1939 -0.5532  1.6148
 3040TIP3   OH230754   3.776   6.226   7.814 -0.1656  0.8311 -0.0744
 3040TIP3    H130755   3.862   6.195   7.787 -0.3151  0.1955  0.1548
 3040TIP3    H230756   3.754   6.171   7.890 -0.4221  1.5266  0.3658
 3041TIP3   OH230757   5.346   1.056   7.620  0.0713  0.1448  0.0102
 3041TIP3    H130758   5.292   1.133   7.632  0.0006  0.0607  0.2326
 3041TIP3    H230759   5.333   1.004   7.699 -0.4713 -0.4551 -0.4638
 3042TIP3   OH230760   2.390   5.724   1.274  0.2616  0.3170 -0.0237
 3042TIP3    H130761   2.447   5.740   1.349 -1.3957  0.6844  1.2430
 3042TIP3    H230762   2.436   5.659   1.221  1.1621 -0.5347  1.7103
 3043TIP3   OH230763   5.865   5.471   1.563  0.2257  0.5785  0.2648
 3043TIP3    H130764   5.773   5.451   1.579  0.4994 -1.0981 -0.1380
 3043TIP3    H230765   5.911   5.441   1.642  0.8988 -2.5753 -1.1942
 3044TIP3   OH230766   1.271   1.289   7.030  0.1993 -0.6238  0.4071
 3044TIP3    H130767   1.348   1.317   7.080  1.2458 -0.6207 -1.1327
 3044TIP3    H230768   1.305   1.225   6.968 -1.2944 -1.6238  0.5517
 3045TIP3   OH230769   3.333   0.120   7.606 -0.6887  0.5347 -0.1229
 3045TIP3    H130770   3.281   0.047   7.639 -0.8898  0.7941  0.1524
 3045TIP3    H230771   3.395   0.139   7.677 -0.4809  0.4803 -0.2886
 3046TIP3   OH230772   0.272   5.468   1.367  0.3837  0.6495  0.4440
 3046TIP3    H130773   0.329   5.417   1.309  0.4566  2.5137 -1.2574
 3046TIP3    H230774   0.282   5.428   1.453  0.0808 -2.4357 -0.8347
 3047TIP3   OH230775   1.228   6.262   1.363 -0.0981  0.3127 -0.2284
 3047TIP3    H130776   1.192   6.193   1.307  1.3213 -0.4495 -0.2225
 3047TIP3    H230777   1.322   6.248   1.362 -0.0407  0.0106  2.7116
 3048TIP3   OH230778   4.730   3.642   7.021 -1.3545  0.0194  0.0799
 3048TIP3    H130779   4.690   3.706   7.079 -0.9783 -0.0930  0.4701
 3048TIP3    H230780   4.742   3.564   7.076  0.9365  0.5824  0.4716
 3049TIP3   OH230781   6.604   1.576   8.912 -0.1855 -0.2783  0.0670
 3049TIP3    H130782   6.545   1.516   8.865 -0.4607 -0.4866  0.6641
 3049TIP3    H230783   6.691   1.542   8.896 -0.1551  0.3957 -1.3556
 3050TIP3   OH230784   1.777   3.821   0.025  0.0237  0.4080 -0.7660
 3050TIP3    H130785   1.766   3.759  -0.047 -0.6236  0.5893 -0.8292
 3050TIP3    H230786   1.861   3.797   0.064  0.3933  0.3150 -1.5836
 3051TIP3   OH230787   2.559   3.610   1.005 -0.2457 -0.2703  0.2379
 3051TIP3    H130788   2.473   3.595   1.045 -1.0059  0.0733 -1.2243
 3051TIP3    H230789   2.540   3.645   0.918  1.4004  1.3912  0.4905
 3052TIP3   OH230790   3.285   5.493   0.748 -0.0458  0.0170  0.5033
 3052TIP3    H130791   3.221   5.564   0.756  1.5642  1.3394  3.1224
 3052TIP3    H230792   3.324   5.486   0.835  2.1324 -1.9506 -0.5135
 3053TIP3   OH230793   5.062   3.102   8.973  0.5738 -0.1203 -0.4503
 3053TIP3    H130794   5.152   3.135   8.973  0.4078  0.5367 -3.2627
 3053TIP3    H230795   5.063   3.025   8.916 -0.9035  0.8672 -1.9097
 3054TIP3   OH230796   4.773   3.545   7.873 -0.1734  0.7206  0.7369
 3054TIP3    H130797   4.847   3.486   7.884 -0.8600  0.1222  2.3709
 3054TIP3    H230798   4.724   3.509   7.799  1.0180  1.0160 -0.2371
 3055TIP3   OH230799   0.207   6.397   0.160 -0.1418  0.1060  0.1198
 3055TIP3    H130800   0.182   6.485   0.132  3.8693  0.7712 -2.1871
 3055TIP3    H230801   0.155   6.339   0.105  0.2699  1.2291 -1.5396
 3056TIP3   OH230802   1.887   2.098   0.021 -0.2134  0.0062  0.0935
 3056TIP3    H130803   1.819   2.150  -0.023  0.0372  0.1538 -0.1258
 3056TIP3    H230804   1.967   2.122  -0.025 -0.2375 -1.3656 -0.7040
 3057TIP3   OH230805   5.669   0.444   6.530  0.1351 -0.2948 -0.8278
 3057TIP3    H130806   5.759   0.473   6.516 -0.7473  2.2372 -1.7422
 3057TIP3    H230807   5.675   0.381   6.601  2.4242  1.0857  0.3077
 3058TIP3   OH230808   2.679   6.434   1.298 -0.3269  0.0892 -0.2005
 3058TIP3    H130809   2.592   6.399   1.316 -0.1198  0.1481  1.0430
 3058TIP3    H230810   2.725   6.427   1.382  1.2218 -0.9445 -1.0677
 3059TIP3   OH230811   0.192   6.279   8.597  0.2762  0.0156  0.2774
 3059TIP3    H130812   0.186   6.374   8.608  1.8152  0.3540 -1.3616
 3059TIP3    H230813   0.139   6.260   8.520  1.3577 -0.1610 -0.4536
 3060TIP3   OH230814   0.306   0.761   1.310 -0.3011 -0.1366 -0.3797
 3060TIP3    H130815   0.328   0.669   1.303 -0.6686 -0.1373 -1.7728
 3060TIP3    H230816   0.303   0.793   1.219 -1.0090  1.0357  0.0246
 3061TIP3   OH230817   2.372   6.677   1.577  0.3041 -0.2918  0.5212
 3061TIP3    H130818   2.434   6.748   1.559 -1.2362  1.2059  0.8725
 3061TIP3    H230819   2.414   6.625   1.646  2.0009 -0.4771 -0.6036
 3062TIP3   OH230820   4.809   2.943   6.986 -0.7207 -0.0596 -0.3414
 3062TIP3    H130821   4.801   2.848   6.979 -2.1314 -0.0170  0.3899
 3062TIP3    H230822   4.899   2.957   7.017 -0.9883 -1.2397  1.0774
 3063TIP3   OH230823   2.179   1.015   7.786 -0.2712 -0.5635  0.0174
 3063TIP3    H130824   2.152   0.959   7.859 -0.1802 -1.2529 -0.4659
 3063TIP3    H230825   2.098   1.033   7.739 -0.0931 -1.5563 -0.6917
 3064TIP3   OH230826   0.641   2.707   1.619 -0.0729  0.2274 -0.2895
 3064TIP3    H130827   0.645   2.780   1.682 -3.3298 -0.5836  1.0757
 3064TIP3    H230828   0.642   2.629   1.674 -0.3441 -0.6004 -1.4362
 3065TIP3   OH230829   1.108   0.356   7.733  0.3503  0.0143 -0.0096
 3065TIP3    H130830   1.134   0.285   7.675 -0.1138 -1.2998  1.3249
 3065TIP3    H230831   1.066   0.420   7.676  1.0185 -0.6504 -1.2844
 3066TIP3   OH230832   2.737   4.991   0.845 -0.4447 -0.0781 -0.2443
 3066TIP3    H130833   2.672   4.926   0.873 -0.0776  0.2344  1.4186
 3066TIP3    H230834   2.791   4.944   0.781 -0.7401 -1.1268  0.2579
 3067TIP3   OH230835   0.099   1.552   7.654  0.1092 -0.1903  0.2136
 3067TIP3    H130836   0.066   1.562   7.743 -1.1318  0.5448 -0.3034
 3067TIP3    H230837   0.191   1.580   7.659  0.2151 -0.7046  1.3599
 3068TIP3   OH230838   5.247   3.519   0.444 -0.0094 -0.2935  0.7230
 3068TIP3    H130839   5.209   3.606   0.458  0.4680  0.0834 -0.2153
 3068TIP3    H230840   5.324   3.517   0.500  0.5136  0.2579  0.0351
 3069TIP3   OH230841   5.879   5.165   0.604  0.0136 -0.3221  0.2544
 3069TIP3    H130842   5.829   5.105   0.659  0.4295 -0.8913  0.0189
 3069TIP3    H230843   5.907   5.235   0.663 -0.6500 -0.2462  0.4864
 3070TIP3   OH230844   6.372   4.162   8.117 -0.1930 -0.9883  0.2956
 3070TIP3    H130845   6.295   4.112   8.144 -1.8705  1.1071 -0.3415
 3070TIP3    H230846   6.412   4.190   8.199 -1.4388 -0.2529  0.6942
 3071TIP3   OH230847   0.495   0.780   8.188  0.5624 -0.4445  0.1799
 3071TIP3    H130848   0.570   0.720   8.192 -0.4636 -1.9385 -1.3559
 3071TIP3    H230849   0.426   0.730   8.144 -0.8876  1.3650  0.2339
 3072TIP3   OH230850   6.495   0.422   7.683 -0.1230 -0.1222  0.5490
 3072TIP3    H130851   6.442   0.345   7.705 -0.1874 -0.3733 -0.4314
 3072TIP3    H230852   6.502   0.419   7.587  0.2379  0.8531  0.5390
 3073TIP3   OH230853   2.136   6.041   1.529  0.4173  0.4023  0.2094
 3073TIP3    H130854   2.193   6.117   1.541  0.8970 -0.2493  2.6169
 3073TIP3    H230855   2.082   6.039   1.608 -3.4755  1.2979 -2.1593
 3074TIP3   OH230856   6.589   4.326   1.486 -0.1781 -0.8494  0.4644
 3074TIP3    H130857   6.650   4.339   1.414 -1.1470  2.5314  0.0359
 3074TIP3    H230858   6.514   4.282   1.446  0.5047 -1.7408  0.1449
 3075TIP3   OH230859   6.651   5.046   1.852  1.0418  0.8623  0.3639
 3075TIP3    H130860   6.642   5.120   1.792 -1.2308  1.0146  0.8050
 3075TIP3    H230861   6.695   5.083   1.929  1.7173  1.2492 -0.1927
 3076TIP3   OH230862   4.179   3.663   7.554  0.1238 -0.2120  0.3542
 3076TIP3    H130863   4.270   3.687   7.572  0.3761 -1.0406  0.2113
 3076TIP3    H230864   4.135   3.666   7.639  1.0708 -3.1241  1.0353
 3077TIP3   OH230865   4.564   2.854   8.940 -0.4590  0.1231 -0.1245
 3077TIP3    H130866   4.633   2.918   8.961 -0.2451 -0.0067 -0.4326
 3077TIP3    H230867   4.555   2.802   9.020 -0.5359  0.4447  0.0811
 3078TIP3   OH230868   0.096   4.199   8.164 -0.0741  1.2305 -0.4324
 3078TIP3    H130869   0.051   4.159   8.239  0.8155 -1.3897 -1.1989
 3078TIP3    H230870   0.048   4.281   8.150 -2.0996  0.4546  1.1984
 3079TIP3   OH230871   3.562   3.867   7.678  0.2858 -0.2243  0.0485
 3079TIP3    H130872   3.648   3.827   7.691  0.6851  0.3750 -0.7257
 3079TIP3    H230873   3.571   3.955   7.713 -0.3488 -0.5034  0.9732
 3080TIP3   OH230874   1.011   5.300   0.928 -0.0491 -0.1332 -0.0354
 3080TIP3    H130875   1.072   5.229   0.910  0.3544 -0.4790  2.4095
 3080TIP3    H230876   1.063   5.380   0.918  0.6737 -0.4000  1.4038
 3081TIP3   OH230877   5.998   6.493   0.966  0.0818 -0.1491  0.0008
 3081TIP3    H130878   5.927   6.518   0.906  0.8312  0.1914 -0.7524
 3081TIP3    H230879   5.970   6.409   1.002 -1.4012  0.6529  0.8264
 3082TIP3   OH230880   3.855   4.898   7.162  0.1417 -0.7822 -0.4223
 3082TIP3    H130881   3.801   4.826   7.195 -1.1817  0.3911  0.0679
 3082TIP3    H230882   3.942   4.860   7.152  0.0805 -1.8130  2.2345
 3083TIP3   OH230883   0.227   6.391   1.816 -0.5487 -0.3616  0.1753
 3083TIP3    H130884   0.278   6.468   1.840  0.1669  0.2799 -2.9278
 3083TIP3    H230885   0.289   6.318   1.820 -0.1557 -0.0866 -0.5943
 3084TIP3   OH230886   4.130   4.242   0.658 -0.1561  0.5166  0.0271
 3084TIP3    H130887   4.166   4.251   0.570 -1.1558  2.3949 -0.2369
 3084TIP3    H230888   4.039   4.268   0.650 -1.6080 -3.4862  0.7963
 3085TIP3   OH230889   6.426   0.227   0.892 -0.3706  0.3564  0.1017
 3085TIP3    H130890   6.430   0.161   0.823 -0.9222  0.5256 -0.0982
 3085TIP3    H230891   6.426   0.177   0.973 -0.0552  0.1405 -0.0325
 3086TIP3   OH230892   6.469   5.309   7.918 -0.9101  0.6645  0.1780
 3086TIP3    H130893   6.464   5.324   8.012  1.2140 -0.4774  0.5421
 3086TIP3    H230894   6.436   5.220   7.906 -1.2339  0.8286 -0.1771
 3087TIP3   OH230895   2.354   5.805   2.296  0.2859  0.2001 -0.0381
 3087TIP3    H130896   2.334   5.877   2.357  0.6365  0.9530 -0.7966
 3087TIP3    H230897   2.420   5.842   2.237 -2.0209  0.4447 -2.6460
 3088TIP3   OH230898   0.754   1.745   7.729  0.1481  0.0157  0.0850
 3088TIP3    H130899   0.843   1.780   7.730  0.6136 -1.1298  0.2511
 3088TIP3    H230900   0.697   1.823   7.731  1.1163  0.7526  2.6309
 3089TIP3   OH230901   0.527   2.588   8.315 -0.1709  0.1965 -0.0679
 3089TIP3    H130902   0.609   2.635   8.299  0.2116 -1.0651 -2.1542
 3089TIP3    H230903   0.515   2.533   8.238 -1.0456 -2.4779  1.8207
 3090TIP3   OH230904   0.177   1.874   6.392  0.1487 -0.0308  0.0350
 3090TIP3    H130905   0.125   1.951   6.370 -0.5414 -0.7351 -0.8619
 3090TIP3    H230906   0.268   1.905   6.390 -0.1340  0.8348  0.0488
 3091TIP3   OH230907   6.524   5.917   0.299  1.0573  0.3998  0.0647
 3091TIP3    H130908   6.586   5.862   0.347  1.1069  0.7290  0.3849
 3091TIP3    H230909   6.459   5.942   0.365  1.6192  1.5981  0.1884
 3092TIP3   OH230910   5.056   6.752   0.516  0.8609  0.0713  0.3667
 3092TIP3    H130911   4.982   6.759   0.456  1.1944  2.3487  0.1653
 3092TIP3    H230912   5.079   6.659   0.514  0.4809 -0.0443 -2.5762
 3093TIP3   OH230913   0.897   4.535   8.338  0.4000  0.1051 -0.1879
 3093TIP3    H130914   0.827   4.571   8.392 -0.4214 -0.5600 -0.7858
 3093TIP3    H230915   0.956   4.493   8.399  0.2988  0.7022  0.3278
 3094TIP3   OH230916   3.828   1.256   0.041 -0.3792 -0.3594  1.0176
 3094TIP3    H130917   3.894   1.283   0.105 -0.2167  2.6243 -0.2277
 3094TIP3    H230918   3.744   1.275   0.083 -0.3343 -0.3636  1.1085
 3095TIP3   OH230919   2.986   6.452   6.366  0.2001 -0.5348 -0.8251
 3095TIP3    H130920   2.968   6.394   6.440 -3.4804  1.1573 -0.1841
 3095TIP3    H230921   3.040   6.522   6.402 -0.6063 -0.3314  0.0169
 3096TIP3   OH230922   1.725   2.326   8.612  0.4875 -0.3639  0.1241
 3096TIP3    H130923   1.660   2.262   8.581  0.5824  0.2654 -1.4780
 3096TIP3    H230924   1.714   2.401   8.554  0.4364  1.0773  1.9077
 3097TIP3   OH230925   0.137   6.099   1.858 -0.3102  0.5523 -0.1975
 3097TIP3    H130926   0.151   6.050   1.939  1.3146  1.5849  0.1894
 3097TIP3    H230927   0.208   6.163   1.856 -1.4682  1.8677 -1.4626
 3098TIP3   OH230928   4.922   6.324   8.444 -0.1196 -0.2429 -0.1595
 3098TIP3    H130929   4.992   6.333   8.509 -0.0715 -1.0185 -0.0933
 3098TIP3    H230930   4.842   6.317   8.496 -0.0414 -1.2438 -0.1589
 3099TIP3   OH230931   6.024   5.394   7.492  0.0506 -0.0983  0.2753
 3099TIP3    H130932   5.980   5.479   7.486  0.5217  0.3375  2.1053
 3099TIP3    H230933   6.026   5.361   7.403 -1.4434  1.1534 -0.2647
 3100TIP3   OH230934   4.218   0.090   1.889  0.7537 -0.2337 -0.7757
 3100TIP3    H130935   4.264   0.064   1.968 -0.3537 -0.9616 -0.3447
 3100TIP3    H230936   4.162   0.162   1.916  0.2706 -0.5752 -0.8570
 3101TIP3   OH230937   5.005   0.487   8.343  0.6648 -0.0416 -0.8384
 3101TIP3    H130938   4.962   0.525   8.266 -1.4135  0.6288  0.5504
 3101TIP3    H230939   4.993   0.552   8.412 -0.1417 -1.8030  0.7898
 3102TIP3   OH230940   3.055   0.023   7.363 -0.0830 -0.3289 -0.2383
 3102TIP3    H130941   3.064  -0.063   7.404  0.1310 -1.9552 -3.3627
 3102TIP3    H230942   2.965   0.048   7.379 -0.5355 -1.7932 -0.3548
 3103TIP3   OH230943   1.935   1.621   6.537 -0.0997 -0.3341  0.1897
 3103TIP3    H130944   1.918   1.570   6.458  0.5030  1.4356 -1.1419
 3103TIP3    H230945   1.849   1.637   6.575 -0.6136  0.4782 -1.2437
 3104TIP3   OH230946   2.921   5.650   7.606 -0.6552 -0.0205 -0.2971
 3104TIP3    H130947   2.996   5.608   7.563 -0.3108  1.5826 -1.3320
 3104TIP3    H230948   2.882   5.580   7.659  0.4172 -1.3939 -1.2479
 3105TIP3   OH230949   5.460   4.448   6.968 -0.8132 -0.9278  0.3762
 3105TIP3    H130950   5.495   4.403   6.891 -0.3099  1.6956 -1.0629
 3105TIP3    H230951   5.412   4.523   6.931 -3.9182 -1.6785  2.4975
 3106TIP3   OH230952   4.305   6.399   8.958 -0.3842  0.1357  0.1697
 3106TIP3    H130953   4.228   6.365   8.912 -0.7051  0.7185  0.2576
 3106TIP3    H230954   4.342   6.323   9.002 -1.9622  0.1368  1.6166
 3107TIP3   OH230955   0.512   1.909   7.633  0.0156  0.6173 -0.4015
 3107TIP3    H130956   0.526   1.877   7.544  0.5953  1.5212 -0.6503
 3107TIP3    H230957   0.417   1.907   7.644 -0.0379  0.1190 -0.8991
 3108TIP3   OH230958   2.491   1.383   7.392 -0.2067  0.1066 -0.3232
 3108TIP3    H130959   2.575   1.391   7.348 -0.7395  0.4552 -1.2899
 3108TIP3    H230960   2.514   1.361   7.483  0.9525  1.5003 -0.2540
 3109TIP3   OH230961   2.265   3.516   7.841 -0.3275 -0.2392  0.0926
 3109TIP3    H130962   2.331   3.500   7.908 -0.1705 -0.1530 -0.0412
 3109TIP3    H230963   2.294   3.464   7.766  0.4288  0.9960 -0.5067
 3110TIP3   OH230964   5.284   4.522   8.897  0.5076 -0.5125 -0.2521
 3110TIP3    H130965   5.374   4.488   8.898  0.2374 -1.2454 -0.1460
 3110TIP3    H230966   5.235   4.457   8.847  0.2611  0.4889 -1.3638
 3111TIP3   OH230967   2.887   0.843   0.613  0.1997 -0.1191 -0.0527
 3111TIP3    H130968   2.890   0.749   0.598 -0.2857 -0.1769  0.1923
 3111TIP3    H230969   2.973   0.864   0.650  0.7241 -0.2746 -1.1608
 3112TIP3   OH230970   1.997   2.966   1.155 -0.6576  0.3927  0.1492
 3112TIP3    H130971   2.053   3.026   1.204  1.7124 -0.2817 -1.5677
 3112TIP3    H230972   2.055   2.893   1.131 -2.2607 -0.3538 -1.7167
 3113TIP3   OH230973   3.553   4.626   6.986  0.1327  0.2066 -0.1442
 3113TIP3    H130974   3.608   4.692   6.944 -1.5067  1.0104 -1.1007
 3113TIP3    H230975   3.506   4.585   6.913 -0.6872 -0.3083  0.6659
 3114TIP3   OH230976   4.208   3.399   1.035  0.5336 -0.2599 -0.4090
 3114TIP3    H130977   4.201   3.304   1.034  0.0361 -0.2278 -1.0004
 3114TIP3    H230978   4.143   3.427   1.098 -2.2177 -0.1549 -3.0648
 3115TIP3   OH230979   4.519   5.621   7.519  0.5337  0.1337 -0.5368
 3115TIP3    H130980   4.457   5.594   7.450  0.3641  1.3276 -0.8711
 3115TIP3    H230981   4.476   5.595   7.601 -0.2486  0.6242 -0.7821
 3116TIP3   OH230982   0.191   2.666   8.410 -0.0031  0.5048 -0.0084
 3116TIP3    H130983   0.260   2.725   8.380 -0.6546  0.8828 -0.7995
 3116TIP3    H230984   0.179   2.604   8.338 -0.2348  0.2196  0.2714
 3117TIP3   OH230985   4.589   5.684   8.919  0.5416 -0.0265  0.1737
 3117TIP3    H130986   4.632   5.662   9.001  2.5374  0.0555 -0.7690
 3117TIP3    H230987   4.603   5.778   8.909  0.9862 -0.1668 -0.5999
 3118TIP3   OH230988   5.919   3.317   1.759  0.3079 -0.0475 -0.3178
 3118TIP3    H130989   5.924   3.253   1.688  0.6286 -1.4861  0.9683
 3118TIP3    H230990   5.919   3.402   1.714  1.5374 -0.8782 -1.9814
 3119TIP3   OH230991   6.070   1.920   1.176  0.7089  0.1618 -1.0215
 3119TIP3    H130992   5.981   1.893   1.152  1.1247 -0.2933 -2.1151
 3119TIP3    H230993   6.079   1.894   1.268  0.1657 -1.0134 -1.2824
 3120TIP3   OH230994   6.084   2.358   7.010 -0.1275  0.0649  0.1850
 3120TIP3    H130995   6.057   2.398   6.927  0.9966  0.9918  0.2415
 3120TIP3    H230996   6.158   2.411   7.039  1.5357 -2.1655  0.2131
 3121TIP3   OH230997   1.665   6.686   7.711  0.4134 -0.0407 -0.1420
 3121TIP3    H130998   1.616   6.750   7.660  2.4055  0.0381 -2.0982
 3121TIP3    H230999   1.756   6.718   7.709  1.0903 -1.7941  0.6630
 3122TIP3   OH231000   1.582   6.341   0.345 -0.2451  0.0103 -0.4525
 3122TIP3    H131001   1.640   6.418   0.352  1.1727 -0.9962 -0.7340
 3122TIP3    H231002   1.526   6.360   0.271 -1.6576  1.8737  0.9911
 3123TIP3   OH231003   5.318   1.810   8.867 -0.7839 -0.2262  0.4195
 3123TIP3    H131004   5.306   1.855   8.783 -1.3501 -0.7604  0.2086
 3123TIP3    H231005   5.259   1.735   8.863 -1.3106  0.1057  1.5704
 3124TIP3   OH231006   2.151   0.034   0.535 -0.3356  0.8786 -0.4229
 3124TIP3    H131007   2.208   0.001   0.604  0.3743  0.2101 -1.3109
 3124TIP3    H231008   2.211   0.069   0.469 -1.0298  3.2927  0.1106
 3125TIP3   OH231009   5.219   0.822   0.341 -0.0727  0.0921  0.2329
 3125TIP3    H131010   5.308   0.828   0.375 -0.2878 -0.0851  0.8377
 3125TIP3    H231011   5.206   0.903   0.292  0.3964  0.1468  0.1986
 3126TIP3   OH231012   2.255   6.293   8.851  0.1936 -0.4837  0.3028
 3126TIP3    H131013   2.270   6.306   8.758  1.9873  0.6385  0.7079
 3126TIP3    H231014   2.159   6.289   8.860 -0.0653  0.8614 -1.3894
 3127TIP3   OH231015   5.568   4.916   7.594 -0.1922  0.5975  0.0858
 3127TIP3    H131016   5.531   4.993   7.549 -1.3422  0.4619  0.7524
 3127TIP3    H231017   5.492   4.873   7.634 -0.1934 -2.9254 -3.1490
 3128TIP3   OH231018   0.120   0.871   6.991  0.7138  0.2693 -0.3974
 3128TIP3    H131019   0.145   0.877   7.083  0.2107  0.1250 -0.2467
 3128TIP3    H231020   0.056   0.800   6.988 -0.3058  1.1674 -0.6311
 3129TIP3   OH231021   0.736   3.910   8.575  0.5212  0.6964 -0.4620
 3129TIP3    H131022   0.818   3.957   8.593  0.1714  1.0381  0.3057
 3129TIP3    H231023   0.681   3.930   8.651 -0.1313  0.1513 -0.7903
 3130TIP3   OH231024   5.643   3.534   0.488 -0.3420  0.1779  0.1418
 3130TIP3    H131025   5.614   3.465   0.547 -0.3772  1.3669  1.5653
 3130TIP3    H231026   5.733   3.552   0.514 -0.2166  0.4416 -0.4495
 3131TIP3   OH231027   3.508   3.729   1.789  0.1089 -0.3507 -0.7594
 3131TIP3    H131028   3.596   3.713   1.824  0.1093 -0.5300 -0.8427
 3131TIP3    H231029   3.507   3.684   1.704  0.1198  0.1211 -1.0074
 3132TIP3   OH231030   5.560   3.449   0.237 -0.3351 -0.3011 -0.1063
 3132TIP3    H131031   5.629   3.432   0.302  0.1066  1.1984 -0.1468
 3132TIP3    H231032   5.520   3.531   0.265 -0.5495  0.0521 -1.3799
 3133TIP3   OH231033   0.759   5.398   1.008  0.2955 -0.3569 -0.9407
 3133TIP3    H131034   0.851   5.376   0.993  0.9638  0.3045  1.5585
 3133TIP3    H231035   0.763   5.483   1.053 -1.4669 -0.8146  0.1416
 3134TIP3   OH231036   0.066   1.173   1.103 -0.2576  0.4843 -0.2790
 3134TIP3    H131037  -0.029   1.169   1.099 -0.2022 -1.0249 -3.2867
 3134TIP3    H231038   0.089   1.121   1.180 -1.8664 -1.0191 -0.7403
 3135TIP3   OH231039   2.264   1.426   2.391 -0.2093  0.1965  0.3749
 3135TIP3    H131040   2.231   1.484   2.459  1.0183  0.3792  0.8504
 3135TIP3    H231041   2.253   1.475   2.310 -2.3916 -0.3249  0.2980
 3136TIP3   OH231042   1.860   0.169   2.013 -0.2108 -0.2054 -0.5045
 3136TIP3    H131043   1.774   0.208   2.026  0.2823  0.2788  1.6169
 3136TIP3    H231044   1.852   0.080   2.046  0.4598  0.3122  1.1536
 3137TIP3   OH231045   6.183   6.730   0.589  0.0594 -0.3933  0.2224
 3137TIP3    H131046   6.179   6.637   0.611  0.1140 -0.5188 -0.2666
 3137TIP3    H231047   6.231   6.732   0.505 -0.9562 -0.0365 -0.3637
 3138TIP3   OH231048   4.334   3.729   0.059  0.4339  0.2737  0.1355
 3138TIP3    H131049   4.268   3.723   0.128 -0.6296  0.3463 -0.8493
 3138TIP3    H231050   4.371   3.641   0.055  0.2997  0.1905  0.6016
 3139TIP3   OH231051   5.847   4.254   7.082 -0.4293 -0.1351 -0.4264
 3139TIP3    H131052   5.829   4.221   6.994 -1.5696  0.4848 -0.4408
 3139TIP3    H231053   5.784   4.325   7.095 -0.3764 -0.3065  0.9434
 3140TIP3   OH231054   2.399   2.873   0.527  0.3794  0.1435  0.4914
 3140TIP3    H131055   2.490   2.846   0.533  1.4403  3.0276 -0.8186
 3140TIP3    H231056   2.367   2.872   0.617  1.3264 -1.9450  0.8498
 3141TIP3   OH231057   6.641   0.187   1.314  0.1891 -0.0017  0.1023
 3141TIP3    H131058   6.556   0.143   1.323  0.1191  0.5254  3.0703
 3141TIP3    H231059   6.700   0.138   1.371  1.1755  1.1640  0.1335
 3142TIP3   OH231060   5.703   1.375   8.172 -0.6206 -0.1595  0.1630
 3142TIP3    H131061   5.645   1.448   8.151 -0.8648  0.0901  1.6023
 3142TIP3    H231062   5.791   1.413   8.170 -0.6604 -0.0803 -0.1363
 3143TIP3   OH231063   6.032   1.842   1.475 -0.4266 -0.1281 -0.8641
 3143TIP3    H131064   6.085   1.763   1.470 -0.1428 -0.0738  0.7710
 3143TIP3    H231065   5.944   1.811   1.497  0.1308  0.0673  2.0067
 3144TIP3   OH231066   3.806   5.726   8.824  0.2109  0.3665 -0.3487
 3144TIP3    H131067   3.787   5.787   8.895  0.5646  1.3140 -1.0318
 3144TIP3    H231068   3.883   5.763   8.781 -0.8115  0.6201 -2.0815
 3145TIP3   OH231069   0.918   4.150   8.053  0.5837  0.6445 -0.1374
 3145TIP3    H131070   0.969   4.084   8.100  0.4217  0.1606 -0.6329
 3145TIP3    H231071   0.867   4.193   8.121  1.5369  1.0453  0.3509
 3146TIP3   OH231072   5.641   5.795   0.216 -0.1821  0.5682 -0.0430
 3146TIP3    H131073   5.687   5.726   0.265 -1.7374  0.0291  0.7051
 3146TIP3    H231074   5.691   5.874   0.234  0.4513  0.0042  0.7644
 3147TIP3   OH231075   4.634   3.005   1.050 -0.1770  0.3879 -0.1468
 3147TIP3    H131076   4.578   2.933   1.080 -1.9045  1.5139 -0.4970
 3147TIP3    H231077   4.645   2.989   0.956 -0.2279  0.3527 -0.1471
 3148TIP3   OH231078   6.670   6.169   7.091  0.3579  0.9914  0.3576
 3148TIP3    H131079   6.666   6.244   7.150 -0.0773  0.8122  0.5578
 3148TIP3    H231080   6.704   6.205   7.009 -1.4274  1.7394 -0.0889
 3149TIP3   OH231081   6.501   2.230   8.458  0.5543 -0.6265 -0.3432
 3149TIP3    H131082   6.541   2.254   8.541 -1.1497  0.3192  0.2586
 3149TIP3    H231083   6.464   2.312   8.425  1.8751 -0.8105 -2.4631
 3150TIP3   OH231084   5.191   5.973   0.317  0.1775 -0.3781  0.4344
 3150TIP3    H131085   5.132   5.900   0.337  0.0331 -0.5149 -0.4292
 3150TIP3    H231086   5.158   6.007   0.234 -0.3057  1.2450  1.2533
 3151TIP3   OH231087   6.180   2.954   7.813 -0.1873  0.4171 -0.8556
 3151TIP3    H131088   6.201   2.864   7.785  1.3889  0.8825 -1.3030
 3151TIP3    H231089   6.196   3.007   7.735 -1.7546  1.0224 -0.7787
 3152TIP3   OH231090   1.747   2.489   6.889  0.4706 -0.1137 -0.5353
 3152TIP3    H131091   1.760   2.395   6.876 -0.8595 -0.3914 -0.0705
 3152TIP3    H231092   1.673   2.510   6.832  2.5018  1.2804 -2.8307
 3153TIP3   OH231093   3.409   5.432   0.240 -0.1413  0.0929  0.6128
 3153TIP3    H131094   3.422   5.471   0.326  1.9434  1.3229 -0.1885
 3153TIP3    H231095   3.343   5.364   0.254 -0.2053  0.5772  3.0639
 3154TIP3   OH231096   2.878   5.959   0.406 -0.3415  0.3050  0.5554
 3154TIP3    H131097   2.865   5.880   0.458 -0.3530  1.4367  2.3704
 3154TIP3    H231098   2.967   5.988   0.428  0.1300  0.1681 -1.0311
 3155TIP3   OH231099   1.242   4.626   7.524 -0.8709 -0.2101  0.0485
 3155TIP3    H131100   1.321   4.674   7.549 -0.1929 -1.1383 -0.2420
 3155TIP3    H231101   1.187   4.628   7.602  0.2263 -1.1027  0.8668
 3156TIP3   OH231102   5.819   5.866   7.686  0.3056  0.1874 -0.3674
 3156TIP3    H131103   5.799   5.783   7.642  2.7190 -1.0122  0.5922
 3156TIP3    H231104   5.746   5.878   7.747 -0.3513 -0.9633 -0.8792
 3157TIP3   OH231105   1.250   5.064   1.618  0.4812  0.7691 -0.2645
 3157TIP3    H131106   1.310   5.053   1.544  1.4202  0.3660  0.5421
 3157TIP3    H231107   1.173   5.013   1.594  1.4242 -0.6984 -0.2775
 3158TIP3   OH231108   4.398   4.955   1.046  0.1293  0.4081  0.1080
 3158TIP3    H131109   4.309   4.972   1.076  0.1585 -0.7368  0.9078
 3158TIP3    H231110   4.390   4.876   0.992  0.8571 -0.5841  1.4068
 3159TIP3   OH231111   6.150   2.258   8.014  0.0221  0.0473 -0.4029
 3159TIP3    H131112   6.158   2.303   7.930 -0.8357  0.2767 -0.3745
 3159TIP3    H231113   6.056   2.246   8.026  0.1562 -0.3339  0.3412
 3160TIP3   OH231114   1.409   2.661   7.591 -0.7954  0.6688  0.0974
 3160TIP3    H131115   1.345   2.671   7.661 -0.3951 -1.9933  0.9903
 3160TIP3    H231116   1.493   2.651   7.636 -0.2522  0.7794 -0.8564
 3161TIP3   OH231117   2.785   0.530   0.503 -0.0795  0.2010  0.3671
 3161TIP3    H131118   2.869   0.542   0.547 -0.5218  0.5831  1.1346
 3161TIP3    H231119   2.739   0.466   0.557 -0.6890  0.7910  0.5563
 3162TIP3   OH231120   1.936   1.006   0.234 -0.7810 -0.4007  0.3368
 3162TIP3    H131121   1.993   1.060   0.179 -1.1391 -0.6364 -0.2859
 3162TIP3    H231122   1.987   0.990   0.313 -0.8683  1.2451  0.7513
 3163TIP3   OH231123   4.864   5.836   8.251 -0.1509  0.0789 -0.3075
 3163TIP3    H131124   4.773   5.861   8.262 -0.7405 -2.5971  2.1209
 3163TIP3    H231125   4.913   5.906   8.294 -1.2034  0.6575 -0.0115
 3164TIP3   OH231126   2.371   0.839   8.733  0.6139  0.0589 -0.1648
 3164TIP3    H131127   2.465   0.839   8.715  0.7765 -2.3258  0.3062
 3164TIP3    H231128   2.364   0.868   8.824  0.9291 -0.0213 -0.1144
 3165TIP3   OH231129   1.753   0.371   0.039  0.4370  0.1394 -0.1058
 3165TIP3    H131130   1.731   0.347  -0.051 -0.3611  0.0742  0.1025
 3165TIP3    H231131   1.816   0.442   0.030  1.0627 -0.4763 -0.7179
 3166TIP3   OH231132   4.897   3.361   0.033 -0.7261  0.2607 -0.1819
 3166TIP3    H131133   4.937   3.274   0.028 -0.6397  0.2864  0.0695
 3166TIP3    H231134   4.803   3.344   0.025 -0.7659  0.0727  0.5580
 3167TIP3   OH231135   0.327   1.039   8.261  0.2451 -0.4429  0.1571
 3167TIP3    H131136   0.366   0.975   8.202  1.6934  0.4715  0.0873
 3167TIP3    H231137   0.302   0.988   8.338  3.3001 -0.8312  1.0129
 3168TIP3   OH231138   0.658   0.528   8.324  0.2574  0.2604 -0.2167
 3168TIP3    H131139   0.709   0.497   8.398 -2.2719  0.2079  1.6625
 3168TIP3    H231140   0.579   0.566   8.364 -0.8468  0.9819 -2.8623
 3169TIP3   OH231141   6.640   1.126   7.576  0.5942  0.8225 -0.1662
 3169TIP3    H131142   6.714   1.149   7.519 -0.0181  1.2568 -0.8019
 3169TIP3    H231143   6.563   1.131   7.518 -0.3675  3.5542  1.1905
 3170TIP3   OH231144   0.470   1.426   0.937 -0.2503  0.1820 -0.3102
 3170TIP3    H131145   0.394   1.480   0.959 -0.9465 -0.5650 -0.8689
 3170TIP3    H231146   0.496   1.387   1.021  0.3185  1.4321  0.1198
 3171TIP3   OH231147   4.589   5.109   0.635 -0.0524 -0.4915 -0.3985
 3171TIP3    H131148   4.501   5.139   0.615 -0.3494 -1.7064 -1.0263
 3171TIP3    H231149   4.581   5.066   0.720  0.3103  0.8981  0.3599
 3172TIP3   OH231150   6.514   2.074   2.362  0.2569  1.0404  0.3790
 3172TIP3    H131151   6.568   2.079   2.441 -1.7496  2.3229  1.7760
 3172TIP3    H231152   6.528   2.157   2.317 -0.0879  1.1415  0.4503
 3173TIP3   OH231153   3.534   3.987   0.364  0.7286 -0.4470 -0.1919
 3173TIP3    H131154   3.442   3.997   0.390  0.8051 -0.6190  0.1557
 3173TIP3    H231155   3.546   4.051   0.294  0.4036 -0.2622 -0.0843
 3174TIP3   OH231156   0.504   3.079   8.457  0.1914  0.1989  0.1411
 3174TIP3    H131157   0.453   3.067   8.538 -0.8312  0.1127 -0.4951
 3174TIP3    H231158   0.541   3.167   8.465 -2.5730  1.5510 -0.6863
 3175TIP3   OH231159   2.693   0.269   0.683 -0.6272 -0.3324 -0.3479
 3175TIP3    H131160   2.777   0.249   0.725 -0.7494  0.1509  0.1363
 3175TIP3    H231161   2.670   0.187   0.639  0.0042 -0.5328 -0.3297
 3176TIP3   OH231162   1.451   6.227   2.374 -0.5786  0.7613  0.6630
 3176TIP3    H131163   1.473   6.271   2.456  1.4523 -0.2742  0.7257
 3176TIP3    H231164   1.451   6.133   2.396 -2.8109  0.5696  0.0797
 3177TIP3   OH231165   4.672   1.779   1.633 -0.1376 -0.1718  0.3724
 3177TIP3    H131166   4.663   1.861   1.681  0.8713  0.3506 -0.2902
 3177TIP3    H231167   4.646   1.712   1.695 -1.5420  0.6771  0.7537
 3178TIP3   OH231168   3.129   0.906   7.302  0.3065 -0.2407  0.2330
 3178TIP3    H131169   3.177   0.960   7.364  1.7142 -0.1313 -0.8805
 3178TIP3    H231170   3.134   0.818   7.338  0.7707 -0.1188  0.4780
 3179TIP3   OH231171   4.784   2.674   6.918 -0.4095  0.1897 -1.2076
 3179TIP3    H131172   4.797   2.642   6.829  0.2987  0.7663 -1.3128
 3179TIP3    H231173   4.818   2.604   6.974 -3.3782 -1.4585 -1.2578
 3180TIP3   OH231174   5.890   5.726   8.697  0.0809  0.4784 -0.1773
 3180TIP3    H131175   5.886   5.751   8.789  0.3303 -1.9511  0.5548
 3180TIP3    H231176   5.939   5.797   8.655  0.8943  1.1269  1.7667
 3181TIP3   OH231177   0.682   4.202   1.351  0.3452  0.6759  0.0160
 3181TIP3    H131178   0.663   4.108   1.352 -1.9745  1.0511 -0.9314
 3181TIP3    H231179   0.680   4.228   1.443 -1.0867  0.1240  0.1641
 3182TIP3   OH231180   5.520   6.119   1.604  0.5359 -0.4450  0.0201
 3182TIP3    H131181   5.427   6.131   1.586 -0.2885 -4.3941  0.5734
 3182TIP3    H231182   5.528   6.134   1.698  0.1239 -1.3680  0.2170
 3183TIP3   OH231183   5.276   3.656   7.194 -0.2152 -0.3189 -0.0194
 3183TIP3    H131184   5.181   3.661   7.191 -0.1663  0.9992 -2.3559
 3183TIP3    H231185   5.299   3.692   7.280 -1.7822  1.5129 -0.2932
 3184TIP3   OH231186   2.964   1.480   7.953  0.3533 -0.7417  0.2940
 3184TIP3    H131187   2.874   1.457   7.974 -0.1638  1.0063  0.2120
 3184TIP3    H231188   2.957   1.536   7.876  1.6971 -2.1041 -0.8637
 3185TIP3   OH231189   6.318   3.453   8.055  0.7680 -0.3646  0.0187
 3185TIP3    H131190   6.316   3.409   7.970 -2.3485 -0.7982  0.1945
 3185TIP3    H231191   6.249   3.519   8.049  0.9703  0.0669  1.9660
 3186TIP3   OH231192   6.720   5.767   2.482 -0.3838  0.1104  0.2137
 3186TIP3    H131193   6.738   5.674   2.492 -0.8709  0.1391  1.5467
 3186TIP3    H231194   6.805   5.806   2.464 -0.2130 -0.6114 -0.6032
 3187TIP3   OH231195   6.483   4.422   7.228  0.3818  0.2499  0.1806
 3187TIP3    H131196   6.462   4.455   7.316  0.0775 -1.3097  0.7257
 3187TIP3    H231197   6.400   4.421   7.182  0.7221  2.2046 -0.5747
 3188TIP3   OH231198   2.653   6.406   6.712  0.0082  0.1717 -0.1769
 3188TIP3    H131199   2.723   6.365   6.662 -0.3008 -1.9049  0.9738
 3188TIP3    H231200   2.680   6.497   6.722  0.6546  0.3809 -3.0167
 3189TIP3   OH231201   3.217   4.699   2.441  0.0412  0.0413 -0.2693
 3189TIP3    H131202   3.286   4.680   2.377 -0.5431  0.2631 -0.9863
 3189TIP3    H231203   3.185   4.614   2.469  2.7451 -0.2278  2.5409
 3190TIP3   OH231204   0.797   1.679   1.522  0.4488  0.5425  0.3771
 3190TIP3    H131205   0.873   1.723   1.484  1.0837  1.4455  2.5764
 3190TIP3    H231206   0.723   1.734   1.498  0.8274  1.0640  0.3987
 3191TIP3   OH231207   0.373   1.717   8.011  0.1466  0.1528  0.2774
 3191TIP3    H131208   0.373   1.666   8.092  2.9139 -2.7079 -1.3232
 3191TIP3    H231209   0.460   1.758   8.008 -0.2402  0.9590 -0.8401
 3192TIP3   OH231210   1.002   1.090   1.421  0.7008 -0.6887  0.4300
 3192TIP3    H131211   0.952   1.047   1.490 -1.5120 -2.3862 -2.0108
 3192TIP3    H231212   0.944   1.088   1.345  3.3876  0.0745 -1.8180
 3193TIP3   OH231213   6.434   4.512   7.546 -0.7047 -0.1427  0.7548
 3193TIP3    H131214   6.340   4.510   7.529 -0.5981  1.8149 -0.2615
 3193TIP3    H231215   6.456   4.605   7.553  1.2224 -0.5486  0.6537
 3194TIP3   OH231216   5.065   2.753   7.331  0.2732  0.2349  0.2592
 3194TIP3    H131217   4.983   2.703   7.328 -0.3524  1.1804  1.0508
 3194TIP3    H231218   5.134   2.687   7.320 -0.5657 -0.6629  0.2787
 3195TIP3   OH231219   5.359   0.653   7.767  0.6382 -0.9908  0.4260
 3195TIP3    H131220   5.353   0.571   7.717 -0.9968  0.5045 -2.1046
 3195TIP3    H231221   5.269   0.669   7.797  1.1138 -0.5308  1.6533
 3196TIP3   OH231222   6.669   1.152   0.773 -0.1165  0.2270 -0.2754
 3196TIP3    H131223   6.737   1.093   0.741  1.2290  0.4243  1.9718
 3196TIP3    H231224   6.591   1.096   0.782  0.4596 -0.6270 -0.4319
 3197TIP3   OH231225   6.159   1.600   1.446  0.2443 -0.2854 -0.2339
 3197TIP3    H131226   6.219   1.671   1.421  0.3621  0.0428  0.9303
 3197TIP3    H231227   6.199   1.561   1.524 -0.7439 -0.4485  0.2027
 3198TIP3   OH231228   3.217   0.275   1.835  0.2469  0.3099  0.0013
 3198TIP3    H131229   3.201   0.188   1.798  2.9346  0.1058 -0.9466
 3198TIP3    H231230   3.289   0.310   1.782  0.5421  2.3144  1.6185
 3199TIP3   OH231231   1.538   3.836   0.151 -0.1586  0.7976 -0.4426
 3199TIP3    H131232   1.543   3.744   0.177  2.1314  1.3312  1.3673
 3199TIP3    H231233   1.592   3.842   0.072  1.6299  0.8903  0.7159
 3200TIP3   OH231234   2.681   0.563   7.916 -0.5944  0.0717  0.0915
 3200TIP3    H131235   2.728   0.588   7.996 -0.3836  1.7768 -0.5220
 3200TIP3    H231236   2.730   0.606   7.845 -2.1431  0.5862 -0.7133
 3201TIP3   OH231237   6.501   0.630   0.721 -0.0732  0.4645 -0.2164
 3201TIP3    H131238   6.513   0.721   0.694  3.0075  0.2443  0.0666
 3201TIP3    H231239   6.501   0.581   0.639  0.3589  0.5541 -0.2724
 3202TIP3   OH231240   5.561   0.010   7.592  0.3686  0.4414  0.1470
 3202TIP3    H131241   5.483  -0.027   7.549 -0.4033  2.9545 -0.8116
 3202TIP3    H231242   5.634  -0.025   7.542 -0.3717  0.8522 -1.2781
 3203TIP3   OH231243   0.314   3.172   7.034 -0.1506 -0.5268  0.4587
 3203TIP3    H131244   0.329   3.208   6.947 -1.0659 -2.3299 -0.5017
 3203TIP3    H231245   0.400   3.145   7.064  0.6751  2.7946  1.4643
 3204TIP3   OH231246   5.623   3.613   8.845  0.6251 -0.2872 -0.6100
 3204TIP3    H131247   5.640   3.659   8.927  1.5160 -0.5104 -0.6562
 3204TIP3    H231248   5.560   3.669   8.799  3.4362  2.2584 -1.7481
 3205TIP3   OH231249   6.128   1.803   8.299  0.0697  0.1085  0.3620
 3205TIP3    H131250   6.168   1.883   8.332  0.7476 -0.2199  0.3450
 3205TIP3    H231251   6.034   1.821   8.300  0.1258  0.4419  1.5927
 3206TIP3   OH231252   0.345   2.943   0.016  0.1709 -0.2234 -0.6885
 3206TIP3    H131253   0.395   2.887  -0.043  0.7582 -0.1712 -0.2542
 3206TIP3    H231254   0.269   2.890   0.041  0.7466 -0.8672 -0.2342
 3207TIP3   OH231255   3.268   3.977   2.188  0.2910  0.1824 -0.3161
 3207TIP3    H131256   3.302   3.935   2.109 -0.8096 -3.3713  0.9272
 3207TIP3    H231257   3.181   3.939   2.201  0.6219  0.2156  2.8429
 3208TIP3   OH231258   0.401   5.921   8.474  0.3223  0.2101 -0.0372
 3208TIP3    H131259   0.476   5.880   8.431  0.5461 -1.1271  1.5220
 3208TIP3    H231260   0.349   5.847   8.507 -0.9835  1.1404  0.0584
 3209TIP3   OH231261   6.028   5.773   7.992 -0.0045 -0.2259 -0.2842
 3209TIP3    H131262   5.963   5.720   7.947  0.4283  0.3729 -1.6983
 3209TIP3    H231263   5.979   5.848   8.026 -0.4085 -0.8972  0.6436
 3210TIP3   OH231264   1.040   0.242   1.645 -0.2340  0.9163 -0.2516
 3210TIP3    H131265   0.976   0.178   1.676  0.9458  0.8381  2.2734
 3210TIP3    H231266   1.123   0.193   1.640  0.1271  1.5834 -1.1302
 3211TIP3   OH231267   2.217   4.030   0.479  0.4599 -0.0766  0.8032
 3211TIP3    H131268   2.298   3.980   0.486  0.2239 -0.5510  0.1820
 3211TIP3    H231269   2.152   3.976   0.524  0.8557  1.1867  3.0318
 3212TIP3   OH231270   6.310   1.323   7.621 -0.2225  0.2535  0.0913
 3212TIP3    H131271   6.283   1.233   7.637  1.4218 -0.5960 -1.5117
 3212TIP3    H231272   6.283   1.371   7.699 -1.5427 -1.5232  0.7865
 3213TIP3   OH231273   2.424   2.853   1.706  0.4531 -0.3825  0.5055
 3213TIP3    H131274   2.484   2.780   1.719  0.3198 -0.7440 -0.8021
 3213TIP3    H231275   2.337   2.813   1.702  0.4646 -0.3021 -1.2016
 3214TIP3   OH231276   5.602   5.672   0.674 -0.0550 -0.5985  0.3206
 3214TIP3    H131277   5.595   5.767   0.672 -1.8340 -0.6925 -0.2956
 3214TIP3    H231278   5.694   5.653   0.657  0.4407  1.0078  1.0623
 3215TIP3   OH231279   0.273   5.509   0.757  0.5508  0.1131  0.1549
 3215TIP3    H131280   0.254   5.602   0.739 -1.2523 -0.1786  0.3288
 3215TIP3    H231281   0.368   5.505   0.764  0.6326  2.1168  0.9803
 3216TIP3   OH231282   6.007   3.387   2.233 -0.4733 -0.5917  1.0421
 3216TIP3    H131283   6.045   3.299   2.242 -0.0777 -0.6570 -0.8809
 3216TIP3    H231284   6.079   3.446   2.256  0.7705 -0.7311 -1.9770
 3217TIP3   OH231285   3.280   1.625   0.107  0.1147  0.0154 -1.2406
 3217TIP3    H131286   3.330   1.556   0.065 -2.3807 -2.5102 -0.3540
 3217TIP3    H231287   3.286   1.607   0.201 -1.3118  0.3870 -1.0401
 3218TIP3   OH231288   6.109   3.919   8.942  0.5022  0.0932 -0.5077
 3218TIP3    H131289   6.075   3.919   8.852 -1.3825  2.1407  0.1135
 3218TIP3    H231290   6.112   3.826   8.966 -0.7216 -0.3976 -2.0472
 3219TIP3   OH231291   3.156   3.058   7.280  0.5159  0.4936  0.2017
 3219TIP3    H131292   3.197   2.987   7.231 -2.5163  0.9592 -3.4366
 3219TIP3    H231293   3.198   3.137   7.247  0.7699  0.6610  0.9081
 3220TIP3   OH231294   6.164   4.369   8.180 -0.1702  0.6869 -0.1190
 3220TIP3    H131295   6.101   4.416   8.125 -0.9316 -0.9034 -0.6675
 3220TIP3    H231296   6.192   4.294   8.126  1.1320  0.5821  0.6540
 3221TIP3   OH231297   4.431   1.900   1.789  0.3721  0.2192  0.4272
 3221TIP3    H131298   4.420   1.816   1.833  0.6510 -0.0030  0.0810
 3221TIP3    H231299   4.461   1.960   1.858  1.1435 -0.2107  0.4782
 3222TIP3   OH231300   6.244   2.538   0.509  0.6907  0.0522  0.2093
 3222TIP3    H131301   6.241   2.481   0.586  0.3533 -2.2364 -1.4015
 3222TIP3    H231302   6.164   2.591   0.516 -0.5579 -1.7226  0.3483
 3223TIP3   OH231303   0.664   0.190   7.040  0.4937 -0.0855  0.7974
 3223TIP3    H131304   0.578   0.189   7.082  1.0549  0.2444  2.0057
 3223TIP3    H231305   0.719   0.137   7.098  1.2545  0.2555  0.3961
 3224TIP3   OH231306   3.046   3.458   1.181  0.3547 -0.5900  0.2578
 3224TIP3    H131307   2.953   3.479   1.166  0.3276 -0.6013  0.4161
 3224TIP3    H231308   3.084   3.539   1.214  0.4024 -0.5855  0.1927
 3225TIP3   OH231309   2.016   5.444   0.134  0.1475 -0.0823  0.2517
 3225TIP3    H131310   2.090   5.434   0.074 -0.3419  0.7251 -0.5103
 3225TIP3    H231311   2.057   5.467   0.218  0.7661  0.1231 -0.0969
 3226TIP3   OH231312   1.079   5.940   8.987  0.1544  0.4946  0.0404
 3226TIP3    H131313   0.998   5.890   8.977 -0.0083  0.7744 -0.0505
 3226TIP3    H231314   1.058   6.027   8.953  0.3355  0.7284  0.5257
 3227TIP3   OH231315   2.488   2.214   1.094  0.1375 -0.3958  0.1784
 3227TIP3    H131316   2.554   2.280   1.071 -1.6398  1.3024 -0.4101
 3227TIP3    H231317   2.498   2.201   1.188  2.4359 -1.5596 -0.1533
 3228TIP3   OH231318   0.397   2.025   6.491 -0.0671  1.1218 -0.1870
 3228TIP3    H131319   0.387   2.098   6.552 -1.6891  0.7245  0.0802
 3228TIP3    H231320   0.487   1.996   6.503  0.3741  2.5783  0.2571
 3229TIP3   OH231321   2.228   1.987   8.922  0.0443  0.2359  0.0883
 3229TIP3    H131322   2.213   2.081   8.908  3.0351  0.9448  0.9711
 3229TIP3    H231323   2.250   1.954   8.835  0.4288  0.6793  0.0124
 3230TIP3   OH231324   0.035   2.556   2.267 -0.3152  0.6476 -0.9352
 3230TIP3    H131325   0.121   2.595   2.281  0.4006  0.1031 -3.2967
 3230TIP3    H231326  -0.021   2.629   2.239 -0.9244  1.1643  1.4361
 3231TIP3   OH231327   2.966   1.603   0.710 -0.2677 -0.1924  0.2062
 3231TIP3    H131328   2.963   1.690   0.750  0.9487 -0.6360  1.3421
 3231TIP3    H231329   2.877   1.588   0.678 -0.2263  1.9557 -1.1400
 3232TIP3   OH231330   4.705   6.242   6.944  0.0469 -0.0767  0.3838
 3232TIP3    H131331   4.777   6.183   6.963 -0.4220 -0.4821  0.9470
 3232TIP3    H231332   4.745   6.314   6.896  0.9653  0.0871  1.3609
 3233TIP3   OH231333   3.244   4.123   2.412 -0.0481 -0.2165 -0.1003
 3233TIP3    H131334   3.153   4.099   2.431 -0.6023  1.4303 -0.4644
 3233TIP3    H231335   3.265   4.078   2.331  0.1690 -2.2030  1.0004
 3234TIP3   OH231336   4.398   1.703   1.553  0.0506  0.0210 -1.0081
 3234TIP3    H131337   4.314   1.747   1.570  0.3758 -0.5598  2.7851
 3234TIP3    H231338   4.462   1.752   1.603  1.5246 -1.1508 -1.6690
 3235TIP3   OH231339   0.628   3.579   2.184 -0.0832  0.2443  0.6237
 3235TIP3    H131340   0.649   3.579   2.278 -1.5451  0.0077  0.9827
 3235TIP3    H231341   0.589   3.493   2.168  2.0720 -0.5503 -0.7032
 3236TIP3   OH231342   5.642   2.026   1.573 -0.1652 -0.8119  0.0770
 3236TIP3    H131343   5.636   2.039   1.478 -0.3198 -1.0157  0.0581
 3236TIP3    H231344   5.682   1.939   1.583 -1.8614 -1.6205  0.1828
 3237TIP3   OH231345   5.211   0.263   1.244 -0.1441  0.1464  0.5614
 3237TIP3    H131346   5.297   0.222   1.231  0.4652  1.0383  1.6122
 3237TIP3    H231347   5.165   0.249   1.161  1.5798  0.9595 -0.5823
 3238TIP3   OH231348   4.845   4.588   0.395  0.0727  0.1337 -0.8439
 3238TIP3    H131349   4.857   4.523   0.326  0.1999 -0.0070 -0.6893
 3238TIP3    H231350   4.916   4.651   0.382 -1.1907  1.3641 -2.2400
 3239TIP3   OH231351   2.313   4.529   2.315 -0.7082  0.4151 -0.5759
 3239TIP3    H131352   2.402   4.526   2.279 -0.1225  0.6162  0.7814
 3239TIP3    H231353   2.280   4.615   2.288 -0.6896  0.1345 -1.5149
 3240TIP3   OH231354   1.431   3.914   0.484  0.0525  0.8108 -0.8252
 3240TIP3    H131355   1.413   3.820   0.480  0.5746  0.7261 -1.2924
 3240TIP3    H231356   1.402   3.948   0.399 -0.4116  1.1309 -0.5488
 3241TIP3   OH231357   1.171   1.201   8.146 -0.0905  0.4750 -0.6284
 3241TIP3    H131358   1.174   1.134   8.214 -0.1805  2.0393  0.9878
 3241TIP3    H231359   1.089   1.248   8.162 -0.0590  0.9447 -1.7566
 3242TIP3   OH231360   1.128   1.514   6.983  0.0311 -0.2223  0.1720
 3242TIP3    H131361   1.173   1.433   7.005  1.5824 -0.2607 -2.6973
 3242TIP3    H231362   1.069   1.490   6.911 -0.5319  0.9333  0.2226
 3243TIP3   OH231363   6.309   1.630   7.448 -0.4238  0.5741  0.0350
 3243TIP3    H131364   6.340   1.718   7.469  0.2095  0.7560 -1.5078
 3243TIP3    H231365   6.222   1.625   7.488 -0.4498  1.8894  0.1838
 3244TIP3   OH231366   5.663   5.475   8.539  0.2189 -0.5242  0.2163
 3244TIP3    H131367   5.611   5.402   8.571 -0.4361 -0.1653 -0.0171
 3244TIP3    H231368   5.726   5.492   8.610  0.0891 -1.0246  0.4549
 3245TIP3   OH231369   0.298   2.905   1.198 -0.5451 -0.0696  0.1146
 3245TIP3    H131370   0.359   2.889   1.271 -2.7786 -0.0262  2.0914
 3245TIP3    H231371   0.316   2.996   1.172  0.0105  0.0607  0.8990
 3246TIP3   OH231372   0.829   2.305   1.101 -0.9659 -0.2328  0.2486
 3246TIP3    H131373   0.750   2.278   1.054 -0.3063 -1.2466 -0.3197
 3246TIP3    H231374   0.821   2.264   1.187 -1.1153 -0.2449  0.2286
 3247TIP3   OH231375   2.894   4.608   0.910  0.4430  0.4951 -0.0836
 3247TIP3    H131376   2.888   4.617   1.005  1.0287 -0.0799  0.0165
 3247TIP3    H231377   2.959   4.539   0.896  1.1462  1.2991 -0.9289
 3248TIP3   OH231378   2.138   3.435   7.396 -0.1913 -0.1655 -0.2738
 3248TIP3    H131379   2.103   3.510   7.348 -0.3357  1.2071  1.8234
 3248TIP3    H231380   2.230   3.457   7.411 -0.2239 -0.3994  0.3156
 3249TIP3   OH231381   3.902   5.083   7.400 -0.5151  0.8314 -0.0339
 3249TIP3    H131382   3.886   5.021   7.329  0.4187 -0.4130  0.7800
 3249TIP3    H231383   3.982   5.129   7.375  0.2304 -0.1255  0.5086
 3250TIP3   OH231384   0.915   0.811   1.057 -0.9884  0.3270  0.5342
 3250TIP3    H131385   0.946   0.901   1.054 -0.6591  0.2383  1.1377
 3250TIP3    H231386   0.900   0.787   0.965  1.7608  0.0023  0.0911
 3251TIP3   OH231387   0.572   3.677   1.933 -0.0620  0.0061 -0.5844
 3251TIP3    H131388   0.622   3.753   1.901  0.3114  0.0294  0.0362
 3251TIP3    H231389   0.582   3.680   2.028  2.2224 -2.3115 -0.6250
 3252TIP3   OH231390   0.716   4.297   1.000 -0.1688 -0.8840  0.7018
 3252TIP3    H131391   0.634   4.255   1.026 -0.2588 -0.2268  1.5223
 3252TIP3    H231392   0.743   4.346   1.077  0.3815 -0.1324  0.0482
 3253TIP3   OH231393   3.059   1.092   8.186  0.1474  0.1957  0.1871
 3253TIP3    H131394   3.075   1.094   8.280  0.5162  1.1093  0.1163
 3253TIP3    H231395   3.111   1.165   8.151  0.4712 -0.4735 -0.7949
 3254TIP3   OH231396   0.855   1.089   2.466 -0.0880 -0.5657  0.1947
 3254TIP3    H131397   0.930   1.038   2.435  1.6711  2.1268 -0.3198
 3254TIP3    H231398   0.887   1.136   2.543 -1.5023  0.0306  0.4580
 3255TIP3   OH231399   2.906   3.832   6.327 -0.5753 -0.1915  0.2977
 3255TIP3    H131400   2.866   3.745   6.334  1.9361 -1.6110 -1.4971
 3255TIP3    H231401   2.848   3.889   6.377 -2.5561 -2.8066  1.1961
 3256TIP3   OH231402   2.162   6.135   2.216 -0.3610 -0.5082  0.4553
 3256TIP3    H131403   2.211   6.104   2.140  1.2217 -1.5955  1.8175
 3256TIP3    H231404   2.084   6.080   2.218 -0.6040 -0.2147 -0.5842
 3257TIP3   OH231405   1.213   5.027   7.511  0.1931  0.0810 -0.3894
 3257TIP3    H131406   1.287   4.983   7.468 -0.3230 -1.5546  0.3097
 3257TIP3    H231407   1.248   5.111   7.539  1.8415 -0.7026  0.0376
 3258TIP3   OH231408   4.577   1.175   0.792  0.2873 -0.0108  0.0741
 3258TIP3    H131409   4.535   1.261   0.779 -0.9652  0.1926  4.1729
 3258TIP3    H231410   4.669   1.190   0.771  0.0124  2.2142  0.2117
 3259TIP3   OH231411   1.067   0.750   6.256 -0.1427  0.1046  0.3906
 3259TIP3    H131412   1.076   0.826   6.199  0.3166  0.0325  0.3695
 3259TIP3    H231413   1.156   0.730   6.286 -0.3985  0.3041  1.3382
 3260TIP3   OH231414   4.047   6.010   7.204  0.0387  0.5019 -0.0144
 3260TIP3    H131415   4.046   6.064   7.283 -1.5124  1.0752 -0.3855
 3260TIP3    H231416   4.130   6.030   7.162 -0.1196  1.9414  0.3152
 3261TIP3   OH231417   1.940   2.714   8.720 -0.0172 -0.5644 -0.0978
 3261TIP3    H131418   1.930   2.625   8.754  1.9458 -0.7514  0.0981
 3261TIP3    H231419   2.024   2.743   8.755 -0.1297  0.9718 -1.0508
 3262TIP3   OH231420   1.027   5.136   8.237 -0.3234  0.5186 -1.1268
 3262TIP3    H131421   1.066   5.056   8.273 -1.8267  0.1638 -0.2231
 3262TIP3    H231422   1.080   5.155   8.159  0.6050 -0.8594 -0.8669
 3263TIP3   OH231423   3.502   2.573   6.762 -0.6700  0.1504 -0.0793
 3263TIP3    H131424   3.460   2.561   6.676 -0.6555  0.6377 -0.1533
 3263TIP3    H231425   3.538   2.486   6.783 -0.9076 -0.0369 -0.4422
 3264TIP3   OH231426   5.669   4.267   0.627 -0.0481 -0.1478  0.5887
 3264TIP3    H131427   5.645   4.231   0.713 -0.1679 -0.7458  0.3068
 3264TIP3    H231428   5.722   4.344   0.648  1.0042 -1.0102  1.2153
 3265TIP3   OH231429   6.188   3.440   1.213 -0.3623 -0.1199  0.1159
 3265TIP3    H131430   6.118   3.421   1.150 -0.4641 -0.6201  0.3780
 3265TIP3    H231431   6.211   3.532   1.196  0.2382 -0.5021 -1.2694
 3266TIP3   OH231432   3.508   0.168   0.565  0.6760 -0.1638 -0.2927
 3266TIP3    H131433   3.522   0.257   0.597  0.5633 -0.1303 -0.3330
 3266TIP3    H231434   3.444   0.131   0.626  0.6997 -0.2062 -0.2938
 3267TIP3   OH231435   5.162   4.138   1.390  0.2513 -0.2683  0.1599
 3267TIP3    H131436   5.080   4.165   1.348  1.8464  0.9325 -2.4186
 3267TIP3    H231437   5.143   4.139   1.484 -2.7920 -0.5060 -0.3706
 3268TIP3   OH231438   1.225   0.538   8.479  0.1266  0.4126  0.0188
 3268TIP3    H131439   1.277   0.617   8.496 -1.0372  1.2430 -0.1783
 3268TIP3    H231440   1.136   0.561   8.507 -0.3157 -0.6939 -0.4234
 3269TIP3   OH231441   1.012   5.784   1.985  0.0449 -0.2826 -0.1089
 3269TIP3    H131442   1.027   5.692   1.962  1.5733  0.0071 -0.4092
 3269TIP3    H231443   0.965   5.820   1.911  0.2165 -0.6169 -0.3847
 3270TIP3   OH231444   2.493   0.241   0.959 -0.3839 -0.2640  0.2215
 3270TIP3    H131445   2.495   0.336   0.966 -1.2359 -0.2231 -0.0513
 3270TIP3    H231446   2.584   0.217   0.942 -0.0109  0.4205  1.1498
 3271TIP3   OH231447   3.210   5.926   7.368  1.0161 -0.1850 -0.0063
 3271TIP3    H131448   3.266   5.906   7.294 -0.1320  3.3750 -2.1031
 3271TIP3    H231449   3.257   5.993   7.417  0.6120 -0.6260  1.0336
 3272TIP3   OH231450   5.740   0.220   8.686  0.1203  0.1567 -0.0498
 3272TIP3    H131451   5.807   0.218   8.754  0.9006  0.8946 -0.7804
 3272TIP3    H231452   5.735   0.312   8.659 -1.4569  0.1879  0.2402
 3273TIP3   OH231453   5.493   0.394   7.024  0.7001 -0.8163  0.0448
 3273TIP3    H131454   5.465   0.438   6.944  1.4603 -2.6287 -1.2798
 3273TIP3    H231455   5.568   0.445   7.055  0.3569 -0.0621 -0.3522
 3274TIP3   OH231456   5.552   3.541   7.313 -0.1043 -0.0419  0.7108
 3274TIP3    H131457   5.520   3.474   7.253  0.4391 -1.3809  1.8506
 3274TIP3    H231458   5.493   3.616   7.300 -2.4309 -1.6703  1.2629
 3275TIP3   OH231459   0.447   5.108   0.974 -0.3469 -0.2823 -0.2074
 3275TIP3    H131460   0.394   5.150   0.906 -0.4199  2.9223  1.6093
 3275TIP3    H231461   0.526   5.079   0.929 -0.2172  2.0749 -1.6621
 3276TIP3   OH231462   0.681   6.746   8.599  0.0083  0.3683  0.0906
 3276TIP3    H131463   0.616   6.683   8.568 -0.3678  0.1341  1.2681
 3276TIP3    H231464   0.672   6.822   8.542 -0.2700 -0.2361 -0.6838
 3277TIP3   OH231465   6.435   1.007   7.743 -0.7347  0.2562  0.3172
 3277TIP3    H131466   6.354   1.031   7.698  0.0410  0.5460 -0.9606
 3277TIP3    H231467   6.505   1.026   7.681  0.3735  0.4741  1.5694
 3278TIP3   OH231468   2.816   2.142   1.578 -0.0705 -0.1501  0.0458
 3278TIP3    H131469   2.755   2.112   1.646  0.3585 -1.1846 -0.0161
 3278TIP3    H231470   2.898   2.159   1.625  0.1712 -0.6834 -0.1789
 3279TIP3   OH231471   3.896   3.206   7.857 -0.1433  0.7611 -0.2215
 3279TIP3    H131472   3.969   3.224   7.916 -1.0082 -1.3457  1.6685
 3279TIP3    H231473   3.821   3.248   7.899 -0.2932  1.8257 -1.4848
 3280TIP3   OH231474   1.337   0.732   8.088  0.1590 -0.2151  0.0420
 3280TIP3    H131475   1.387   0.812   8.071  0.9900 -0.4932  1.0714
 3280TIP3    H231476   1.313   0.699   8.002  0.7768  0.5353 -0.4235
 3281TIP3   OH231477   2.264   6.278   0.129  0.1374  0.7153  0.2306
 3281TIP3    H131478   2.204   6.350   0.147 -1.3139 -0.3456 -0.1470
 3281TIP3    H231479   2.272   6.276   0.034 -1.0249 -0.5097  0.1324
 3282TIP3   OH231480   5.788   1.131   8.230 -0.2847 -0.6187  0.4370
 3282TIP3    H131481   5.719   1.194   8.214 -0.5577 -0.7360  1.1408
 3282TIP3    H231482   5.814   1.145   8.321  0.6458 -0.5499  0.1707
 3283TIP3   OH231483   3.593   3.924   1.288 -0.2073  0.5794  0.0239
 3283TIP3    H131484   3.573   3.969   1.206 -0.3296 -1.5154 -1.1847
 3283TIP3    H231485   3.674   3.877   1.269 -2.2300 -3.1254 -0.3759
 3284TIP3   OH231486   3.026   0.999   0.329 -0.1769 -0.3925 -0.1099
 3284TIP3    H131487   3.069   0.991   0.244 -1.2179 -0.9987 -0.5937
 3284TIP3    H231488   3.092   0.969   0.392  1.2263  1.6846 -0.4888
 3285TIP3   OH231489   2.747   0.136   8.470 -0.1009 -0.2558  0.5904
 3285TIP3    H131490   2.826   0.169   8.513  0.1347 -1.4665  1.1193
 3285TIP3    H231491   2.754   0.167   8.380  1.2555 -0.8056  0.4828
 3286TIP3   OH231492   2.583   4.557   8.592 -0.5065 -0.0057  0.5644
 3286TIP3    H131493   2.557   4.465   8.592  0.8180 -0.3943  0.8468
 3286TIP3    H231494   2.500   4.605   8.598 -1.3589 -1.1170 -1.3414
 3287TIP3   OH231495   6.215   3.477   6.364  1.3394  0.4533  0.2113
 3287TIP3    H131496   6.188   3.530   6.289 -0.0695 -3.1331 -2.0868
 3287TIP3    H231497   6.310   3.481   6.362  1.3338  0.7809 -1.5825
 3288TIP3   OH231498   1.119   3.236   0.069 -0.6117 -0.1262  0.0439
 3288TIP3    H131499   1.076   3.320   0.053 -0.9770 -0.6688 -2.2404
 3288TIP3    H231500   1.211   3.252   0.047 -0.4936 -0.1014  0.5398
 3289TIP3   OH231501   2.223   4.447   1.210  0.2316  0.5287  0.1781
 3289TIP3    H131502   2.227   4.359   1.171  0.2586  0.2126  0.8782
 3289TIP3    H231503   2.275   4.440   1.290 -0.8241  0.8364  0.9062
 3290TIP3   OH231504   2.746   2.008   7.807 -0.2444 -0.1347  0.0476
 3290TIP3    H131505   2.825   2.037   7.761  0.2230  2.2552  2.1112
 3290TIP3    H231506   2.778   1.972   7.890 -1.2522 -0.2731  0.3913
 3291TIP3   OH231507   6.238   0.893   7.101  0.1269 -0.2774  0.0264
 3291TIP3    H131508   6.245   0.823   7.166 -0.4325 -0.0140  0.3801
 3291TIP3    H231509   6.148   0.885   7.067  0.2558 -0.1067 -0.3667
 3292TIP3   OH231510   5.915   6.610   1.391 -0.1002 -0.6055 -0.4539
 3292TIP3    H131511   5.912   6.549   1.465 -0.4532 -0.6241 -0.4814
 3292TIP3    H231512   5.853   6.574   1.327 -0.6463  0.0097 -0.2893
 3293TIP3   OH231513   2.524   6.504   0.753 -0.0332 -0.1320 -0.2692
 3293TIP3    H131514   2.483   6.564   0.816  0.1549  0.1414 -0.4017
 3293TIP3    H231515   2.453   6.475   0.697 -0.0989  0.1091 -0.3146
 3294TIP3   OH231516   2.164   2.762   1.033  0.4409  0.6262 -0.3350
 3294TIP3    H131517   2.221   2.821   0.984  0.4927  1.4342  0.6807
 3294TIP3    H231518   2.222   2.696   1.070  0.3309 -0.3716 -1.8540
 3295TIP3   OH231519   0.630   3.315   1.265  1.0552  0.0110 -0.0110
 3295TIP3    H131520   0.684   3.300   1.342  2.7137 -0.9659 -1.2753
 3295TIP3    H231521   0.543   3.337   1.299  1.7904 -0.1868  2.1000
 3296TIP3   OH231522   4.341   1.878   8.684 -0.2804  0.4772  0.2691
 3296TIP3    H131523   4.245   1.873   8.683 -0.2490 -0.1739 -0.3279
 3296TIP3    H231524   4.361   1.961   8.642 -0.5800  0.5285  0.2272
 3297TIP3   OH231525   6.625   5.264   1.632  0.3355  0.1837 -0.2173
 3297TIP3    H131526   6.673   5.300   1.557 -0.0582  0.7872 -0.1867
 3297TIP3    H231527   6.555   5.327   1.648 -0.7962 -0.9406 -0.5852
 3298TIP3   OH231528   6.423   2.779   8.280 -0.5435  0.7000 -0.0702
 3298TIP3    H131529   6.476   2.806   8.206  1.7153 -0.2911  1.0870
 3298TIP3    H231530   6.383   2.696   8.253  2.8527 -1.4160  0.7699
 3299TIP3   OH231531   4.442   3.183   1.168  0.0646 -0.4535  0.3608
 3299TIP3    H131532   4.510   3.140   1.117  0.1450  0.3885 -0.2567
 3299TIP3    H231533   4.370   3.120   1.170  0.2734 -0.7210 -0.3136
 3300TIP3   OH231534   6.712   3.427   0.971  0.0420 -0.1702  0.0731
 3300TIP3    H131535   6.635   3.389   1.013 -0.0849 -0.2058 -0.1885
 3300TIP3    H231536   6.766   3.352   0.947 -0.3613 -0.2163 -0.7381
 3301TIP3   OH231537   6.378   5.544   8.228  0.3576 -0.4586 -0.2434
 3301TIP3    H131538   6.330   5.472   8.187 -1.3941  1.9505 -2.8357
 3301TIP3    H231539   6.468   5.534   8.197 -0.0928 -0.9666 -1.4557
 3302TIP3   OH231540   2.294   0.207   8.797 -0.4979 -0.1717 -0.2715
 3302TIP3    H131541   2.377   0.205   8.749  0.1966 -1.6131  0.9547
 3302TIP3    H231542   2.312   0.258   8.875 -0.5257 -1.1950  0.4143
 3303TIP3   OH231543   5.921   3.924   6.589  0.6387  0.5766 -0.3981
 3303TIP3    H131544   5.980   3.856   6.556  1.9178  0.8059  1.2867
 3303TIP3    H231545   5.836   3.880   6.596  1.5532 -1.0907  1.1746
 3304TIP3   OH231546   6.191   6.469   0.656  0.0946 -0.5295  0.1422
 3304TIP3    H131547   6.248   6.393   0.644  0.5671 -0.5603  2.1277
 3304TIP3    H231548   6.102   6.435   0.642  0.4019 -1.0731 -0.5176
 3305TIP3   OH231549   2.906   3.589   0.422  0.6449  0.4533 -0.2296
 3305TIP3    H131550   2.841   3.519   0.417  0.9225  0.2476 -1.1545
 3305TIP3    H231551   2.868   3.652   0.482  0.3478 -0.4439  0.5536
 3306TIP3   OH231552   0.720   3.467   1.498 -0.3210 -0.2243  0.6302
 3306TIP3    H131553   0.751   3.536   1.557 -0.1927 -0.2965  0.6450
 3306TIP3    H231554   0.657   3.418   1.551 -0.7737  0.1732  0.4731
 3307TIP3   OH231555   3.164   4.015   7.960 -0.2126  0.6414  0.5886
 3307TIP3    H131556   3.093   4.023   8.025 -0.3993 -0.4563  0.5381
 3307TIP3    H231557   3.137   4.072   7.888 -0.6949  0.7839  0.8737
 3308TIP3   OH231558   0.034   0.122   1.106 -0.5396  0.1409 -0.7192
 3308TIP3    H131559  -0.036   0.145   1.168 -0.1991  0.8635 -0.5905
 3308TIP3    H231560  -0.001   0.148   1.021 -0.4343  0.5068 -0.6545
 3309TIP3   OH231561   1.218   5.241   8.067  0.1246 -0.1536 -0.3658
 3309TIP3    H131562   1.219   5.294   8.147  0.1664 -0.4006 -0.2018
 3309TIP3    H231563   1.180   5.298   8.001  0.1632  0.0796 -0.1874
 3310TIP3   OH231564   1.908   2.462   6.402 -0.0543  0.2265 -0.3442
 3310TIP3    H131565   1.911   2.374   6.366  1.2546  0.8829 -2.0073
 3310TIP3    H231566   1.847   2.457   6.475 -0.8736 -1.7946 -1.1076
 3311TIP3   OH231567   4.229   4.794   0.313 -0.1225 -0.0931 -0.1925
 3311TIP3    H131568   4.137   4.812   0.330 -0.2018  1.5407 -1.9572
 3311TIP3    H231569   4.277   4.859   0.364 -0.0850  0.5468 -1.0120
 3312TIP3   OH231570   6.425   0.490   8.573 -0.0942  0.2216  0.1286
 3312TIP3    H131571   6.363   0.423   8.544  0.7277 -0.5487  0.1150
 3312TIP3    H231572   6.481   0.506   8.497  0.6159 -0.1284  0.5663
 3313TIP3   OH231573   4.409   2.517   0.946  0.1857 -0.3395 -0.3252
 3313TIP3    H131574   4.317   2.545   0.944  0.0262 -0.8819 -0.7194
 3313TIP3    H231575   4.411   2.437   0.894  0.6774 -0.9254  0.5682
 3314TIP3   OH231576   3.729   1.867   0.102  0.2559 -0.0922 -0.4086
 3314TIP3    H131577   3.760   1.946   0.059  0.0897 -0.3058 -0.9362
 3314TIP3    H231578   3.636   1.861   0.078 -1.2818  2.3478  3.8086
 3315TIP3   OH231579   2.014   1.790   0.317 -0.5197  0.1715  0.4668
 3315TIP3    H131580   1.984   1.733   0.246 -0.1420 -1.6372  1.6816
 3315TIP3    H231581   1.935   1.810   0.367 -0.7563  1.3000 -0.3104
 3316TIP3   OH231582   1.683   6.436   7.601 -0.5020 -0.3679  0.2286
 3316TIP3    H131583   1.647   6.518   7.634 -3.7793 -0.7641 -1.8941
 3316TIP3    H231584   1.609   6.375   7.604  0.3676 -1.7715 -2.9636
 3317TIP3   OH231585   2.657   1.774   7.999 -0.1663 -0.4518  0.3707
 3317TIP3    H131586   2.707   1.719   7.939  0.5266 -0.6538  1.1052
 3317TIP3    H231587   2.719   1.842   8.025 -0.7892  0.2613  0.0402
 3318TIP3   OH231588   2.513   3.803   8.500 -0.0786  0.2567 -0.1680
 3318TIP3    H131589   2.517   3.789   8.405  0.1022 -0.5848 -0.0403
 3318TIP3    H231590   2.420   3.815   8.518 -0.1210  0.3613 -0.4432
 3319TIP3   OH231591   3.938   2.366   0.627  0.8599  0.0859 -0.0382
 3319TIP3    H131592   3.997   2.363   0.552 -1.5789  0.8585 -2.1176
 3319TIP3    H231593   3.885   2.444   0.613 -1.1665 -0.9723  1.2877
 3320TIP3   OH231594   4.492   6.276   7.925 -0.3092  0.0570  0.2304
 3320TIP3    H131595   4.540   6.205   7.881 -0.0518 -0.1423  0.8207
 3320TIP3    H231596   4.401   6.245   7.927 -0.3517  0.1306 -0.2748
 3321TIP3   OH231597   2.319   6.059   1.313  0.2575 -0.0757  0.3772
 3321TIP3    H131598   2.308   5.994   1.243 -3.0996  2.1740 -1.5247
 3321TIP3    H231599   2.240   6.050   1.366  1.7261 -0.2438  2.6656
 3322TIP3   OH231600   4.962   6.593   0.153 -0.0375  0.0814 -0.4749
 3322TIP3    H131601   4.976   6.661   0.087  1.2502 -0.6079 -0.9577
 3322TIP3    H231602   4.889   6.541   0.119  1.4774 -1.1004 -2.1368
 3323TIP3   OH231603   3.803   2.108   0.967  0.4157  0.0378  0.4068
 3323TIP3    H131604   3.760   2.061   1.039  0.0964  0.0730  0.2420
 3323TIP3    H231605   3.798   2.200   0.993  0.8873 -0.0011  0.6480
 3324TIP3   OH231606   6.755   0.716   1.324 -0.2078 -0.7046 -0.8958
 3324TIP3    H131607   6.687   0.711   1.257  0.3328 -2.3331 -1.3523
 3324TIP3    H231608   6.776   0.625   1.345  1.4040 -0.2439 -0.3317
 3325TIP3   OH231609   0.877   1.860   0.505 -0.0520 -0.0848 -0.2376
 3325TIP3    H131610   0.916   1.807   0.574  0.6488  0.0636 -0.5101
 3325TIP3    H231611   0.801   1.810   0.476  0.0740 -0.4965  0.1364
 3326TIP3   OH231612   3.519   4.643   0.863 -0.1344 -0.0635  0.0998
 3326TIP3    H131613   3.575   4.693   0.804 -0.5962 -1.0429 -1.2163
 3326TIP3    H231614   3.556   4.555   0.864 -1.9244 -0.9119 -1.3170
 3327TIP3   OH231615   4.546   2.906   6.104  0.4586 -0.4196 -0.1341
 3327TIP3    H131616   4.636   2.933   6.122  0.3025 -0.1354  0.2435
 3327TIP3    H231617   4.512   2.973   6.045 -0.2472  0.8157  1.5931
 3328TIP3   OH231618   6.710   3.101   8.276 -0.1285 -0.7227 -0.0485
 3328TIP3    H131619   6.631   3.134   8.319 -1.6308 -0.7940 -2.5291
 3328TIP3    H231620   6.722   3.014   8.312 -0.3445 -0.1995  1.3596
 3329TIP3   OH231621   2.046   5.454   6.690  0.0793 -0.3799  0.5849
 3329TIP3    H131622   2.038   5.388   6.760 -0.0525  1.0875  2.0142
 3329TIP3    H231623   2.122   5.506   6.716 -0.5992  0.8300  0.1743
 3330TIP3   OH231624   1.664   3.736   1.121 -0.2436 -0.1417  0.1282
 3330TIP3    H131625   1.584   3.713   1.169 -0.0294 -1.2073  0.0043
 3330TIP3    H231626   1.634   3.751   1.031 -0.1603 -1.8152 -0.2136
 3331TIP3   OH231627   4.076   3.663   7.791  0.0917 -0.1834  0.0993
 3331TIP3    H131628   4.107   3.628   7.874  0.1306  1.4355  0.8202
 3331TIP3    H231629   4.062   3.757   7.809 -0.0543  0.1655 -1.6715
 3332TIP3   OH231630   5.503   1.151   7.985  0.3392  1.0281 -0.1487
 3332TIP3    H131631   5.471   1.095   8.056  0.5723  0.6692 -0.3257
 3332TIP3    H231632   5.550   1.092   7.927 -0.2802  1.2269 -0.8751
 3333TIP3   OH231633   4.470   3.342   1.406  0.3433  0.3193  0.0399
 3333TIP3    H131634   4.459   3.260   1.454  1.7379  0.1562  0.1348
 3333TIP3    H231635   4.460   3.318   1.314  1.1164 -0.0507  0.0423
 3334TIP3   OH231636   1.391   3.332   6.902  0.8963 -0.4137  0.5471
 3334TIP3    H131637   1.332   3.399   6.868  0.8292 -0.0813  1.3032
 3334TIP3    H231638   1.474   3.377   6.914  0.8151 -0.4350  1.1821
 3335TIP3   OH231639   2.649   5.085   7.460  1.0623 -0.4760 -0.2469
 3335TIP3    H131640   2.622   5.082   7.552  0.9068  1.3581 -0.1882
 3335TIP3    H231641   2.642   4.995   7.430 -1.8953 -0.6570  0.7007
 3336TIP3   OH231642   2.211   0.583   0.869  0.6554  0.0980  0.2097
 3336TIP3    H131643   2.296   0.615   0.837  0.0390 -0.6364 -2.4855
 3336TIP3    H231644   2.147   0.637   0.823 -0.3248 -1.6900 -0.6585
 3337TIP3   OH231645   0.347   5.799   1.890  0.9253  0.5134 -0.0879
 3337TIP3    H131646   0.436   5.830   1.873  0.6824  1.0267 -0.4635
 3337TIP3    H231647   0.292   5.876   1.874  0.5625  0.7186  1.8866
 3338TIP3   OH231648   5.034   6.336   8.177  0.1795  0.6165 -0.2553
 3338TIP3    H131649   4.995   6.317   8.262  1.0510 -1.3621 -0.2520
 3338TIP3    H231650   5.031   6.253   8.130  2.0468  1.0148 -1.1893
 3339TIP3   OH231651   3.681   5.488   0.117  0.1631  0.0865 -0.4192
 3339TIP3    H131652   3.641   5.488   0.030  1.0260 -0.4043 -0.8325
 3339TIP3    H231653   3.607   5.482   0.177 -0.4340  0.1455 -1.1212
 3340TIP3   OH231654   2.363   4.728   8.540 -0.1204  0.3811  0.0781
 3340TIP3    H131655   2.321   4.778   8.610  0.2568  0.1775  0.4518
 3340TIP3    H231656   2.295   4.721   8.472 -1.6570 -2.1148  1.6787
 3341TIP3   OH231657   5.280   0.805   1.331  0.0116  0.1123  0.0129
 3341TIP3    H131658   5.247   0.835   1.417  1.5367  2.4183 -0.1271
 3341TIP3    H231659   5.249   0.714   1.324 -1.7142  0.4473  2.1811
 3342TIP3   OH231660   0.648   3.564   8.701  0.4145 -0.0649 -0.3144
 3342TIP3    H131661   0.639   3.648   8.656  1.5323  0.5809  0.6214
 3342TIP3    H231662   0.721   3.521   8.656  0.3416 -0.1971 -0.3033
 3343TIP3   OH231663   3.643   6.678   1.936 -0.4163  0.2591 -0.3308
 3343TIP3    H131664   3.561   6.691   1.983  0.1569 -0.2329  0.8584
 3343TIP3    H231665   3.707   6.661   2.005  0.9855  1.9965 -1.1302
 3344TIP3   OH231666   4.570   3.646   1.380  0.1447  0.2968  0.0929
 3344TIP3    H131667   4.542   3.696   1.457  0.7381 -0.5858  0.9066
 3344TIP3    H231668   4.537   3.558   1.396  0.7028 -0.0112 -0.4168
 3345TIP3   OH231669   5.084   4.722   0.387 -0.1063 -0.0028 -0.6599
 3345TIP3    H131670   5.082   4.772   0.469 -0.8169  1.5351 -1.5720
 3345TIP3    H231671   5.177   4.706   0.371 -0.0136 -1.9321  1.3363
 3346TIP3   OH231672   4.813   3.453   7.193 -0.0994  0.4351 -0.0832
 3346TIP3    H131673   4.842   3.416   7.277 -0.6959  1.5621  0.6380
 3346TIP3    H231674   4.774   3.379   7.147  1.2168 -0.4437  0.1625
 3347TIP3   OH231675   4.500   5.920   7.574  0.4038 -0.0528  0.7446
 3347TIP3    H131676   4.527   5.830   7.593 -1.1128 -0.4093  1.3822
 3347TIP3    H231677   4.546   5.973   7.639  0.8792 -0.4283  0.7236
 3348TIP3   OH231678   4.590   4.953   8.846  0.1309 -0.4409 -0.8422
 3348TIP3    H131679   4.532   5.012   8.894  0.5413 -0.1234 -0.7257
 3348TIP3    H231680   4.623   5.005   8.773  1.3686 -0.1347 -0.1119
 3349TIP3   OH231681   4.191   3.207   7.905 -0.2626 -0.3598 -0.2925
 3349TIP3    H131682   4.218   3.115   7.901  2.2302  0.2553  0.7184
 3349TIP3    H231683   4.204   3.232   7.997 -0.5337  1.1165 -0.6294
 3350TIP3   OH231684   3.035   2.464   2.024  0.3059 -0.1781 -0.0105
 3350TIP3    H131685   3.036   2.379   2.068 -0.8767 -0.0826  0.2293
 3350TIP3    H231686   3.064   2.444   1.934  1.7714 -0.5276  0.5150
 3351TIP3   OH231687   3.294   0.398   6.669 -0.4528  0.4610 -0.2217
 3351TIP3    H131688   3.236   0.347   6.612  0.6174  0.1075 -1.0363
 3351TIP3    H231689   3.293   0.486   6.630  0.5599  0.1302 -1.0268
 3352TIP3   OH231690   6.431   5.305   1.888  0.2814 -0.2328  0.0906
 3352TIP3    H131691   6.504   5.245   1.901 -0.5733 -1.1630  0.8053
 3352TIP3    H231692   6.369   5.284   1.958  0.0156  1.6200  0.4592
 3353TIP3   OH231693   2.127   4.088   1.842 -0.2737  0.3499  0.1854
 3353TIP3    H131694   2.110   4.157   1.778  2.2548  1.5569  0.6803
 3353TIP3    H231695   2.194   4.033   1.800 -1.2205 -1.0012  0.3783
 3354TIP3   OH231696   4.374   2.047   8.911 -0.4325  0.6148 -0.2723
 3354TIP3    H131697   4.345   1.993   8.985 -1.5523  1.7971  0.1729
 3354TIP3    H231698   4.398   1.983   8.843 -1.0475 -0.4505  0.4807
 3355TIP3   OH231699   4.475   6.047   2.330 -0.5711  0.2979  0.3118
 3355TIP3    H131700   4.396   6.001   2.358 -0.3451  0.0875  0.6080
 3355TIP3    H231701   4.457   6.139   2.346 -1.0543  0.3240 -0.3506
 3356TIP3   OH231702   1.369   6.128   8.121 -0.1109 -0.0449  0.1709
 3356TIP3    H131703   1.280   6.099   8.136 -0.4255  0.6322 -0.3494
 3356TIP3    H231704   1.378   6.131   8.026  0.7844 -1.0602  0.2060
 3357TIP3   OH231705   2.402   2.101   6.343  0.5776  0.2298  0.3289
 3357TIP3    H131706   2.451   2.176   6.308 -0.7870  0.2588 -1.7185
 3357TIP3    H231707   2.318   2.105   6.298  0.5997 -2.7936 -0.1883
 3358TIP3   OH231708   2.715   3.330   8.117  0.4703 -0.1385 -0.0160
 3358TIP3    H131709   2.797   3.355   8.160 -0.2024  0.5211  0.9162
 3358TIP3    H231710   2.710   3.235   8.128  1.0178 -0.1583  0.0785
 3359TIP3   OH231711   1.970   5.392   1.716 -0.0327  0.6199 -0.3655
 3359TIP3    H131712   2.018   5.340   1.651 -0.0533 -1.8099  1.4429
 3359TIP3    H231713   2.028   5.396   1.791 -0.8305  1.6164  0.2217
 3360TIP3   OH231714   1.651   4.183   7.276 -0.4413 -0.3117 -0.6000
 3360TIP3    H131715   1.716   4.252   7.262 -0.2101 -0.6971 -1.5091
 3360TIP3    H231716   1.631   4.150   7.188 -1.0998 -0.8995 -0.2441
 3361TIP3   OH231717   4.928   0.350   8.945 -0.6744 -0.3788  0.2373
 3361TIP3    H131718   4.939   0.367   9.039  1.8341 -2.9086  0.5223
 3361TIP3    H231719   4.887   0.430   8.911  1.8543  2.2802  2.8173
 3362TIP3   OH231720   5.506   2.986   0.890  0.1584 -0.3087 -0.2389
 3362TIP3    H131721   5.484   2.935   0.968  0.0664 -0.8361 -0.6043
 3362TIP3    H231722   5.425   2.993   0.841  0.3645 -0.5521 -0.6166
 3363TIP3   OH231723   6.545   6.460   1.587  0.8429  0.2433  0.2111
 3363TIP3    H131724   6.615   6.402   1.617  1.2420  0.1927 -0.7803
 3363TIP3    H231725   6.525   6.429   1.499 -0.0608  0.6074  0.2778
 3364TIP3   OH231726   5.274   0.055   7.812  0.0095  0.2518 -0.1182
 3364TIP3    H131727   5.316   0.110   7.746 -0.7554  0.6854 -0.2638
 3364TIP3    H231728   5.188   0.096   7.826  0.1747  0.1939  1.1798
 3365TIP3   OH231729   0.498   5.710   7.913 -0.1514 -0.5283  0.1320
 3365TIP3    H131730   0.527   5.623   7.888  0.9937 -0.3542  0.7540
 3365TIP3    H231731   0.524   5.766   7.840 -2.9021 -0.9952 -1.3081
 3366TIP3   OH231732   2.656   1.550   8.583 -0.0198  0.1411 -0.2443
 3366TIP3    H131733   2.572   1.526   8.622 -0.2235  1.7869  0.4360
 3366TIP3    H231734   2.634   1.583   8.496  0.3161 -2.4958 -1.3910
 3367TIP3   OH231735   0.975   1.521   6.757 -0.3133  0.0750  0.5099
 3367TIP3    H131736   1.019   1.589   6.705 -0.7770 -1.1290 -1.5638
 3367TIP3    H231737   0.886   1.518   6.721  0.1070 -2.5988 -0.4763
 3368TIP3   OH231738   1.061   6.603   0.443  0.5338  0.3946  0.3174
 3368TIP3    H131739   1.041   6.516   0.476  0.0083  1.0375  1.7487
 3368TIP3    H231740   1.051   6.661   0.518 -2.9068  2.2492 -1.3229
 3369TIP3   OH231741   5.166   4.189   8.490 -0.2169  0.1607  0.5248
 3369TIP3    H131742   5.247   4.182   8.439 -0.0447 -0.3756  0.8600
 3369TIP3    H231743   5.101   4.221   8.428  0.4995  1.7135  0.5182
 3370TIP3   OH231744   2.919   6.177   8.899 -0.4037 -0.0081  0.2464
 3370TIP3    H131745   2.888   6.134   8.820 -0.2979 -2.0000  1.2454
 3370TIP3    H231746   2.879   6.129   8.971  0.3067  1.1145  1.4482
 3371TIP3   OH231747   1.286   6.263   1.763 -0.1583  0.2239  0.0405
 3371TIP3    H131748   1.264   6.178   1.800 -2.6665  0.8897  0.2283
 3371TIP3    H231749   1.337   6.306   1.832  0.0591 -0.6455  0.4362
 3372TIP3   OH231750   6.118   4.299   1.495 -0.0001  0.4794  0.1960
 3372TIP3    H131751   6.151   4.321   1.582  1.2307  0.6168 -0.2861
 3372TIP3    H231752   6.052   4.366   1.476  0.4335  1.0324  0.6238
 3373TIP3   OH231753   4.165   2.079   0.861 -0.0321  0.6108  0.0337
 3373TIP3    H131754   4.150   2.170   0.889  1.1563  0.3414  1.6551
 3373TIP3    H231755   4.252   2.080   0.821 -0.2430  0.2847 -0.4407
 3374TIP3   OH231756   3.107   1.946   8.429  0.1159 -0.1842  0.2748
 3374TIP3    H131757   3.152   1.893   8.363  1.0219 -1.5872  1.9278
 3374TIP3    H231758   3.094   1.886   8.503 -0.5869  1.3938  1.4894
 3375TIP3   OH231759   2.756   2.019   7.185  0.1391 -0.0376  0.0475
 3375TIP3    H131760   2.734   1.929   7.160  0.4570 -0.3544  0.8734
 3375TIP3    H231761   2.849   2.028   7.162 -0.0218  0.2482 -0.4991
 3376TIP3   OH231762   0.812   4.891   7.785 -0.5829 -0.1920 -0.1381
 3376TIP3    H131763   0.832   4.812   7.836 -0.1749 -0.3204 -0.4918
 3376TIP3    H231764   0.897   4.921   7.753 -0.8867 -0.4301 -1.2016
 3377TIP3   OH231765   2.140   0.025   7.791 -0.0001 -0.1503  0.0515
 3377TIP3    H131766   2.209   0.088   7.813 -1.5986  1.0712  1.9144
 3377TIP3    H231767   2.117   0.046   7.700  0.9109  0.5541 -0.0357
 3378TIP3   OH231768   4.280   3.297   0.327 -0.2335  0.8660  0.2071
 3378TIP3    H131769   4.245   3.259   0.247  2.2369  1.5424 -1.3004
 3378TIP3    H231770   4.331   3.372   0.298  0.2708  1.4829  2.4894
 3379TIP3   OH231771   6.055   4.168   7.449 -0.2464  0.4445 -0.1332
 3379TIP3    H131772   6.130   4.165   7.509 -0.4827 -0.4680  0.1222
 3379TIP3    H231773   6.092   4.144   7.364  0.0108  1.3615 -0.3008
 3380TIP3   OH231774   2.578   5.748   1.489  0.1480  0.5819 -0.7521
 3380TIP3    H131775   2.628   5.757   1.408  0.0262  0.0663 -0.8855
 3380TIP3    H231776   2.634   5.788   1.556  0.1170  1.2859 -1.1372
 3381TIP3   OH231777   3.300   3.618   7.273  0.6524  0.2755  0.3786
 3381TIP3    H131778   3.369   3.669   7.316  2.7494 -2.3135  0.4111
 3381TIP3    H231779   3.321   3.623   7.180  0.6273 -0.1211  0.3468
 3382TIP3   OH231780   6.421   4.473   6.746  0.0166 -0.0989 -0.0693
 3382TIP3    H131781   6.383   4.514   6.823 -3.5320 -1.6256 -0.8091
 3382TIP3    H231782   6.435   4.546   6.685  0.2742  0.7812  1.0057
 3383TIP3   OH231783   1.297   3.149   8.059  0.1527  0.1856  0.4646
 3383TIP3    H131784   1.314   3.191   8.143  0.7393  1.4679 -0.2653
 3383TIP3    H231785   1.335   3.062   8.068 -1.5614 -0.4646  2.2107
 3384TIP3   OH231786   2.460   4.330   1.331  0.1520 -0.2635  0.2518
 3384TIP3    H131787   2.465   4.235   1.319  0.3346 -0.0016 -2.2397
 3384TIP3    H231788   2.477   4.343   1.424  0.0724 -2.6684  0.6648
 3385TIP3   OH231789   6.005   1.273   1.412  0.1071  0.2462  0.5685
 3385TIP3    H131790   5.949   1.197   1.395  1.3103 -0.5015 -0.1996
 3385TIP3    H231791   6.056   1.248   1.489  0.7036  0.1570  0.1474
 3386TIP3   OH231792   1.208   5.862   7.482 -0.5322  0.3725 -0.2479
 3386TIP3    H131793   1.253   5.908   7.553 -1.0385 -0.0002  0.3311
 3386TIP3    H231794   1.179   5.932   7.423  0.4629  0.6377 -0.4364
 3387TIP3   OH231795   4.632   2.270   1.114 -0.2145  0.3810 -0.4431
 3387TIP3    H131796   4.568   2.252   1.045  0.0983  1.4755 -1.0398
 3387TIP3    H231797   4.598   2.347   1.159  0.2314  0.4334 -0.1898
 3388TIP3   OH231798   0.040   4.633   8.714  0.0549 -0.3703 -0.3028
 3388TIP3    H131799   0.103   4.655   8.646 -0.5946 -1.6194 -1.3347
 3388TIP3    H231800   0.067   4.548   8.747 -1.2823 -1.1081 -1.0296
 3389TIP3   OH231801   2.164   4.841   8.191  0.0439 -0.3235  0.3802
 3389TIP3    H131802   2.151   4.767   8.251 -1.1487  0.9508  1.7929
 3389TIP3    H231803   2.228   4.897   8.236 -0.7299  0.5610  0.4158
 3390TIP3   OH231804   2.973   3.999   0.902  0.3488 -0.5316 -0.4525
 3390TIP3    H131805   3.059   3.993   0.862  0.9423  1.7600  0.3252
 3390TIP3    H231806   2.923   4.058   0.845 -1.2432 -2.8616 -1.6480
 3391TIP3   OH231807   1.036   6.332   8.079 -0.3301 -0.0301 -0.2036
 3391TIP3    H131808   0.993   6.405   8.125 -1.7768  0.3123 -2.0002
 3391TIP3    H231809   1.101   6.373   8.023  0.4655 -0.3385  0.4713
 3392TIP3   OH231810   2.599   6.519   8.235 -0.3440  0.1870  0.3519
 3392TIP3    H131811   2.661   6.510   8.308  0.1613 -0.2608 -0.1152
 3392TIP3    H231812   2.579   6.428   8.210  0.1417  0.3274 -0.5977
 3393TIP3   OH231813   2.900   0.186   0.862  0.2382 -0.0246 -0.1877
 3393TIP3    H131814   2.826   0.179   0.922  0.0333 -2.3869 -0.6293
 3393TIP3    H231815   2.891   0.110   0.804  2.2708  0.3782 -1.1068
 3394TIP3   OH231816   0.018   1.064   1.827 -0.6077  0.5957  0.3514
 3394TIP3    H131817   0.005   1.158   1.827 -1.3814  0.5023  1.1827
 3394TIP3    H231818   0.100   1.051   1.875 -0.2812  0.8634 -0.1297
 3395TIP3   OH231819   4.128   5.085   7.998 -0.2938 -0.4716 -0.1078
 3395TIP3    H131820   4.200   5.116   7.943 -0.0417 -1.3778 -0.3120
 3395TIP3    H231821   4.141   5.128   8.082  0.3708 -0.4801 -0.2022
 3396TIP3   OH231822   4.673   2.868   0.210  0.1869  0.3328 -0.1853
 3396TIP3    H131823   4.665   2.817   0.291  0.9579 -0.3358 -0.5128
 3396TIP3    H231824   4.655   2.958   0.237  0.4773  0.1291  0.7493
 3397TIP3   OH231825   6.757   6.200   8.443  0.0245  0.0126  0.3732
 3397TIP3    H131826   6.779   6.111   8.470 -1.2935 -0.0774  1.2691
 3397TIP3    H231827   6.670   6.215   8.480  0.3155  1.7617  0.4433
 3398TIP3   OH231828   2.445   6.733   8.086 -0.0965  0.0503  0.2545
 3398TIP3    H131829   2.507   6.669   8.120  1.3839  1.8910  1.2042
 3398TIP3    H231830   2.439   6.799   8.155 -2.8560  0.1463  0.0220
 3399TIP3   OH231831   4.876   2.588   8.143 -0.0946 -0.3982 -0.5392
 3399TIP3    H131832   4.894   2.680   8.165 -1.0425 -0.0514 -1.1649
 3399TIP3    H231833   4.836   2.553   8.222 -0.0909 -0.1693 -0.4335
 3400TIP3   OH231834   5.033   0.385   7.047 -0.2358 -0.1811  0.1707
 3400TIP3    H131835   5.038   0.470   7.090  1.9660  0.8679 -1.9154
 3400TIP3    H231836   4.990   0.402   6.963  0.3589 -1.0765 -0.3375
 3401TIP3   OH231837   1.823   5.281   7.224  0.0497  0.3327  0.0848
 3401TIP3    H131838   1.827   5.251   7.314  2.2888 -0.5155 -0.2237
 3401TIP3    H231839   1.861   5.209   7.173  1.2447  1.8151 -1.2227
 3402TIP3   OH231840   5.071   2.571   7.612  0.0521 -0.3617 -0.4779
 3402TIP3    H131841   5.078   2.537   7.701 -0.9680 -1.8519 -0.9401
 3402TIP3    H231842   4.987   2.617   7.611 -0.6141 -1.5694 -1.0518
 3403TIP3   OH231843   5.486   4.210   7.805  0.2394  0.2315 -0.0125
 3403TIP3    H131844   5.440   4.130   7.829  1.8169 -0.9278 -0.6796
 3403TIP3    H231845   5.459   4.227   7.715 -0.1699  0.5051  0.1617
 3404TIP3   OH231846   5.743   5.603   7.620 -0.2992  0.0476 -0.1584
 3404TIP3    H131847   5.658   5.630   7.586 -0.1520  1.1671  0.3284
 3404TIP3    H231848   5.740   5.507   7.619 -0.8157  0.0329 -2.0051
 3405TIP3   OH231849   2.090   1.103   8.794 -0.2698  0.3669 -0.1886
 3405TIP3    H131850   2.166   1.067   8.749 -1.0608  0.6191 -1.7804
 3405TIP3    H231851   2.017   1.049   8.766 -1.0338  1.4891 -0.4441
 3406TIP3   OH231852   4.468   6.166   8.984 -0.5828 -0.1252 -0.3429
 3406TIP3    H131853   4.554   6.132   9.006  0.4364  1.4854 -1.5999
 3406TIP3    H231854   4.432   6.103   8.922  0.4115  0.0049 -1.0734
 3407TIP3   OH231855   4.857   4.635   1.154 -0.0806 -0.1987  0.5901
 3407TIP3    H131856   4.872   4.729   1.147  0.2085 -0.0879  2.3615
 3407TIP3    H231857   4.906   4.598   1.081  1.3539  0.8794  0.9573
 3408TIP3   OH231858   4.768   5.168   0.074 -0.0003  0.0407 -0.2537
 3408TIP3    H131859   4.797   5.218  -0.003 -1.6847 -0.0062 -0.9391
 3408TIP3    H231860   4.833   5.098   0.083  0.6113  0.4712 -1.1822
 3409TIP3   OH231861   2.017   2.045   7.565 -0.6472 -0.5227  0.1158
 3409TIP3    H131862   2.019   1.978   7.496  0.7087 -1.0553  0.6283
 3409TIP3    H231863   2.099   2.093   7.553  0.3506 -1.5561  2.1973
 3410TIP3   OH231864   4.395   4.239   8.038  0.6365 -0.1473  0.4565
 3410TIP3    H131865   4.386   4.161   8.092  0.0674  1.6514  3.1210
 3410TIP3    H231866   4.376   4.312   8.096 -2.6558  1.9003 -2.7619
 3411TIP3   OH231867   4.431   0.327   0.997  0.3810 -0.2166  0.2920
 3411TIP3    H131868   4.442   0.245   1.046  2.7824  0.0391  0.2771
 3411TIP3    H231869   4.410   0.392   1.064 -0.2484 -0.5836  0.4625
 3412TIP3   OH231870   2.430   4.994   0.917 -0.1636  0.0879 -0.4709
 3412TIP3    H131871   2.451   4.922   0.857 -2.0233 -0.3096 -0.7187
 3412TIP3    H231872   2.376   4.953   0.986  0.8688  0.7783  0.7920
 3413TIP3   OH231873   0.099   1.145   7.430  0.1888  0.2974  0.3947
 3413TIP3    H131874   0.069   1.074   7.373  1.6192  0.4192 -0.5518
 3413TIP3    H231875   0.186   1.116   7.459  0.0500  0.8749  1.4224
 3414TIP3   OH231876   2.009   1.227   6.274 -0.5936 -0.6515 -0.4638
 3414TIP3    H131877   2.073   1.191   6.213  1.3988  1.5244  0.1933
 3414TIP3    H231878   2.061   1.279   6.335 -3.0710  1.8768 -0.3325
 3415TIP3   OH231879   6.163   1.702   2.120 -0.1799  0.0226  0.1093
 3415TIP3    H131880   6.178   1.712   2.214  0.0355 -2.3398  0.3784
 3415TIP3    H231881   6.246   1.670   2.085 -0.6613 -0.4309 -0.6437
 3416TIP3   OH231882   4.905   4.056   0.898 -0.3139  0.1727  0.2250
 3416TIP3    H131883   4.906   4.000   0.820 -1.4273  1.4555 -0.7641
 3416TIP3    H231884   4.918   4.145   0.864 -0.7356  0.7504  1.5021
 3417TIP3   OH231885   3.458   2.096   2.184  0.0195 -0.0499 -0.5047
 3417TIP3    H131886   3.413   2.050   2.254 -0.0005 -1.7631 -1.5843
 3417TIP3    H231887   3.454   2.188   2.209 -0.8099 -0.5281  1.2484
 3418TIP3   OH231888   5.047   4.337   0.973  0.5259  0.3663  0.6317
 3418TIP3    H131889   5.030   4.412   0.917  1.2480  0.6569  0.7955
 3418TIP3    H231890   5.118   4.290   0.929  1.5938  0.9851  1.6580
 3419TIP3   OH231891   4.218   1.062   0.858  0.0537 -0.5878  0.1362
 3419TIP3    H131892   4.242   1.001   0.789  0.6826 -0.2631  0.0553
 3419TIP3    H231893   4.136   1.028   0.893 -0.8814 -0.1419 -1.5090
 3420TIP3   OH231894   5.206   2.677   7.006 -0.6253 -0.1114  0.4638
 3420TIP3    H131895   5.250   2.649   6.926  1.8131 -1.6225  2.1845
 3420TIP3    H231896   5.136   2.613   7.019  1.2925 -2.1200  1.3726
 3421TIP3   OH231897   2.587   5.902   0.358 -0.7306 -0.0293  0.0885
 3421TIP3    H131898   2.663   5.961   0.368  0.1332 -0.7755 -1.6732
 3421TIP3    H231899   2.511   5.960   0.365 -0.0097  0.8174  1.3772
 3422TIP3   OH231900   3.501   3.431   1.978 -0.0191 -0.2120 -0.4369
 3422TIP3    H131901   3.480   3.461   1.890  1.2680 -0.5884 -0.8915
 3422TIP3    H231902   3.418   3.437   2.026 -1.0397 -1.1708 -1.9924
 3423TIP3   OH231903   0.343   4.958   8.917  0.0662 -0.3115  0.1577
 3423TIP3    H131904   0.431   4.954   8.953  0.5038  0.4161 -0.8080
 3423TIP3    H231905   0.296   4.887   8.962  1.5097 -1.6400 -0.3235
 3424TIP3   OH231906   6.141   4.989   7.958 -0.2181 -0.2413  0.6788
 3424TIP3    H131907   6.087   4.915   7.931  0.3619 -0.0574 -1.1515
 3424TIP3    H231908   6.188   4.958   8.036  0.2621 -1.9445 -0.2499
 3425TIP3   OH231909   4.375   0.170   1.442  0.6466  0.3904  1.0680
 3425TIP3    H131910   4.420   0.115   1.378  0.5657  1.5832 -0.0473
 3425TIP3    H231911   4.293   0.194   1.399 -0.7238 -1.0430  2.7237
 3426TIP3   OH231912   3.542   1.150   0.574 -0.4626  0.1534 -0.5992
 3426TIP3    H131913   3.624   1.100   0.573 -0.0591  0.7906 -1.7304
 3426TIP3    H231914   3.568   1.238   0.601 -0.8179  0.2905 -0.6952
 3427TIP3   OH231915   0.216   2.215   8.877 -0.0089  0.3544 -0.7175
 3427TIP3    H131916   0.297   2.265   8.866 -0.3578  0.5983 -2.4266
 3427TIP3    H231917   0.243   2.134   8.920  1.1706  0.3854 -1.3723
 3428TIP3   OH231918   1.934   2.396   0.150 -0.4972  0.0062  0.6437
 3428TIP3    H131919   1.921   2.464   0.216 -2.0219  0.8236 -0.4284
 3428TIP3    H231920   1.854   2.398   0.097 -0.1730 -1.9966 -0.0062
 3429TIP3   OH231921   0.876   3.248   8.035  0.1823 -0.1800 -0.1134
 3429TIP3    H131922   0.802   3.283   8.086 -2.1041 -0.5462 -2.8977
 3429TIP3    H231923   0.920   3.326   8.001 -0.0850  0.0410  0.0421
 3430TIP3   OH231924   6.094   3.714   6.464  0.4917  0.4721 -0.2993
 3430TIP3    H131925   6.007   3.703   6.424 -0.0579  0.8097  0.7721
 3430TIP3    H231926   6.133   3.627   6.459 -0.5585 -0.0842  0.6687
 3431TIP3   OH231927   1.706   0.152   7.948  0.2750  0.4800 -0.2286
 3431TIP3    H131928   1.622   0.107   7.938 -0.5562  2.0852 -0.9432
 3431TIP3    H231929   1.772   0.086   7.929 -0.8259 -0.7686  0.1490
 3432TIP3   OH231930   5.978   5.638   8.387 -0.3999 -0.1688 -0.6423
 3432TIP3    H131931   5.968   5.578   8.313 -0.7251  0.5145 -1.1573
 3432TIP3    H231932   5.894   5.632   8.433 -0.0906 -0.8266 -0.1349
 3433TIP3   OH231933   4.850   0.028   8.215 -0.0838 -0.1046  0.0577
 3433TIP3    H131934   4.774   0.021   8.156  0.9968 -0.4277 -1.3372
 3433TIP3    H231935   4.907  -0.044   8.190  1.2035  0.7909  0.3394
 3434TIP3   OH231936   0.008   1.657   6.904  0.1313  0.1934  0.3226
 3434TIP3    H131937   0.064   1.658   6.982  1.5134  2.9334 -0.5746
 3434TIP3    H231938  -0.018   1.748   6.891  0.0184 -0.1382 -2.4466
 3435TIP3   OH231939   3.427   4.130   0.705  0.4825  0.7346  0.0826
 3435TIP3    H131940   3.467   4.045   0.721  0.1847  0.5185 -0.3233
 3435TIP3    H231941   3.484   4.172   0.640  0.8905  1.0392  0.6233
 3436TIP3   OH231942   5.552   4.357   2.388  0.1713  0.2416 -0.0278
 3436TIP3    H131943   5.461   4.386   2.387  0.8466  2.5442 -1.6536
 3436TIP3    H231944   5.547   4.265   2.415 -2.7500 -0.1271 -1.4220
 3437TIP3   OH231945   3.759   0.198   1.326 -0.1781 -0.0975 -0.0246
 3437TIP3    H131946   3.822   0.251   1.375  1.0271 -1.3681 -0.1600
 3437TIP3    H231947   3.756   0.115   1.372 -3.3955  0.5691  1.2541
 3438TIP3   OH231948   6.283   6.453   7.682  0.8200 -0.1949  0.2257
 3438TIP3    H131949   6.231   6.380   7.714  1.6210 -0.1347  1.7262
 3438TIP3    H231950   6.329   6.418   7.606 -0.9787 -0.3839 -0.8288
 3439TIP3   OH231951   1.054   5.204   0.641  0.2316 -0.2025 -0.4369
 3439TIP3    H131952   0.977   5.159   0.608 -1.3506  0.3177  2.3012
 3439TIP3    H231953   1.098   5.140   0.697  0.8288  0.0704 -0.5734
 3440TIP3   OH231954   0.745   4.244   1.886  0.1204  0.7072  0.2805
 3440TIP3    H131955   0.775   4.325   1.926  1.7362  1.4008 -2.0909
 3440TIP3    H231956   0.766   4.254   1.793 -1.1518 -1.7672 -0.3700
 3441TIP3   OH231957   6.451   6.440   7.088  0.0169  0.3401  0.5379
 3441TIP3    H131958   6.519   6.425   7.154  0.3197 -1.4605 -0.1222
 3441TIP3    H231959   6.488   6.506   7.030 -0.3427  2.1173  2.2276
 3442TIP3   OH231960   2.734   1.231   7.346 -0.0166  0.2181  0.1949
 3442TIP3    H131961   2.809   1.290   7.332  1.2001 -1.5753 -1.2929
 3442TIP3    H231962   2.766   1.166   7.409 -1.7661  1.7230  2.8508
 3443TIP3   OH231963   6.584   0.826   8.272 -0.4621  0.1223  0.5198
 3443TIP3    H131964   6.521   0.849   8.203 -0.5952  2.4896  1.3455
 3443TIP3    H231965   6.535   0.769   8.331 -0.4182 -1.7489 -1.1282
 3444TIP3   OH231966   1.984   1.331   0.770  0.3585 -0.5510  0.1892
 3444TIP3    H131967   1.907   1.287   0.805  1.0322 -1.4493  0.5771
 3444TIP3    H231968   2.050   1.262   0.764  1.3906  0.3719  0.6653
 3445TIP3   OH231969   4.500   6.146   0.420  0.0093 -0.0401 -0.2780
 3445TIP3    H131970   4.518   6.079   0.354  0.0693 -1.6648  1.3071
 3445TIP3    H231971   4.431   6.108   0.474 -0.2727  1.3899  0.4096
 3446TIP3   OH231972   4.921   3.135   6.585  0.3738 -0.2703  0.0571
 3446TIP3    H131973   4.908   3.224   6.553 -1.4270 -0.9401 -1.2557
 3446TIP3    H231974   5.006   3.137   6.627  0.1449  2.2006  0.5572
 3447TIP3   OH231975   2.767   6.062   7.853  0.5618  0.1606  0.1552
 3447TIP3    H131976   2.704   5.994   7.832  3.0108 -1.6807 -1.9635
 3447TIP3    H231977   2.715   6.135   7.886 -2.6604 -1.0389 -1.8390
 3448TIP3   OH231978   3.474   2.014   7.301 -0.7182 -0.4629 -0.3622
 3448TIP3    H131979   3.429   2.007   7.385 -0.0182 -1.0795 -0.0216
 3448TIP3    H231980   3.452   2.102   7.269 -3.3475 -1.2505 -0.9424
 3449TIP3   OH231981   0.454   2.344   6.859 -0.0744 -0.0528 -0.0367
 3449TIP3    H131982   0.401   2.408   6.906 -0.3672 -0.1125 -0.2774
 3449TIP3    H231983   0.532   2.332   6.913  0.0358  0.5903 -0.0493
 3450TIP3   OH231984   0.920   1.501   1.275 -0.5258 -0.0250  0.0846
 3450TIP3    H131985   0.929   1.490   1.370  0.8177 -1.2548 -0.1475
 3450TIP3    H231986   0.827   1.519   1.262 -0.6284  0.7599  1.6763
 3451TIP3   OH231987   1.327   3.297   8.299  0.4647 -0.1070  0.0676
 3451TIP3    H131988   1.368   3.238   8.363 -0.2679 -1.2926 -0.5072
 3451TIP3    H231989   1.381   3.375   8.300  0.6788 -0.2163  1.8961
 3452TIP3   OH231990   6.346   1.117   8.507  0.4333  0.4545  0.2215
 3452TIP3    H131991   6.337   1.134   8.413  0.2325 -0.2141  0.1116
 3452TIP3    H231992   6.289   1.182   8.549 -0.2515  0.1216 -0.1696
 3453TIP3   OH231993   6.046   3.131   2.339  0.1617 -0.5240 -0.2325
 3453TIP3    H131994   6.102   3.073   2.288  0.1232 -1.5042  0.8254
 3453TIP3    H231995   5.989   3.073   2.388 -1.3209  0.4384 -0.7307
 3454TIP3   OH231996   5.087   6.724   0.926  0.0476  0.0085  0.4055
 3454TIP3    H131997   5.068   6.636   0.957  0.5470  0.3491  1.7754
 3454TIP3    H231998   5.147   6.760   0.992  0.2994  1.1682 -0.4247
 3455TIP3   OH231999   2.839   4.966   0.465  0.1276  0.2239 -0.8270
 3455TIP3    H132000   2.910   4.942   0.405  0.9167 -0.7452  0.4367
 3455TIP3    H232001   2.877   4.953   0.552 -0.3934  3.2587 -0.0574
 3456TIP3   OH232002   0.598   6.148   7.689  0.2622  0.0875  0.2257
 3456TIP3    H132003   0.681   6.185   7.659 -0.6066  2.0773  0.1640
 3456TIP3    H232004   0.536   6.168   7.619 -0.6068 -0.0038  0.9553
 3457TIP3   OH232005   3.641   0.138   8.066 -0.0484  0.1529  0.0016
 3457TIP3    H132006   3.644   0.057   8.014 -0.3121  0.2202 -0.1181
 3457TIP3    H232007   3.636   0.208   8.000  0.6137  0.2908  0.0928
 3458TIP3   OH232008   3.819   0.756   1.189 -0.3555  0.2140 -0.0881
 3458TIP3    H132009   3.873   0.757   1.269 -1.3858  1.5609  0.6317
 3458TIP3    H232010   3.882   0.744   1.118  0.6768 -0.1811  0.8616
 3459TIP3   OH232011   3.121   0.095   0.064  0.1313  0.3223 -0.0555
 3459TIP3    H132012   3.163   0.017   0.028 -0.2670  0.5759 -1.0815
 3459TIP3    H232013   3.193   0.158   0.073  0.0679  0.5823 -1.3206
 3460TIP3   OH232014   6.430   4.612   1.035  0.0097  0.0819 -0.3755
 3460TIP3    H132015   6.466   4.682   0.981 -0.0421 -0.5192 -1.2146
 3460TIP3    H232016   6.435   4.534   0.980 -1.3655 -0.2752 -0.0511
 3461TIP3   OH232017   4.532   0.040   7.830  0.0218 -0.1421  0.1476
 3461TIP3    H132018   4.556  -0.052   7.818  1.3555  0.4019 -1.7695
 3461TIP3    H232019   4.612   0.088   7.811 -1.4336  1.5756 -2.0587
 3462TIP3   OH232020   3.377   6.750   6.501  0.1984 -0.3302  0.3943
 3462TIP3    H132021   3.401   6.661   6.528  0.2413  0.1326  2.0237
 3462TIP3    H232022   3.285   6.758   6.526 -0.2312 -0.3707 -1.0805
 3463TIP3   OH232023   1.637   1.590   7.091 -0.5469  0.2286  0.8397
 3463TIP3    H132024   1.669   1.644   7.019  3.2434 -2.5360  0.1332
 3463TIP3    H232025   1.711   1.585   7.152 -1.6162 -2.0402  2.0841
 3464TIP3   OH232026   1.142   2.501   1.215 -0.1420 -1.2819 -0.0985
 3464TIP3    H132027   1.092   2.523   1.137 -0.9497 -0.5533  0.5892
 3464TIP3    H232028   1.094   2.545   1.286  1.4344 -0.6240  0.5969
 3465TIP3   OH232029   4.792   4.799   1.645  0.0138  0.4392  0.8599
 3465TIP3    H132030   4.822   4.789   1.735  0.7884  1.6045  0.7575
 3465TIP3    H232031   4.807   4.713   1.604  0.6746  0.2152  1.5510
 3466TIP3   OH232032   5.321   6.341   6.707 -0.6480 -0.1842 -0.5311
 3466TIP3    H132033   5.343   6.336   6.800 -2.3361  0.0041 -0.0868
 3466TIP3    H232034   5.399   6.309   6.662  0.2135 -0.2386  0.9423
 3467TIP3   OH232035   1.757   4.707   7.824 -0.1500  0.6207 -0.2498
 3467TIP3    H132036   1.670   4.668   7.836 -0.0011  0.7962  1.6951
 3467TIP3    H232037   1.815   4.631   7.812 -0.5632  0.5094 -1.7199
 3468TIP3   OH232038   5.024   5.621   0.818 -0.4819  0.2268  0.6533
 3468TIP3    H132039   5.003   5.708   0.783 -2.9700 -1.2333 -1.8884
 3468TIP3    H232040   5.115   5.606   0.792  0.0231  2.0296  1.2067
 3469TIP3   OH232041   3.523   3.565   2.731  0.1730 -0.4282 -0.0451
 3469TIP3    H132042   3.471   3.599   2.658 -0.1163  1.3645  0.9220
 3469TIP3    H232043   3.597   3.625   2.738  1.3025 -1.7648 -0.1111
 3470TIP3   OH232044   3.875   0.375   0.470  0.2074 -0.3778 -0.2908
 3470TIP3    H132045   3.837   0.446   0.521  0.0204 -0.8859  0.2947
 3470TIP3    H232046   3.962   0.361   0.508  1.5359  1.5606 -2.3705
 3471TIP3   OH232047   0.836   0.215   8.965  0.4647  0.7692 -0.2177
 3471TIP3    H132048   0.794   0.300   8.953  1.1727  1.0765 -0.6113
 3471TIP3    H232049   0.926   0.228   8.936  0.8310  0.1177  0.5772
 3472TIP3   OH232050   5.364   5.687   1.398 -0.4883 -0.2969 -0.0062
 3472TIP3    H132051   5.346   5.725   1.312 -2.1606 -0.4586  0.2374
 3472TIP3    H232052   5.357   5.762   1.458 -0.7210 -0.4302  0.1345
 3473TIP3   OH232053   2.376   1.387   0.185 -0.7531 -0.2178  0.6797
 3473TIP3    H132054   2.340   1.471   0.212 -0.1134 -0.5925  2.8735
 3473TIP3    H232055   2.331   1.323   0.241  2.2997 -0.8256  2.6753
 3474TIP3   OH232056   3.463   3.217   1.396 -0.3436 -0.3880 -0.4038
 3474TIP3    H132057   3.414   3.135   1.394 -1.3926  0.0997  1.9117
 3474TIP3    H232058   3.545   3.196   1.440 -0.0884 -0.4133 -0.8785
 3475TIP3   OH232059   1.556   1.761   0.666  0.5481  0.1838 -0.7347
 3475TIP3    H132060   1.632   1.717   0.704  0.1338  0.3054  0.2686
 3475TIP3    H232061   1.592   1.814   0.595  1.4039  0.2556 -0.2632
 3476TIP3   OH232062   0.203   6.264   2.251  0.1735  0.3886 -0.8368
 3476TIP3    H132063   0.294   6.238   2.237  0.4915  0.3088  1.0742
 3476TIP3    H232064   0.201   6.358   2.235  0.2709  0.1728 -2.2151
 3477TIP3   OH232065   1.219   0.783   1.913  0.1484 -0.1113 -0.0640
 3477TIP3    H132066   1.299   0.756   1.958  1.0899  3.0532  0.3573
 3477TIP3    H232067   1.154   0.794   1.982 -0.0149 -0.5283 -0.1477
 3478TIP3   OH232068   3.148   6.326   7.445  0.3002 -0.2426 -0.6065
 3478TIP3    H132069   3.091   6.257   7.409 -0.3932  1.2624 -2.5985
 3478TIP3    H232070   3.101   6.358   7.521 -0.0165 -1.0757 -0.4401
 3479TIP3   OH232071   4.301   4.130   6.733 -0.0714 -0.1024 -0.6094
 3479TIP3    H132072   4.360   4.055   6.738  4.0995  2.8727  0.1669
 3479TIP3    H232073   4.293   4.149   6.640 -0.6753 -1.0700 -0.7735
 3480TIP3   OH232074   3.400   6.727   0.752  0.1551 -0.1115  0.1223
 3480TIP3    H132075   3.385   6.791   0.822 -0.7874  0.3575 -0.4874
 3480TIP3    H232076   3.427   6.647   0.797 -1.2301 -0.0643  1.0981
 3481TIP3   OH232077   1.332   1.279   1.019 -0.0759 -0.6708  0.2775
 3481TIP3    H132078   1.300   1.368   1.005 -2.5884 -1.7503 -1.4980
 3481TIP3    H232079   1.279   1.246   1.092  1.4606 -0.4968  1.5277
 3482TIP3   OH232080   4.528   2.739   7.840 -0.6217  0.6085 -0.5479
 3482TIP3    H132081   4.596   2.782   7.893  1.3605 -0.8327 -1.7870
 3482TIP3    H232082   4.528   2.787   7.757 -0.2624 -0.1267 -0.9808
 3483TIP3   OH232083   0.801   6.626   0.352 -0.5236  0.3975  0.3187
 3483TIP3    H132084   0.799   6.670   0.267  1.8556 -1.8469 -1.0314
 3483TIP3    H232085   0.888   6.644   0.387  0.5706 -3.0068 -0.2958
 3484TIP3   OH232086   5.934   2.867   7.889  0.1035 -0.5396 -0.1036
 3484TIP3    H132087   5.946   2.782   7.933 -0.6314 -0.4913  0.2089
 3484TIP3    H232088   6.022   2.894   7.864  0.3550 -1.3545 -0.1246
 3485TIP3   OH232089   6.515   3.889   0.966  0.1396 -0.4104  0.2089
 3485TIP3    H132090   6.569   3.813   0.945  0.8214  0.1042  0.0474
 3485TIP3    H232091   6.515   3.941   0.885 -0.1255 -0.1240  0.3929
 3486TIP3   OH232092   0.873   4.653   7.937 -0.3185 -0.0873  0.1816
 3486TIP3    H132093   0.920   4.673   8.018  0.1683 -0.4859  0.0007
 3486TIP3    H232094   0.797   4.602   7.965  0.5326 -1.3358  0.2787
 3487TIP3   OH232095   5.586   5.404   1.648  0.2036  0.1979 -0.4306
 3487TIP3    H132096   5.583   5.487   1.696  1.6322  0.4872 -0.8059
 3487TIP3    H232097   5.525   5.417   1.575  0.3502  0.8853 -0.4400
 3488TIP3   OH232098   2.201   3.479   1.324  0.2501 -0.2640  0.5849
 3488TIP3    H132099   2.295   3.491   1.337  0.5283 -0.5501 -0.9598
 3488TIP3    H232100   2.181   3.399   1.374  0.6683  0.1827  1.4990
 3489TIP3   OH232101   6.226   4.208   6.453  0.4258  0.0196  0.2625
 3489TIP3    H132102   6.286   4.283   6.460  1.6158 -0.7246 -1.2174
 3489TIP3    H232103   6.269   4.150   6.390 -0.0259 -2.3479  2.0370
 3490TIP3   OH232104   1.710   2.405   0.000  0.2462  0.3975  0.3618
 3490TIP3    H132105   1.651   2.341  -0.039  1.4611  0.8745 -2.4803
 3490TIP3    H232106   1.684   2.489  -0.038 -0.8877  1.6425  3.5132
 3491TIP3   OH232107   2.592   5.439   7.466 -0.0093  0.4178 -0.3350
 3491TIP3    H132108   2.668   5.386   7.446 -0.9022 -1.2266  0.4453
 3491TIP3    H232109   2.524   5.376   7.490 -1.2194  1.8937  0.3030
 3492TIP3   OH232110   4.011   1.248   7.625  0.4794  0.2156 -0.3152
 3492TIP3    H132111   3.928   1.223   7.666 -0.4837  0.5823 -1.9345
 3492TIP3    H232112   4.078   1.208   7.680 -0.7815 -0.4684  0.7936
 3493TIP3   OH232113   0.928   5.705   8.486  0.4040 -0.1922  0.1125
 3493TIP3    H132114   0.851   5.761   8.494 -0.7781 -1.8732  1.0651
 3493TIP3    H232115   0.950   5.708   8.393 -0.2506  1.0213 -0.0260
 3494TIP3   OH232116   0.829   6.105   0.510 -0.3297  0.1107 -0.6013
 3494TIP3    H132117   0.811   6.107   0.416  0.7066 -2.3063 -0.9069
 3494TIP3    H232118   0.745   6.126   0.550 -1.0130  0.2664 -2.0462
 3495TIP3   OH232119   5.882   3.599   7.664  0.4055 -0.2905  0.0187
 3495TIP3    H132120   5.796   3.609   7.706  0.6675  2.1660  0.0917
 3495TIP3    H232121   5.862   3.575   7.574 -0.3894  0.5629 -0.0478
 3496TIP3   OH232122   0.102   3.769   7.890 -0.2244  0.2820  0.2171
 3496TIP3    H132123   0.030   3.823   7.924 -2.2837 -1.7059 -0.6779
 3496TIP3    H232124   0.105   3.694   7.950 -1.0453 -1.1628 -1.4635
 3497TIP3   OH232125   1.131   3.182   2.359 -0.1033  0.2236  0.0897
 3497TIP3    H132126   1.212   3.135   2.337  0.0381  0.3521  0.3269
 3497TIP3    H232127   1.071   3.113   2.387  0.1128  0.1815  0.4628
 3498TIP3   OH232128   3.528   3.612   0.629 -0.3414  0.6467 -0.5799
 3498TIP3    H132129   3.475   3.616   0.709  1.2896 -1.4974  0.7082
 3498TIP3    H232130   3.464   3.600   0.559 -1.7081  0.9787  0.5641
 3499TIP3   OH232131   3.659   1.569   1.903 -0.1489  0.1715  0.0128
 3499TIP3    H132132   3.726   1.500   1.906 -0.4432 -0.2233 -1.7552
 3499TIP3    H232133   3.591   1.538   1.962  0.9554  0.3344  1.4479
 3500TIP3   OH232134   2.742   4.408   0.604  0.0737  0.4484  0.2663
 3500TIP3    H132135   2.699   4.394   0.520 -1.3456 -1.8999  1.2834
 3500TIP3    H232136   2.830   4.438   0.581  0.0573 -1.0714 -2.1147
 3501TIP3   OH232137   0.365   3.027   7.479  0.8165 -0.9733 -0.5210
 3501TIP3    H132138   0.441   3.083   7.492 -0.3731  0.6819 -0.4388
 3501TIP3    H232139   0.291   3.079   7.511 -0.4821 -2.1293 -1.5412
 3502TIP3   OH232140   5.137   1.111   8.158  0.1705  0.3997  0.7942
 3502TIP3    H132141   5.133   1.024   8.120  0.9745  0.5819  0.2520
 3502TIP3    H232142   5.119   1.098   8.251 -0.6720 -0.2064  0.5469
 3503TIP3   OH232143   2.444   1.588   0.708  0.3748  0.2716 -0.4096
 3503TIP3    H132144   2.388   1.538   0.767  1.9416 -0.2048  0.7564
 3503TIP3    H232145   2.416   1.561   0.620 -0.5265 -0.7125  0.1517
 3504TIP3   OH232146   5.255   6.134   1.502  0.1441  0.3135 -0.3080
 3504TIP3    H132147   5.183   6.189   1.535 -0.4880 -0.0012 -1.1114
 3504TIP3    H232148   5.211   6.065   1.452  1.0349  0.6133 -1.5627
 3505TIP3   OH232149   5.470   6.672   8.106 -0.4081  0.0519  0.1280
 3505TIP3    H132150   5.484   6.678   8.012  0.5192  0.7385  0.2971
 3505TIP3    H232151   5.455   6.579   8.123  0.9576 -0.2975 -0.4886
 3506TIP3   OH232152   4.826   4.460   0.127  0.0464  0.3839  0.0958
 3506TIP3    H132153   4.872   4.391   0.079  1.1635  0.6418  0.7773
 3506TIP3    H232154   4.886   4.534   0.128 -2.4360  2.7978 -3.7579
 3507TIP3   OH232155   1.787   2.444   0.865 -0.4567 -0.0308 -0.2764
 3507TIP3    H132156   1.857   2.415   0.924  0.7864  0.2135 -1.5825
 3507TIP3    H232157   1.706   2.428   0.914  0.4886 -0.5886  1.1609
 3508TIP3   OH232158   2.722   2.621   6.135  0.5528 -0.4190 -0.2493
 3508TIP3    H132159   2.777   2.568   6.193 -0.6615 -0.6959  0.6723
 3508TIP3    H232160   2.744   2.712   6.158  0.7423 -0.5277  0.0009
 3509TIP3   OH232161   3.304   4.275   8.817 -0.0577 -0.2856  0.2989
 3509TIP3    H132162   3.361   4.297   8.744  1.3706  0.5963  1.6062
 3509TIP3    H232163   3.226   4.238   8.777  0.9477 -0.4333 -1.6147
 3510TIP3   OH232164   6.525   1.052   0.093 -0.3221  0.1013 -0.3564
 3510TIP3    H132165   6.577   1.100   0.029  0.0424  1.6969  1.0610
 3510TIP3    H232166   6.490   1.119   0.151 -0.1207 -1.3187  1.5079
 3511TIP3   OH232167   1.091   1.372   1.125  0.0463 -0.4681 -0.1552
 3511TIP3    H132168   1.028   1.366   1.053  1.0109 -0.7321 -1.0145
 3511TIP3    H232169   1.045   1.420   1.194 -0.5692  0.7512 -1.3549
 3512TIP3   OH232170   1.225   1.168   1.687 -0.3780 -0.4655 -0.1303
 3512TIP3    H132171   1.173   1.132   1.759 -0.0061  0.4937  0.6482
 3512TIP3    H232172   1.229   1.262   1.706 -0.8334 -0.0854 -1.7791
 3513TIP3   OH232173   0.823   2.496   0.856 -0.4037  0.5393  0.2233
 3513TIP3    H132174   0.751   2.446   0.817  0.2293 -1.0472  1.0083
 3513TIP3    H232175   0.856   2.440   0.926  1.4545  1.3237  0.0327
 3514TIP3   OH232176   2.044   5.292   7.587  0.3039  0.5830 -0.8616
 3514TIP3    H132177   2.078   5.222   7.531 -0.0230 -1.6873  1.5370
 3514TIP3    H232178   1.951   5.295   7.568 -0.2247 -1.7095  0.8981
 3515TIP3   OH232179   4.272   2.792   2.034  0.0147  0.2475  0.3549
 3515TIP3    H132180   4.205   2.764   2.097 -1.2134  0.5934 -0.7387
 3515TIP3    H232181   4.315   2.711   2.007 -0.2266 -0.0318  0.7886
 3516TIP3   OH232182   5.212   1.033   2.398  0.0622 -0.1470  0.5579
 3516TIP3    H132183   5.167   1.116   2.412  1.6467  0.4372  2.5766
 3516TIP3    H232184   5.188   1.008   2.309 -0.3409  2.5405 -0.1685
 3517TIP3   OH232185   4.281   0.118   7.717  0.6232  0.0858 -0.3047
 3517TIP3    H132186   4.348   0.074   7.769  1.5582  0.5912 -1.0322
 3517TIP3    H232187   4.321   0.203   7.695 -0.6845  0.8444  0.1340
 3518TIP3   OH232188   3.583   1.050   0.204  0.2539  0.0928  0.3555
 3518TIP3    H132189   3.595   1.132   0.252  0.6505 -0.0991  0.5933
 3518TIP3    H232190   3.495   1.021   0.226  0.5957 -0.2391  1.3568
 3519TIP3   OH232191   2.556   6.046   0.699 -0.4454  0.5799  0.5950
 3519TIP3    H132192   2.466   6.071   0.680  0.1322  1.5162 -1.1622
 3519TIP3    H232193   2.569   5.964   0.652  0.4792  2.0304 -1.8829
 3520TIP3   OH232194   4.500   6.362   2.202 -0.6100 -0.1944  0.3732
 3520TIP3    H132195   4.502   6.445   2.154 -0.4064  0.2833  1.1818
 3520TIP3    H232196   4.430   6.373   2.266 -0.7416 -0.7433  0.3318
 3521TIP3   OH232197   6.399   3.720   0.107 -0.6755  0.3517 -0.2593
 3521TIP3    H132198   6.415   3.814   0.101 -1.1966  0.5404  0.9535
 3521TIP3    H232199   6.440   3.683   0.029  2.5084  1.2038  0.8721
 3522TIP3   OH232200   1.689   0.963   1.073 -0.3039 -0.9287  0.0735
 3522TIP3    H132201   1.628   0.901   1.034 -0.7437 -0.3414 -0.1850
 3522TIP3    H232202   1.773   0.918   1.071  0.3216 -0.0122 -4.0563
 3523TIP3   OH232203   2.678   5.016   8.036  0.1365 -0.0491 -0.1422
 3523TIP3    H132204   2.738   4.941   8.037  1.3469  0.8268 -2.0414
 3523TIP3    H232205   2.628   5.006   7.955 -0.2586  0.7860 -0.0123
 3524TIP3   OH232206   1.987   6.294   8.839 -0.3459 -0.8066 -0.5421
 3524TIP3    H132207   1.952   6.375   8.803  0.8568  0.7861  1.6337
 3524TIP3    H232208   1.920   6.264   8.901  0.3481  0.1106  0.7116
 3525TIP3   OH232209   0.799   0.126   6.789 -0.5277 -0.0406  0.2408
 3525TIP3    H132210   0.756   0.164   6.866 -0.2369  1.9831 -0.5195
 3525TIP3    H232211   0.729   0.117   6.724 -0.4238  0.0857  0.1101
 3526TIP3   OH232212   2.037   5.494   8.293  0.4264  0.2030  0.0840
 3526TIP3    H132213   1.995   5.515   8.376 -2.2787 -1.4801 -0.7020
 3526TIP3    H232214   2.047   5.578   8.249 -1.3286  0.7932  0.7373
 3527TIP3   OH232215   4.278   5.603   1.457  0.3517  0.1186  0.3673
 3527TIP3    H132216   4.287   5.518   1.499 -0.8057 -0.0367  0.3362
 3527TIP3    H232217   4.222   5.587   1.381  0.8956  0.7411 -0.1807
 3528TIP3   OH232218   6.315   6.548   1.045  0.2311  0.5986 -0.0807
 3528TIP3    H132219   6.280   6.576   1.129  1.0302 -0.1227  0.4995
 3528TIP3    H232220   6.243   6.501   1.003 -0.1746  0.9802  0.1848
 3529TIP3   OH232221   4.880   3.272   0.790  0.3748  0.3268  0.5151
 3529TIP3    H132222   4.943   3.201   0.777 -1.8202 -1.4328 -1.7082
 3529TIP3    H232223   4.918   3.347   0.745  0.4202 -1.0867 -2.0304
 3530TIP3   OH232224   2.871   3.380   6.987 -0.4358  0.2473  0.0384
 3530TIP3    H132225   2.914   3.296   7.006  1.0572  1.0174  0.2268
 3530TIP3    H232226   2.912   3.410   6.906  0.9829  1.9966  1.3265
 3531TIP3   OH232227   4.779   0.816   2.090 -0.2625 -0.3313  0.3054
 3531TIP3    H132228   4.800   0.890   2.034  1.4971 -0.0913  1.2124
 3531TIP3    H232229   4.808   0.739   2.041  0.3323 -0.1975  0.4337
 3532TIP3   OH232230   3.924   2.076   7.379  0.4788 -0.9206 -0.5669
 3532TIP3    H132231   3.897   2.152   7.430 -0.6116 -0.3931 -1.8473
 3532TIP3    H232232   3.948   2.010   7.444 -0.4124 -0.1278  0.6037
 3533TIP3   OH232233   1.840   6.745   7.394  0.0627 -0.2746 -0.6633
 3533TIP3    H132234   1.810   6.697   7.316 -0.0961  0.6565 -1.1856
 3533TIP3    H232235   1.771   6.808   7.412  0.0140 -0.5939  0.3555
 3534TIP3   OH232236   3.102   3.567   6.449 -0.1704 -0.8036  0.4474
 3534TIP3    H132237   3.193   3.537   6.456 -0.1409 -0.8728 -0.1549
 3534TIP3    H232238   3.100   3.650   6.497  0.7591  0.3556 -1.3762
 3535TIP3   OH232239   2.778   5.581   8.511 -0.5355  0.3094 -0.4798
 3535TIP3    H132240   2.748   5.652   8.567  1.4216  0.5908  0.2970
 3535TIP3    H232241   2.839   5.623   8.450  1.3186 -0.7591  0.5413
 3536TIP3   OH232242   3.609   4.921   8.874 -0.1538  0.2423 -0.6394
 3536TIP3    H132243   3.524   4.890   8.905 -0.1421  2.1502  1.5646
 3536TIP3    H232244   3.588   4.982   8.803 -0.4600 -0.6514 -1.3466
 3537TIP3   OH232245   5.177   0.969   8.987 -0.3597 -0.4902  0.3261
 3537TIP3    H132246   5.132   1.032   8.931 -2.5951 -2.4293 -0.2186
 3537TIP3    H232247   5.270   0.980   8.966 -0.8044  1.6035 -0.7688
 3538TIP3   OH232248   3.971   0.796   0.673 -0.3167 -0.1145  0.3075
 3538TIP3    H132249   3.968   0.889   0.695 -1.1054  0.1679 -0.9026
 3538TIP3    H232250   3.985   0.794   0.579 -0.7162 -1.2139  0.2603
 3539TIP3   OH232251   3.144   4.678   7.707 -0.3729  0.0363 -0.0285
 3539TIP3    H132252   3.082   4.724   7.763 -0.4225 -0.0074 -0.0465
 3539TIP3    H232253   3.201   4.631   7.767 -0.8671 -0.5834 -0.0211
 3540TIP3   OH232254   2.814   4.579   7.240 -0.0298  0.2047  0.8249
 3540TIP3    H132255   2.721   4.562   7.229 -0.1087  0.8317  0.4503
 3540TIP3    H232256   2.852   4.561   7.154  0.2838 -0.5298  1.1017
 3541TIP3   OH232257   2.996   0.543   0.664  0.3880 -0.3292 -0.6931
 3541TIP3    H132258   3.079   0.496   0.655  0.6901 -0.3498  1.6141
 3541TIP3    H232259   2.990   0.563   0.757 -2.0802 -0.0926 -0.8373
 3542TIP3   OH232260   6.246   5.657   8.467  0.0561 -0.1919 -0.0050
 3542TIP3    H132261   6.310   5.637   8.397 -1.0407  1.1347 -1.4518
 3542TIP3    H232262   6.162   5.658   8.422 -0.6290  1.2434  1.2374
 3543TIP3   OH232263   4.219   2.693   0.087  0.0670  0.3522  0.5697
 3543TIP3    H132264   4.196   2.724   0.175 -1.0681  0.4293  0.2533
 3543TIP3    H232265   4.162   2.742   0.028  0.0061 -0.5437 -0.1337
 3544TIP3   OH232266   3.770   2.071   1.225 -0.0371  0.0535  0.3464
 3544TIP3    H132267   3.777   1.976   1.222  0.0055  0.0897 -1.1582
 3544TIP3    H232268   3.858   2.101   1.248  0.2933 -0.2273 -0.5243
 3545TIP3   OH232269   3.671   6.226   1.604  0.5290 -0.4938  0.4221
 3545TIP3    H132270   3.649   6.317   1.622 -0.3417 -0.2288 -1.7512
 3545TIP3    H232271   3.748   6.209   1.658  0.0857  1.1857  1.6735
 3546TIP3   OH232272   4.887   1.447   0.941 -0.6187 -0.0596  0.0708
 3546TIP3    H132273   4.795   1.460   0.963 -1.6716 -3.8922 -1.3202
 3546TIP3    H232274   4.906   1.358   0.970  2.5027  0.3935 -0.2786
 3547TIP3   OH232275   4.919   0.311   0.660 -0.1118 -0.0878 -0.0083
 3547TIP3    H132276   4.837   0.262   0.665 -0.4929  0.6502  1.1453
 3547TIP3    H232277   4.987   0.246   0.680 -0.5085 -0.4460  0.1814
 3548TIP3   OH232278   2.979   1.298   7.673  0.2594 -0.0114 -0.0472
 3548TIP3    H132279   3.023   1.307   7.588  0.7822  0.3065  0.2459
 3548TIP3    H232280   3.047   1.263   7.731 -0.1238 -0.3198  0.2141
 3549TIP3   OH232281   5.960   1.525   8.960 -0.2628  0.4171  0.4380
 3549TIP3    H132282   5.977   1.560   8.873  0.1224  1.3375  0.8765
 3549TIP3    H232283   5.865   1.529   8.970 -0.5611 -1.7919 -0.7891
 3550TIP3   OH232284   3.292   3.810   6.480 -0.0254  0.3103 -0.1099
 3550TIP3    H132285   3.237   3.840   6.408 -0.3268  0.3185  0.1191
 3550TIP3    H232286   3.316   3.720   6.457  1.2984  0.8914 -1.0407
 3551TIP3   OH232287   2.544   6.755   8.893  0.1869  0.4959 -0.0972
 3551TIP3    H132288   2.543   6.696   8.818  1.5751 -0.9147  0.9406
 3551TIP3    H232289   2.468   6.729   8.946  0.1989  0.3370 -0.1587
 3552TIP3   OH232290   1.618   6.082   0.754 -0.0514  0.7037 -0.0961
 3552TIP3    H132291   1.618   6.046   0.665 -0.1527  1.0539 -0.2435
 3552TIP3    H232292   1.526   6.102   0.771  0.0067  0.9225 -0.0342
 3553TIP3   OH232293   1.676   2.943   7.457  0.1694  0.6478 -0.0522
 3553TIP3    H132294   1.695   2.954   7.551  0.1877  0.6860 -0.0601
 3553TIP3    H232295   1.587   2.976   7.447 -0.3640 -0.6482  0.2068
 3554TIP3   OH232296   4.082   5.567   1.258 -0.3106 -0.5426  0.4294
 3554TIP3    H132297   4.090   5.508   1.183  2.7373 -1.3553  1.2325
 3554TIP3    H232298   4.102   5.653   1.223  1.0724 -0.9149  0.2234
 3555TIP3   OH232299   6.065   4.935   1.888  0.0392  0.2235  0.2096
 3555TIP3    H132300   6.047   4.967   1.977  1.0536  1.2916  0.0523
 3555TIP3    H232301   6.099   5.012   1.842 -1.5767  0.0102 -1.4585
 3556TIP3   OH232302   0.683   1.717   0.358  0.0301  0.2839 -0.0728
 3556TIP3    H132303   0.659   1.729   0.266 -1.0914 -0.8171  0.0557
 3556TIP3    H232304   0.599   1.715   0.404  0.5815  0.7638  0.9803
 3557TIP3   OH232305   1.009   0.566   1.110  0.3086  0.0727 -0.4689
 3557TIP3    H132306   1.093   0.581   1.153  0.8546 -1.0287 -1.1031
 3557TIP3    H232307   0.982   0.652   1.078  1.5088  0.3379 -0.8142
 3558TIP3   OH232308   4.552   0.626   1.858 -0.4237 -0.3713 -0.1955
 3558TIP3    H132309   4.552   0.564   1.931 -1.3136 -2.1684 -1.6409
 3558TIP3    H232310   4.468   0.671   1.864 -0.8835 -1.1517 -0.5819
 3559TIP3   OH232311   2.779   6.119   0.170  1.0774 -0.7467 -0.7200
 3559TIP3    H132312   2.824   6.085   0.248 -1.1787  0.4598  1.2403
 3559TIP3    H232313   2.806   6.210   0.164 -0.8020 -0.0582  0.3737
 3560TIP3   OH232314   5.412   5.895   1.212  0.5365 -0.4396  0.4781
 3560TIP3    H132315   5.335   5.946   1.238  1.6600  1.8961 -0.3880
 3560TIP3    H232316   5.389   5.861   1.125  0.0141 -0.8388  0.7699
 3561TIP3   OH232317   0.913   1.358   1.518 -0.0668  0.0899  0.0142
 3561TIP3    H132318   0.951   1.343   1.604  1.5153  1.5882 -0.3566
 3561TIP3    H232319   0.956   1.295   1.461 -0.1009  0.0184  0.0671
 3562TIP3   OH232320   5.308   2.927   0.064  0.4525 -0.2137  0.0276
 3562TIP3    H132321   5.342   3.015   0.049 -0.0956 -0.3822 -2.8538
 3562TIP3    H232322   5.284   2.895  -0.023  2.5410 -4.0382  0.6389
 3563TIP3   OH232323   2.428   0.677   0.718  0.1692 -0.3014  0.3070
 3563TIP3    H132324   2.477   0.597   0.735 -0.6783 -0.6952  1.0196
 3563TIP3    H232325   2.456   0.705   0.631  1.9799 -0.2479  0.8739
 3564TIP3   OH232326   4.040   3.164   1.050  0.2793 -0.0758 -0.0179
 3564TIP3    H132327   3.973   3.101   1.076 -0.7970  0.8560 -0.4342
 3564TIP3    H232328   4.012   3.193   0.963  0.5476  1.2138  0.3098
 3565TIP3   OH232329   0.667   4.096   2.209 -0.0985  0.0291 -0.1513
 3565TIP3    H132330   0.740   4.136   2.256  0.3714 -0.3610 -0.5367
 3565TIP3    H232331   0.630   4.168   2.158  1.7632 -0.2990 -2.1280
 3566TIP3   OH232332   0.314   1.071   0.932  0.5580 -0.4196  0.3585
 3566TIP3    H132333   0.245   1.113   0.982  1.6774  0.1459  1.4948
 3566TIP3    H232334   0.332   0.990   0.980  2.5079  0.7170  1.7356
 3567TIP3   OH232335   3.363   2.413   0.450 -1.5025  0.0131  0.5163
 3567TIP3    H132336   3.301   2.475   0.413 -1.0941 -0.5295 -1.1668
 3567TIP3    H232337   3.324   2.327   0.434 -1.0705 -0.2636  0.9124
 3568TIP3   OH232338   2.892   1.460   8.673  0.5600 -0.1064 -0.1925
 3568TIP3    H132339   2.908   1.538   8.725  0.8607  0.5456 -1.2220
 3568TIP3    H232340   2.823   1.485   8.612  1.5681 -0.1979 -1.4121
 3569TIP3   OH232341   0.248   4.491   7.199 -0.2828  0.0156  0.0741
 3569TIP3    H132342   0.297   4.450   7.127 -0.5520  0.3593 -0.3105
 3569TIP3    H232343   0.161   4.508   7.162 -0.2642  0.6584  0.3157
 3570TIP3   OH232344   5.510   1.179   8.577 -0.1073  0.4791  0.4404
 3570TIP3    H132345   5.480   1.198   8.665  2.0794 -3.0097  2.1960
 3570TIP3    H232346   5.600   1.213   8.574 -0.8041  2.4011 -1.3061
 3571TIP3   OH232347   5.726   5.303   7.043 -0.1743  0.1052  0.1944
 3571TIP3    H132348   5.775   5.240   6.990 -2.1490  0.1829 -1.9008
 3571TIP3    H232349   5.735   5.386   6.996 -0.6556  0.5579  0.8851
 3572TIP3   OH232350   2.632   2.974   8.076 -0.5283  0.1078 -0.6946
 3572TIP3    H132351   2.665   2.886   8.057 -0.4947 -0.2311  0.7938
 3572TIP3    H232352   2.702   3.016   8.126 -1.0056  0.5627 -0.3944
 3573TIP3   OH232353   5.449   3.186   0.164 -0.3140  0.2522 -0.2344
 3573TIP3    H132354   5.452   3.281   0.180  1.4830  0.0898  0.6851
 3573TIP3    H232355   5.413   3.178   0.076 -0.4175  1.7975 -0.3682
 3574TIP3   OH232356   3.139   4.551   8.465 -0.2029 -0.2230 -0.3647
 3574TIP3    H132357   3.065   4.611   8.469 -1.3419 -1.4360 -1.9460
 3574TIP3    H232358   3.099   4.464   8.457  1.3388 -0.8507 -1.9880
 3575TIP3   OH232359   4.252   2.748   0.364 -0.2207 -0.2406  0.6297
 3575TIP3    H132360   4.217   2.727   0.451 -3.1265  1.5268  0.0132
 3575TIP3    H232361   4.267   2.842   0.366 -2.2289  0.1947 -1.3130
 3576TIP3   OH232362   4.282   1.602   0.375 -0.0721 -0.2975  0.0636
 3576TIP3    H132363   4.206   1.564   0.421  0.5130  0.0518  1.3633
 3576TIP3    H232364   4.321   1.528   0.329  0.9842 -1.3485  2.4731
 3577TIP3   OH232365   6.083   5.974   7.654  0.1431 -0.1776 -0.0494
 3577TIP3    H132366   6.130   5.893   7.675  0.4824  0.4324  1.7889
 3577TIP3    H232367   5.992   5.954   7.674  0.1365 -0.2943 -0.1935
 3578TIP3   OH232368   5.982   2.817   0.712 -0.5592 -0.0371 -0.4360
 3578TIP3    H132369   6.034   2.895   0.693  0.4337 -0.6022 -0.0932
 3578TIP3    H232370   5.904   2.851   0.757 -0.6668  0.8448 -1.2464
 3579TIP3   OH232371   0.093   6.419   0.475 -0.7687  0.0988  0.0426
 3579TIP3    H132372   0.189   6.420   0.477 -0.7697 -0.4979  0.5332
 3579TIP3    H232373   0.068   6.361   0.546 -1.3973 -3.2524 -2.6485
 3580TIP3   OH232374   3.673   0.850   7.297 -0.4756 -0.1750 -0.0653
 3580TIP3    H132375   3.653   0.855   7.204 -0.9953  1.5154  0.1048
 3580TIP3    H232376   3.615   0.914   7.338  0.1059 -0.5143  1.3544
 3581TIP3   OH232377   5.570   6.227   0.880  0.4033 -0.0055 -0.1153
 3581TIP3    H132378   5.649   6.192   0.920 -0.6241 -2.0835  0.2475
 3581TIP3    H232379   5.547   6.302   0.934  1.1840 -0.4176  0.8165
 3582TIP3   OH232380   3.639   3.050   7.443 -0.3546 -0.5432 -0.1719
 3582TIP3    H132381   3.681   3.013   7.366  0.2241 -1.9264  0.7656
 3582TIP3    H232382   3.711   3.066   7.504 -0.8386  0.2079  0.2094
 3583TIP3   OH232383   6.574   6.076   0.962 -0.1327  0.2405  0.3072
 3583TIP3    H132384   6.582   6.005   1.026 -0.3439 -1.7559 -1.7482
 3583TIP3    H232385   6.480   6.086   0.949 -0.0830 -0.4148 -0.7121
 3584TIP3   OH232386   0.943   3.514   7.947  0.3987 -0.3155 -0.2052
 3584TIP3    H132387   0.925   3.505   7.854  0.3229  1.6573 -0.4053
 3584TIP3    H232388   0.944   3.608   7.963  0.9803 -0.5995  1.6791
 3585TIP3   OH232389   1.675   0.546   1.146  0.4050  0.5101  0.1162
 3585TIP3    H132390   1.624   0.466   1.157  1.6452 -0.3931 -0.4239
 3585TIP3    H232391   1.621   0.615   1.185 -2.1051 -0.0267 -2.1675
 3586TIP3   OH232392   5.966   2.390   0.149  0.7346 -0.0386 -0.0519
 3586TIP3    H132393   5.968   2.297   0.172  0.6493  0.1109  0.5758
 3586TIP3    H232394   6.044   2.427   0.190  0.2068  0.3666  0.5975
 3587TIP3   OH232395   6.477   1.432   7.194  0.0582 -0.1161 -0.0560
 3587TIP3    H132396   6.533   1.460   7.121 -0.1239  0.9133  0.1848
 3587TIP3    H232397   6.388   1.450   7.165 -0.0419 -0.1163  0.2459
 3588TIP3   OH232398   1.339   4.005   1.116 -0.3070 -0.0859 -0.0133
 3588TIP3    H132399   1.354   4.089   1.072  1.1706 -0.1916  0.2464
 3588TIP3    H232400   1.392   4.010   1.196 -1.3863 -0.6908  0.7637
 3589TIP3   OH232401   0.002   3.846   7.469  0.0986 -0.2289  0.3202
 3589TIP3    H132402   0.049   3.889   7.398 -0.5874 -0.2474 -0.1528
 3589TIP3    H232403  -0.044   3.917   7.515 -0.0071 -0.2992  0.3244
 3590TIP3   OH232404   1.992   5.793   1.669  0.0139 -0.4333  0.1200
 3590TIP3    H132405   2.061   5.771   1.606  0.2255  0.2577  0.0948
 3590TIP3    H232406   1.916   5.812   1.614  0.5559  1.5019 -0.0640
 3591TIP3   OH232407   1.569   0.954   8.853  0.6574  0.3501 -0.1329
 3591TIP3    H132408   1.615   1.028   8.893 -0.8485  1.1770  0.1544
 3591TIP3    H232409   1.634   0.884   8.850  2.1179  1.6576 -0.3707
 3592TIP3   OH232410   4.648   1.196   8.789  0.7640 -0.0953  0.0974
 3592TIP3    H132411   4.563   1.156   8.811  0.2122  1.4615  0.9787
 3592TIP3    H232412   4.696   1.197   8.871  0.1857  2.2890  0.4892
 3593TIP3   OH232413   2.464   6.113   1.863 -0.3520  0.1595  0.3308
 3593TIP3    H132414   2.537   6.051   1.868 -0.9916 -0.5965  0.5248
 3593TIP3    H232415   2.398   6.077   1.922 -1.4437  0.0448 -0.9071
 3594TIP3   OH232416   2.880   5.588   0.919 -0.0782  0.3805  0.0457
 3594TIP3    H132417   2.825   5.661   0.892  0.3134  0.8869  0.5957
 3594TIP3    H232418   2.819   5.522   0.952 -0.3383  1.0765  0.9753
 3595TIP3   OH232419   0.660   3.441   7.762 -0.4514  0.0489  0.2479
 3595TIP3    H132420   0.620   3.455   7.848  1.7177  0.7919  1.1961
 3595TIP3    H232421   0.663   3.345   7.752  1.4172 -0.1643  2.1409
 3596TIP3   OH232422   1.448   5.051   0.326  0.1551  0.6132 -0.0267
 3596TIP3    H132423   1.465   5.032   0.419  1.9668  0.8742 -0.2684
 3596TIP3    H232424   1.515   5.001   0.279  0.0330  1.4596 -1.1266
 3597TIP3   OH232425   2.081   0.145   7.524 -0.2707  0.5115 -0.0921
 3597TIP3    H132426   2.076   0.053   7.497  0.0521  0.6526 -0.6536
 3597TIP3    H232427   2.040   0.193   7.452  1.5913  0.9919 -0.8935
 3598TIP3   OH232428   0.265   4.483   1.617  0.1438 -0.5140  0.3174
 3598TIP3    H132429   0.303   4.485   1.705  0.0036 -0.7637  0.3870
 3598TIP3    H232430   0.180   4.440   1.629 -0.5694  0.8454  0.3156
 3599TIP3   OH232431   5.998   5.044   0.132  0.0797 -0.0122  0.3758
 3599TIP3    H132432   6.077   4.994   0.152  0.8127  1.3790  1.1088
 3599TIP3    H232433   6.002   5.059   0.038  0.0620 -0.9605  0.2158
 3600TIP3   OH232434   5.733   3.778   7.877  0.2529 -0.2241  0.1224
 3600TIP3    H132435   5.640   3.785   7.899  0.2709  0.4182  0.0011
 3600TIP3    H232436   5.761   3.868   7.862  0.6486 -0.5049 -0.8763
 3601TIP3   OH232437   0.304   6.294   7.828 -0.6221 -0.1437  0.0368
 3601TIP3    H132438   0.293   6.236   7.903 -1.2263 -0.2994 -0.1710
 3601TIP3    H232439   0.216   6.309   7.795 -0.3023 -0.8118 -1.1989
 3602TIP3   OH232440   2.880   5.125   0.175 -0.1664 -0.2449 -0.2011
 3602TIP3    H132441   2.891   5.151   0.084  0.6475 -0.3220 -0.1272
 3602TIP3    H232442   2.859   5.032   0.172 -0.0510 -0.2670 -0.3001
 3603TIP3   OH232443   0.245   5.706   7.791 -0.0205  0.2719 -0.0577
 3603TIP3    H132444   0.278   5.653   7.719 -1.0978 -1.2626  0.5110
 3603TIP3    H232445   0.265   5.796   7.766  1.7276 -0.3574 -1.1563
 3604TIP3   OH232446   0.900   5.806   0.542  0.2240  0.5832  0.0491
 3604TIP3    H132447   0.970   5.796   0.478  1.2396 -0.5411  1.2691
 3604TIP3    H232448   0.893   5.900   0.555  3.4189  0.7505  1.7994
 3605TIP3   OH232449   6.573   2.574   7.110 -0.3837 -0.4337  0.1128
 3605TIP3    H132450   6.486   2.534   7.113 -0.6300  0.0435 -0.3650
 3605TIP3    H232451   6.571   2.629   7.032 -0.4979  1.4574  1.3765
 3606TIP3   OH232452   2.177   4.402   7.932  0.0388 -0.4081  0.4082
 3606TIP3    H132453   2.213   4.328   7.883  1.6881 -0.0553  1.0230
 3606TIP3    H232454   2.232   4.476   7.907  0.6071 -0.1114  2.3719
 3607TIP3   OH232455   0.788   6.304   0.163  0.2900  0.5087  0.4156
 3607TIP3    H132456   0.760   6.235   0.224 -0.2176  1.9211  1.8690
 3607TIP3    H232457   0.882   6.289   0.151 -0.3422 -2.5127 -2.1495
 3608TIP3   OH232458   4.178   3.073   8.556 -0.2789  0.5833 -0.2855
 3608TIP3    H132459   4.247   3.132   8.585 -1.0984  1.1792  0.5022
 3608TIP3    H232460   4.221   2.989   8.544  0.6104  0.9879  0.0189
 3609TIP3   OH232461   3.300   0.724   7.069  0.1057 -0.1483  0.2986
 3609TIP3    H132462   3.226   0.782   7.084  0.1643  0.2710 -0.9421
 3609TIP3    H232463   3.275   0.641   7.109 -0.3994  0.4238  1.1955
 3610TIP3   OH232464   6.552   0.849   0.572  0.0845 -0.1737  1.0280
 3610TIP3    H132465   6.562   0.823   0.480  2.4805 -1.0894  1.4823
 3610TIP3    H232466   6.500   0.929   0.568  0.3030 -0.0770 -1.1438
 3611TIP3   OH232467   5.025   2.590   7.882 -0.2371 -0.0181 -0.3153
 3611TIP3    H132468   4.962   2.636   7.825 -0.4016  0.3019  0.1250
 3611TIP3    H232469   4.974   2.564   7.958  0.5399  1.7768  0.8668
 3612TIP3   OH232470   0.123   4.966   7.878 -0.3712  0.0410  0.8287
 3612TIP3    H132471   0.181   4.890   7.880 -1.4631 -0.8174  1.7306
 3612TIP3    H232472   0.037   4.931   7.904 -0.6505  1.7709  2.5193
 3613TIP3   OH232473   2.546   4.503   2.156 -0.1046  0.1206  0.8366
 3613TIP3    H132474   2.624   4.560   2.158 -1.2832  1.8006  1.0257
 3613TIP3    H232475   2.483   4.551   2.101 -0.5346 -1.8847 -0.5115
 3614TIP3   OH232476   5.761   5.034   1.712  0.0105 -0.4343 -0.3778
 3614TIP3    H132477   5.729   5.062   1.798 -0.1655 -1.3276 -0.1434
 3614TIP3    H232478   5.805   4.951   1.729  2.3212  0.6466 -0.7276
 3615TIP3   OH232479   1.399   4.679   8.158  0.0074  1.1050  0.5154
 3615TIP3    H132480   1.379   4.606   8.099 -2.9190 -0.0130  2.6605
 3615TIP3    H232481   1.404   4.639   8.245  1.0677  3.1272  1.4604
 3616TIP3   OH232482   1.225   1.544   8.857 -0.4883  0.2235 -0.0763
 3616TIP3    H132483   1.305   1.492   8.861 -1.0279 -0.9013 -2.2612
 3616TIP3    H232484   1.235   1.608   8.927  1.0479 -1.6305  1.5305
 3617TIP3   OH232485   3.935   1.566   7.541 -0.3639  0.3723 -0.2207
 3617TIP3    H132486   3.976   1.635   7.489 -0.3171  1.2957  0.9883
 3617TIP3    H232487   3.974   1.485   7.509 -0.9332  0.8030 -2.1667
 3618TIP3   OH232488   6.179   3.062   7.523 -0.4105  0.0749 -0.0469
 3618TIP3    H132489   6.241   3.037   7.455 -0.7395 -0.9616  0.0167
 3618TIP3    H232490   6.093   3.044   7.485 -0.6371  0.6500  0.1890
 3619TIP3   OH232491   2.445   0.994   7.398 -0.2885 -0.2153 -0.0770
 3619TIP3    H132492   2.400   0.962   7.320 -0.7923  0.2616  0.0106
 3619TIP3    H232493   2.456   0.916   7.453 -0.7831 -0.3853 -0.2134
 3620TIP3   OH232494   4.193   3.779   7.297 -0.2472 -0.2581 -0.4494
 3620TIP3    H132495   4.215   3.772   7.389 -1.3888 -0.4447 -0.1697
 3620TIP3    H232496   4.097   3.778   7.295 -0.2759 -2.2054 -1.7538
 3621TIP3   OH232497   4.151   0.530   7.150  0.0857  0.2836 -0.2297
 3621TIP3    H132498   4.110   0.588   7.086  0.1042 -0.9720 -1.4241
 3621TIP3    H232499   4.081   0.509   7.212 -0.5117 -0.1403 -1.0343
 3622TIP3   OH232500   0.345   0.488   8.096 -0.2277 -0.0478  0.0469
 3622TIP3    H132501   0.289   0.456   8.167  1.0901 -1.1914  0.6181
 3622TIP3    H232502   0.285   0.530   8.034 -1.3147  2.0039  2.3387
 3623TIP3   OH232503   0.847   6.126   6.724  0.6075  0.0499  0.0124
 3623TIP3    H132504   0.904   6.203   6.733  1.6079 -0.8941  2.9634
 3623TIP3    H232505   0.777   6.155   6.665  1.4601  2.8927  0.2280
 3624TIP3   OH232506   6.548   4.992   7.125  0.2400 -1.0575 -0.1528
 3624TIP3    H132507   6.463   5.002   7.170  0.4249  1.2424 -0.1814
 3624TIP3    H232508   6.528   4.943   7.046 -0.9187 -1.3061  0.2753
 3625TIP3   OH232509   5.474   1.930   7.073 -0.3054 -0.0788 -0.1213
 3625TIP3    H132510   5.404   1.995   7.072 -1.4824 -1.3062  0.0430
 3625TIP3    H232511   5.432   1.851   7.106  0.7460 -1.3165 -1.6595
 3626TIP3   OH232512   0.557   3.300   0.865  0.1275 -0.6361 -0.8550
 3626TIP3    H132513   0.494   3.235   0.836 -2.2746  1.1981 -0.0781
 3626TIP3    H232514   0.565   3.361   0.791  0.2822 -0.3626 -0.6180
 3627TIP3   OH232515   3.498   0.097   8.497  0.5794  0.0404 -0.4746
 3627TIP3    H132516   3.428   0.039   8.526  0.6383  0.7381  1.1995
 3627TIP3    H232517   3.453   0.172   8.458  0.3272  0.7511  1.1092
 3628TIP3   OH232518   4.478   2.828   2.219  0.1205  0.4665 -0.5173
 3628TIP3    H132519   4.422   2.833   2.141  0.2353  1.1756 -0.5670
 3628TIP3    H232520   4.425   2.866   2.289  0.1225  0.0894 -0.3095
 3629TIP3   OH232521   5.136   5.962   2.019  0.0431 -0.5262 -0.1435
 3629TIP3    H132522   5.142   6.051   2.055  0.4826 -0.8457  0.6024
 3629TIP3    H232523   5.107   5.974   1.929  0.2671  0.3865 -0.1007
 3630TIP3   OH232524   0.497   2.560   2.184  0.3205 -0.6405  0.0601
 3630TIP3    H132525   0.423   2.590   2.238  0.5019  1.0692 -0.5847
 3630TIP3    H232526   0.503   2.466   2.202 -1.1970 -0.5758  1.1007
 3631TIP3   OH232527   3.518   4.953   0.719 -0.0796  0.5757 -0.0621
 3631TIP3    H132528   3.491   5.027   0.665  0.8866  1.9705  1.2486
 3631TIP3    H232529   3.586   4.909   0.668 -0.3917  0.8223 -0.6948
 3632TIP3   OH232530   6.240   0.147   0.134  0.5688 -0.3288  0.1828
 3632TIP3    H132531   6.295   0.223   0.152  0.2930 -0.1198  0.1577
 3632TIP3    H232532   6.198   0.127   0.218  2.7324 -2.1797  0.9057
 3633TIP3   OH232533   3.490   4.493   2.131  0.3407 -0.0277 -0.1307
 3633TIP3    H132534   3.470   4.578   2.171 -0.4524  0.6271 -1.7815
 3633TIP3    H232535   3.517   4.437   2.203  2.0728  1.9686  0.8728
 3634TIP3   OH232536   1.148   3.026   0.248 -0.5370 -0.1125  0.4758
 3634TIP3    H132537   1.112   2.975   0.175 -0.8436 -0.1836  0.6770
 3634TIP3    H232538   1.147   3.116   0.216  1.8667 -0.4065 -0.6596
 3635TIP3   OH232539   4.943   2.843   0.061 -0.1940 -0.3515  0.2892
 3635TIP3    H132540   4.866   2.852   0.117  0.2702  1.4671  0.7008
 3635TIP3    H232541   5.017   2.852   0.121  0.3152  1.2571 -0.5135
 3636TIP3   OH232542   2.205   3.316   8.876  0.3744 -0.0393  0.1417
 3636TIP3    H132543   2.121   3.280   8.906  0.5973 -0.6326  0.0452
 3636TIP3    H232544   2.196   3.320   8.781  0.3565  0.1638  0.1493
 3637TIP3   OH232545   0.588   2.784   2.051  0.5139 -0.8001 -0.6995
 3637TIP3    H132546   0.538   2.734   2.115  1.1469  1.6217  1.9338
 3637TIP3    H232547   0.679   2.776   2.080  0.6744  1.3903 -0.4248
 3638TIP3   OH232548   3.584   6.431   8.642  0.4517  0.3288 -0.1555
 3638TIP3    H132549   3.521   6.427   8.571 -0.1520  1.0451  0.3209
 3638TIP3    H232550   3.640   6.505   8.621  2.6850 -1.6821 -1.7878
 3639TIP3   OH232551   0.796   1.677   8.678 -0.5010  0.3255 -0.3422
 3639TIP3    H132552   0.797   1.766   8.642  1.8939  0.2336 -0.6298
 3639TIP3    H232553   0.882   1.641   8.657 -1.8189 -2.5543 -1.3922
 3640TIP3   OH232554   1.142   1.303   7.838 -0.2809  0.4757  1.0055
 3640TIP3    H132555   1.073   1.324   7.901  0.6221  0.9952  1.8524
 3640TIP3    H232556   1.224   1.315   7.887  0.4839  1.7822 -0.5117
 3641TIP3   OH232557   6.716   4.741   8.248  0.0644 -0.1592  0.2338
 3641TIP3    H132558   6.689   4.784   8.330 -0.8994 -1.1224  0.4571
 3641TIP3    H232559   6.759   4.660   8.277 -1.5418 -1.2237 -0.1690
 3642TIP3   OH232560   0.041   1.399   0.731  0.4449 -0.4409  0.8811
 3642TIP3    H132561  -0.011   1.462   0.782 -0.3198 -0.3839  0.0499
 3642TIP3    H232562   0.007   1.314   0.758 -0.2381 -0.3962  0.1862
 3643TIP3   OH232563   5.511   3.801   0.045 -0.3420  0.2528 -0.7912
 3643TIP3    H132564   5.440   3.737   0.049  0.5690 -0.7343 -0.0474
 3643TIP3    H232565   5.515   3.839   0.133  1.8000 -1.6861  0.0397
 3644TIP3   OH232566   4.921   4.300   1.783  0.2452 -0.9712 -0.4637
 3644TIP3    H132567   5.009   4.320   1.750 -0.2121  1.8736 -0.2306
 3644TIP3    H232568   4.909   4.358   1.858 -1.0211 -2.9717  0.9869
 3645TIP3   OH232569   5.629   2.805   8.211 -0.2538  0.3487 -0.5988
 3645TIP3    H132570   5.572   2.755   8.153  0.4107 -2.5824  1.0852
 3645TIP3    H232571   5.582   2.888   8.224 -1.8220 -0.0627 -2.8913
 3646TIP3   OH232572   5.495   5.552   8.774  0.9351  0.1057 -0.1956
 3646TIP3    H132573   5.525   5.629   8.822  1.9528  0.3573 -1.1900
 3646TIP3    H232574   5.426   5.585   8.716  0.8768  0.1172 -0.1217
 3647TIP3   OH232575   5.724   2.025   7.737 -0.3060 -0.2268  0.0711
 3647TIP3    H132576   5.654   1.960   7.731 -0.5078 -0.1922  1.6289
 3647TIP3    H232577   5.773   2.001   7.816  0.0851  1.0408  0.2433
 3648TIP3   OH232578   5.614   6.421   1.709 -0.5764  0.3189 -0.1186
 3648TIP3    H132579   5.706   6.407   1.687 -0.1991  0.2125  1.4079
 3648TIP3    H232580   5.566   6.391   1.632  0.6888  1.6541 -1.4942
 3649TIP3   OH232581   5.939   0.270   8.074 -0.2843  0.1425 -0.1997
 3649TIP3    H132582   5.996   0.197   8.096  0.0338  0.5316  0.2927
 3649TIP3    H232583   5.875   0.233   8.013  0.4822 -0.3038 -0.7576
 3650TIP3   OH232584   3.982   1.182   7.977  1.0251 -0.2325 -0.8968
 3650TIP3    H132585   3.926   1.218   7.908 -0.5516 -1.6386 -0.4135
 3650TIP3    H232586   3.998   1.092   7.950 -1.1304 -1.3925  1.3829
 3651TIP3   OH232587   1.740   4.679   6.570  0.1924 -0.4347 -0.5102
 3651TIP3    H132588   1.668   4.685   6.632  1.5077  0.6997  0.9881
 3651TIP3    H232589   1.729   4.753   6.511  1.9279  1.8689  1.8383
 3652TIP3   OH232590   2.487   3.861   8.831  0.4242 -0.3161 -0.4586
 3652TIP3    H132591   2.437   3.846   8.752 -0.2926  1.1565 -0.3248
 3652TIP3    H232592   2.451   3.800   8.895  0.6727 -1.1621 -1.1140
 3653TIP3   OH232593   5.312   3.891   8.421 -0.1119  0.1733 -0.8343
 3653TIP3    H132594   5.376   3.822   8.436 -0.2528  0.4523  1.4106
 3653TIP3    H232595   5.364   3.972   8.418 -0.2955  0.3607  0.6146
 3654TIP3   OH232596   0.586   4.966   7.937  0.2381 -0.1935 -0.3008
 3654TIP3    H132597   0.597   5.062   7.934  2.3600 -0.3878 -0.4402
 3654TIP3    H232598   0.662   4.932   7.889 -0.7221 -1.9613 -0.6449
 3655TIP3   OH232599   1.468   0.009   7.972 -0.0523 -0.4180 -0.0657
 3655TIP3    H132600   1.380   0.005   7.936 -0.2724 -0.9278  0.5095
 3655TIP3    H232601   1.477  -0.072   8.023 -0.6105  1.2484  2.9564
 3656TIP3   OH232602   0.597   1.897   1.531  0.3048  0.3830  0.1847
 3656TIP3    H132603   0.556   1.922   1.448 -2.3591 -1.2627  0.8543
 3656TIP3    H232604   0.592   1.976   1.585 -1.2941  0.5115 -0.0854
 3657TIP3   OH232605   4.131   5.826   1.126  0.4803  0.1889  0.1343
 3657TIP3    H132606   4.165   5.904   1.171  1.7816  0.2347 -0.8711
 3657TIP3    H232607   4.071   5.861   1.060 -0.9131  0.1606  1.3393
 3658TIP3   OH232608   5.784   2.250   7.168 -0.2356  0.1251 -0.2924
 3658TIP3    H132609   5.789   2.346   7.176  1.5394 -0.0359  1.2964
 3658TIP3    H232610   5.738   2.223   7.247 -0.5011 -0.3544 -0.6117
 3659TIP3   OH232611   2.814   2.959   6.817  0.0748  0.2571  0.1677
 3659TIP3    H132612   2.887   3.005   6.858  0.2804 -1.5386  1.9115
 3659TIP3    H232613   2.855   2.899   6.755  0.0845 -0.4548  0.8474
 3660TIP3   OH232614   2.675   5.426   7.050 -0.6861 -0.3981  0.8488
 3660TIP3    H132615   2.663   5.346   7.101 -2.0078  1.0676  2.9990
 3660TIP3    H232616   2.657   5.497   7.112  1.0275  1.6226 -0.7865
 3661TIP3   OH232617   4.734   6.506   7.580  0.1150  0.2611  0.1453
 3661TIP3    H132618   4.693   6.444   7.519 -0.1986  1.3210 -0.7541
 3661TIP3    H232619   4.808   6.542   7.531  0.9602 -0.2016  1.0625
 3662TIP3   OH232620   3.890   5.355   8.095  0.1411 -0.0199  0.0790
 3662TIP3    H132621   3.885   5.436   8.145 -0.6233  0.9511 -1.5249
 3662TIP3    H232622   3.958   5.371   8.030  0.5246 -0.9678  0.2169
 3663TIP3   OH232623   2.630   0.860   8.666 -0.5864 -0.0608 -0.4880
 3663TIP3    H132624   2.626   0.885   8.758 -1.0474 -0.2628 -0.4504
 3663TIP3    H232625   2.706   0.906   8.632  0.2792 -0.8903  0.2695
 3664TIP3   OH232626   5.050   5.658   7.354 -0.0466  0.0177 -0.2695
 3664TIP3    H132627   4.954   5.654   7.354 -0.2341  2.8909  0.5891
 3664TIP3    H232628   5.072   5.704   7.273  0.7981 -2.1166 -1.3422
 3665TIP3   OH232629   4.098   0.681   7.673  0.0506  0.1904 -0.5115
 3665TIP3    H132630   4.049   0.754   7.712  1.8272  1.4785 -0.5895
 3665TIP3    H232631   4.190   0.708   7.680  0.9004 -2.7007  0.8319
 3666TIP3   OH232632   4.942   2.039   1.953 -0.3337 -0.2560  0.2932
 3666TIP3    H132633   4.908   2.128   1.956  1.6897  0.6915 -1.5804
 3666TIP3    H232634   4.963   2.018   2.043 -1.1440  1.0395  0.8095
 3667TIP3   OH232635   4.308   5.598   8.100  0.1700  0.5276  0.1944
 3667TIP3    H132636   4.269   5.652   8.169 -0.0209  0.0410  0.4733
 3667TIP3    H232637   4.272   5.511   8.115 -0.7927  0.6596 -1.2362
 3668TIP3   OH232638   2.262   4.030   2.463  0.0940 -0.3453  0.0653
 3668TIP3    H132639   2.205   4.079   2.522  0.1094 -0.6948  0.3753
 3668TIP3    H232640   2.298   3.959   2.517  1.7115  0.5121  0.1860
 3669TIP3   OH232641   1.347   3.347   0.528  0.2924  0.3910  0.2394
 3669TIP3    H132642   1.290   3.419   0.556  0.8441  1.1606 -0.5513
 3669TIP3    H232643   1.433   3.388   0.517 -0.1261  0.5249 -3.9097
 3670TIP3   OH232644   3.648   3.339   6.722 -0.5696 -0.1447 -0.3149
 3670TIP3    H132645   3.699   3.272   6.676  0.6777  0.3929  0.2488
 3670TIP3    H232646   3.560   3.302   6.727 -0.3785 -0.8690 -1.7718
 3671TIP3   OH232647   3.867   3.800   7.555  0.0177 -0.1184 -0.1164
 3671TIP3    H132648   3.854   3.895   7.564 -1.3696 -0.3364  0.3416
 3671TIP3    H232649   3.888   3.788   7.463 -2.6930  0.3649 -0.8719
 3672TIP3   OH232650   5.035   5.001   8.826  0.3401 -0.1082  0.4622
 3672TIP3    H132651   4.998   5.048   8.752 -1.0543 -2.0960 -0.1984
 3672TIP3    H232652   5.129   4.998   8.809  0.0797 -0.1646 -1.0320
 3673TIP3   OH232653   1.704   6.045   1.542  0.4303  0.3300  0.3161
 3673TIP3    H132654   1.671   6.114   1.600  0.2811  0.7934 -0.3115
 3673TIP3    H232655   1.683   6.075   1.454 -1.9400 -1.6649  0.0692
 3674TIP3   OH232656   0.524   5.521   1.114 -0.2926 -0.2456  0.0841
 3674TIP3    H132657   0.549   5.476   1.033  2.4593 -0.5226  0.9733
 3674TIP3    H232658   0.587   5.593   1.122 -3.9885  3.4420 -0.8337
 3675TIP3   OH232659   0.541   2.735   8.937 -0.4890 -0.5082 -0.4254
 3675TIP3    H132660   0.560   2.683   9.015  1.3260  0.4560 -0.1689
 3675TIP3    H232661   0.598   2.812   8.944 -0.1888 -0.4307 -2.7213
 3676TIP3   OH232662   4.941   4.276   2.401 -0.4003 -0.3204 -0.3671
 3676TIP3    H132663   4.863   4.221   2.391 -1.1287  0.5606  0.3214
 3676TIP3    H232664   4.954   4.283   2.496  0.6182 -0.5664 -0.4656
 3677TIP3   OH232665   1.706   2.865   8.799  0.0068 -0.0064 -0.2537
 3677TIP3    H132666   1.682   2.884   8.890  0.1872 -4.3437  0.9074
 3677TIP3    H232667   1.799   2.842   8.804 -0.2218 -1.2480 -1.3248
 3678TIP3   OH232668   0.331   5.293   8.532 -0.1627 -0.4932 -0.6603
 3678TIP3    H132669   0.268   5.251   8.591  0.1119  1.2131  0.9495
 3678TIP3    H232670   0.402   5.230   8.524 -1.4029 -1.8566 -1.3584
 3679TIP3   OH232671   2.808   0.927   1.788 -0.1411 -0.1258 -0.4224
 3679TIP3    H132672   2.813   0.852   1.847  0.0916 -0.5930 -1.0288
 3679TIP3    H232673   2.728   0.973   1.815 -0.8062 -1.1073 -0.6421
 3680TIP3   OH232674   0.304   1.336   8.308  0.2288  0.4328  0.3377
 3680TIP3    H132675   0.309   1.245   8.278 -0.1075  0.0742  1.3463
 3680TIP3    H232676   0.219   1.367   8.275 -0.2070 -0.0085  1.0180
 3681TIP3   OH232677   3.864   5.668   8.028 -0.4688  0.4594 -0.3596
 3681TIP3    H132678   3.870   5.643   8.120  0.7605 -0.1437 -0.5816
 3681TIP3    H232679   3.787   5.622   7.995  0.6473 -1.5942 -0.2791
 3682TIP3   OH232680   5.674   1.718   2.265 -0.2645  0.6045  0.7946
 3682TIP3    H132681   5.601   1.658   2.280 -0.8163  1.0709  0.0410
 3682TIP3    H232682   5.752   1.662   2.270 -0.7494 -0.1320  0.3979
 3683TIP3   OH232683   4.997   3.962   8.551 -0.0708 -0.2890 -0.2150
 3683TIP3    H132684   5.012   3.919   8.466  1.2395  0.4833 -0.3963
 3683TIP3    H232685   5.045   4.044   8.545 -1.8872  0.8850  0.4188
 3684TIP3   OH232686   0.812   4.284   0.190  0.0275  0.6344 -0.2820
 3684TIP3    H132687   0.732   4.234   0.204 -0.0116  0.9493  0.7443
 3684TIP3    H232688   0.785   4.375   0.200 -0.2248  1.0666 -3.6457
 3685TIP3   OH232689   1.415   2.243   8.720  0.0762 -0.8894  0.0772
 3685TIP3    H132690   1.409   2.336   8.738  2.5757 -0.7155  0.3118
 3685TIP3    H232691   1.354   2.202   8.782 -0.0654  0.4782  0.8628
 3686TIP3   OH232692   6.614   2.415   8.646 -0.2007  0.9144  0.1326
 3686TIP3    H132693   6.657   2.350   8.701  0.2628  1.3525  0.2969
 3686TIP3    H232694   6.588   2.485   8.706  1.2063  1.8673 -0.3073
 3687TIP3   OH232695   1.478   2.052   7.205 -0.6507 -0.0837 -0.1216
 3687TIP3    H132696   1.439   1.966   7.219  2.3669 -1.6730 -0.7007
 3687TIP3    H232697   1.489   2.088   7.293  0.6758 -1.6237  0.3993
 3688TIP3   OH232698   3.681   0.263   7.528 -0.8118  0.1012 -0.0007
 3688TIP3    H132699   3.655   0.173   7.548 -1.1524 -0.0674 -1.1135
 3688TIP3    H232700   3.654   0.276   7.437 -1.3770  1.5521  0.3448
 3689TIP3   OH232701   5.990   3.619   1.637  0.6173  0.0637 -0.6696
 3689TIP3    H132702   5.954   3.668   1.562 -1.4885  0.8821  0.7865
 3689TIP3    H232703   5.993   3.683   1.708 -1.7287 -1.6673  1.1731
 3690TIP3   OH232704   6.223   4.360   1.738 -0.1422 -0.3264  0.0419
 3690TIP3    H132705   6.316   4.367   1.760  0.2407 -1.2477 -1.2206
 3690TIP3    H232706   6.184   4.312   1.811  0.4584 -0.3843  0.3255
 3691TIP3   OH232707   5.222   6.326   0.708  0.4802 -0.3543  0.4859
 3691TIP3    H132708   5.199   6.252   0.653 -0.0020 -0.0589  0.2882
 3691TIP3    H232709   5.268   6.287   0.782 -0.5244 -0.9340  0.8194
 3692TIP3   OH232710   3.050   5.086   8.497  0.6634  0.1239  0.3629
 3692TIP3    H132711   2.966   5.067   8.457  1.2978 -0.0075 -0.9631
 3692TIP3    H232712   3.069   5.177   8.474  0.9625  0.0988  0.4958
 3693TIP3   OH232713   1.248   3.510   0.761  0.0590  0.2696 -0.1999
 3693TIP3    H132714   1.183   3.573   0.793 -0.5061  0.0265 -0.8477
 3693TIP3    H232715   1.332   3.545   0.791 -0.4098  0.2665  1.1702
 3694TIP3   OH232716   0.996   1.190   6.989  0.0580  0.1786 -0.1339
 3694TIP3    H132717   1.084   1.216   7.014 -0.0241  0.6343 -0.2990
 3694TIP3    H232718   1.004   1.165   6.897  0.0711 -0.0641 -0.0672
 3695TIP3   OH232719   5.687   0.906   7.458  0.5107  0.7019  0.0900
 3695TIP3    H132720   5.639   0.849   7.518 -0.3213  0.2969 -0.9188
 3695TIP3    H232721   5.664   0.995   7.487  1.0792  0.5293  1.0985
 3696TIP3   OH232722   4.258   4.598   8.541 -0.4575  0.0938 -0.2215
 3696TIP3    H132723   4.325   4.533   8.517  2.3070  1.3438  3.2552
 3696TIP3    H232724   4.204   4.554   8.606  0.4305  0.7115  0.9640
 3697TIP3   OH232725   5.591   1.440   8.685 -0.0446 -0.0443 -0.2363
 3697TIP3    H132726   5.497   1.457   8.688 -0.1802 -0.5753 -1.1614
 3697TIP3    H232727   5.615   1.455   8.593  0.3750 -1.9094 -0.4781
 3698TIP3   OH232728   5.053   0.411   7.978 -0.1964 -0.3464 -0.0160
 3698TIP3    H132729   5.138   0.371   7.999  0.7922  1.2113 -0.8428
 3698TIP3    H232730   4.990   0.364   8.033  1.3098 -1.0563  1.1835
 3699TIP3   OH232731   6.714   6.183   2.200  0.1611  0.3185 -0.2009
 3699TIP3    H132732   6.796   6.231   2.185  0.1535 -0.0906 -1.7588
 3699TIP3    H232733   6.645   6.248   2.188  0.1909  0.1778 -1.2232
 3700TIP3   OH232734   3.659   0.962   1.752 -0.1156  0.1649  0.5973
 3700TIP3    H132735   3.747   0.978   1.718 -0.4171  1.0200  0.2136
 3700TIP3    H232736   3.606   1.034   1.718 -0.6355  0.5210  2.0780
 3701TIP3   OH232737   4.222   6.087   0.820 -0.2859 -0.5377  0.4370
 3701TIP3    H132738   4.152   6.023   0.835 -1.6874  0.9710  0.7434
 3701TIP3    H232739   4.239   6.082   0.726 -0.3086 -1.4085  0.4674
 3702TIP3   OH232740   3.813   3.884   8.592 -0.0283 -0.0954 -0.0945
 3702TIP3    H132741   3.784   3.802   8.632  2.6571 -1.4139 -0.6630
 3702TIP3    H232742   3.736   3.915   8.544 -2.3804 -0.1215  3.2842
 3703TIP3   OH232743   6.553   2.692   7.762 -0.3735 -0.0071  0.0635
 3703TIP3    H132744   6.551   2.759   7.831 -2.1226  1.7538 -1.5547
 3703TIP3    H232745   6.645   2.666   7.755 -0.1650 -0.3358  3.0641
 3704TIP3   OH232746   6.064   6.154   1.452 -0.5997 -0.4514 -0.3646
 3704TIP3    H132747   6.142   6.099   1.446 -0.3517 -0.0026 -1.7463
 3704TIP3    H232748   6.034   6.144   1.542  0.4412 -1.4623 -0.1034
 3705TIP3   OH232749   0.761   1.226   8.488  0.6671  0.5640 -0.3916
 3705TIP3    H132750   0.833   1.167   8.464  1.9269  2.4384 -1.5353
 3705TIP3    H232751   0.774   1.303   8.432 -2.6744  0.7220 -1.1778
 3706TIP3   OH232752   0.823   0.423   6.928  0.1184 -0.1495 -0.8028
 3706TIP3    H132753   0.740   0.376   6.938  0.1419  0.1150  0.8665
 3706TIP3    H232754   0.881   0.384   6.993  0.7996  0.7352 -0.8552
 3707TIP3   OH232755   4.963   3.340   8.532  0.3253  0.0109 -0.1511
 3707TIP3    H132756   5.034   3.394   8.567 -0.6738  0.5668  1.1053
 3707TIP3    H232757   4.887   3.398   8.531 -0.7158 -1.2561  0.9967
 3708TIP3   OH232758   1.961   6.589   0.808  0.1096 -0.3241  0.0084
 3708TIP3    H132759   1.941   6.648   0.881  1.1272  0.4193 -0.2995
 3708TIP3    H232760   2.053   6.566   0.820  0.2613 -0.2768 -0.9910
 3709TIP3   OH232761   1.658   4.339   7.914 -0.0221 -0.3916  0.6746
 3709TIP3    H132762   1.632   4.404   7.849  0.8564 -0.3252  0.3780
 3709TIP3    H232763   1.576   4.315   7.957 -0.8682 -1.5202 -1.4264
 3710TIP3   OH232764   5.716   0.690   8.033  0.6761  0.2638  0.4681
 3710TIP3    H132765   5.740   0.771   8.078 -2.5505 -0.0726  3.1498
 3710TIP3    H232766   5.770   0.623   8.075  1.0928  0.6039  0.4792
 3711TIP3   OH232767   6.582   0.329   7.995  0.1194 -0.3640 -0.0468
 3711TIP3    H132768   6.545   0.411   7.962  0.1750 -0.3861 -0.1633
 3711TIP3    H232769   6.523   0.303   8.066  1.3021  0.9260  1.5083
 3712TIP3   OH232770   2.289   4.531   6.496  0.6828  0.1456 -0.6579
 3712TIP3    H132771   2.353   4.474   6.453  2.0947  0.9849  0.2463
 3712TIP3    H232772   2.341   4.587   6.554 -0.8267  1.2310 -0.2726
 3713TIP3   OH232773   3.912   6.439   1.214  0.1609 -0.1192 -0.0980
 3713TIP3    H132774   3.887   6.469   1.302  2.9783 -0.7028  1.0188
 3713TIP3    H232775   3.943   6.517   1.170 -1.9550  0.3158 -0.9211
 3714TIP3   OH232776   4.102   1.278   6.858  0.7992 -0.3107  0.0265
 3714TIP3    H132777   4.074   1.369   6.863 -0.4254 -0.7308  1.5927
 3714TIP3    H232778   4.093   1.254   6.766  1.4180  1.2104 -0.4545
 3715TIP3   OH232779   1.463   6.240   7.612 -0.1234 -0.4016 -0.1347
 3715TIP3    H132780   1.369   6.246   7.628  0.0270  1.7980  0.2511
 3715TIP3    H232781   1.483   6.147   7.626 -2.0101 -0.7013  1.0776
 3716TIP3   OH232782   3.235   2.553   1.400  0.0550 -0.3804  0.4138
 3716TIP3    H132783   3.321   2.587   1.374 -0.7100  1.1717 -0.2079
 3716TIP3    H232784   3.233   2.564   1.495 -0.8046  3.1215  0.1165
 3717TIP3   OH232785   4.869   3.010   1.278 -0.1207 -1.2694  0.1127
 3717TIP3    H132786   4.846   2.951   1.350  0.2124 -0.0693  1.2383
 3717TIP3    H232787   4.793   3.008   1.220 -1.0614 -1.0440  1.3141
 3718TIP3   OH232788   5.983   4.456   0.105 -0.0648 -0.2841  0.6361
 3718TIP3    H132789   6.010   4.395   0.037 -2.1035  0.7971 -1.2734
 3718TIP3    H232790   6.038   4.434   0.180  0.5364 -3.2234 -0.5283
 3719TIP3   OH232791   0.268   4.756   0.336 -0.0716 -0.1680  0.0929
 3719TIP3    H132792   0.190   4.704   0.359  1.3480 -1.1728  3.2105
 3719TIP3    H232793   0.233   4.843   0.317 -2.0468 -0.7449  0.7695
 3720TIP3   OH232794   1.695   2.082   0.700 -0.0349 -0.5648  0.0332
 3720TIP3    H132795   1.720   2.012   0.639 -1.0605 -0.7098 -0.2339
 3720TIP3    H232796   1.758   2.074   0.772  0.7463 -0.8500 -0.6585
 3721TIP3   OH232797   1.209   3.657   6.521 -0.7103  0.3346 -0.1622
 3721TIP3    H132798   1.121   3.624   6.501 -0.3569 -0.3865 -0.5439
 3721TIP3    H232799   1.206   3.749   6.495 -0.8886 -0.0613 -1.6003
 3722TIP3   OH232800   0.562   6.383   8.000  0.1399 -0.1560 -0.3557
 3722TIP3    H132801   0.506   6.391   7.923 -0.0839  0.2233 -0.1570
 3722TIP3    H232802   0.599   6.470   8.012  0.6998 -0.3789 -0.4248
 3723TIP3   OH232803   3.366   3.561   0.412  0.0930 -0.1747 -0.5927
 3723TIP3    H132804   3.314   3.488   0.447  0.7958 -0.3618  0.0721
 3723TIP3    H232805   3.301   3.630   0.396 -0.2854 -0.1186  0.9722
 3724TIP3   OH232806   4.531   4.083   7.838 -0.1877  0.2973  0.6051
 3724TIP3    H132807   4.581   4.152   7.795  1.6521  0.1725  2.4021
 3724TIP3    H232808   4.495   4.126   7.917  0.2052 -0.5419  1.2555
 3725TIP3   OH232809   2.853   4.384   0.102  0.0810  0.4485 -0.1030
 3725TIP3    H132810   2.848   4.290   0.116  0.9605  0.4686  0.4935
 3725TIP3    H232811   2.773   4.419   0.141 -0.4061 -0.0745 -0.6218
 3726TIP3   OH232812   0.449   4.409   1.873 -0.7927  0.1373  0.1569
 3726TIP3    H132813   0.526   4.459   1.899 -0.9098  0.5760 -0.3133
 3726TIP3    H232814   0.376   4.471   1.880 -0.8790  0.1743 -0.8453
 3727TIP3   OH232815   4.876   5.824   1.769 -0.0782 -0.3313  0.3278
 3727TIP3    H132816   4.919   5.741   1.746 -0.2022  0.2244 -2.1056
 3727TIP3    H232817   4.937   5.892   1.742  0.3211  0.4626  2.9157
 3728TIP3   OH232818   6.476   6.409   1.326 -0.5054  0.1738  0.3029
 3728TIP3    H132819   6.398   6.464   1.318 -0.3454  0.6104  1.5546
 3728TIP3    H232820   6.452   6.326   1.283 -1.8476  0.1062  1.1426
 3729TIP3   OH232821   3.110   0.606   7.357 -0.8881  0.0682 -0.8421
 3729TIP3    H132822   3.075   0.577   7.442  3.0107 -2.5789  0.1426
 3729TIP3    H232823   3.056   0.561   7.292 -1.3841 -1.2385  0.4173
 3730TIP3   OH232824   3.887   1.880   0.415  0.0457 -0.1106  0.2984
 3730TIP3    H132825   3.936   1.925   0.346 -0.7908  1.3518  0.6189
 3730TIP3    H232826   3.809   1.933   0.427 -1.4048 -2.1225  0.1568
 3731TIP3   OH232827   1.474   1.734   7.959  0.1679 -0.3956 -0.1420
 3731TIP3    H132828   1.557   1.778   7.943  1.4006 -1.9452  1.5834
 3731TIP3    H232829   1.492   1.642   7.943 -1.6129 -0.6383 -1.0316
 3732TIP3   OH232830   6.663   5.125   0.193 -0.4286  0.2866  0.3090
 3732TIP3    H132831   6.703   5.179   0.262 -2.1386  1.0489  0.7434
 3732TIP3    H232832   6.617   5.056   0.241  1.0318 -1.1188 -0.2204
 3733TIP3   OH232833   6.453   5.434   1.052  0.0132  0.0592  0.0649
 3733TIP3    H132834   6.526   5.490   1.023  2.1792 -2.3103  0.5765
 3733TIP3    H232835   6.473   5.415   1.144 -0.7204 -1.3949 -0.0563
 3734TIP3   OH232836   3.580   3.154   7.771  0.7584 -0.2372  0.1460
 3734TIP3    H132837   3.672   3.126   7.769  0.1981 -2.3226  0.6317
 3734TIP3    H232838   3.554   3.156   7.679  0.5688 -2.4139  0.1096
 3735TIP3   OH232839   1.243   5.252   0.452 -0.2161 -0.1878 -0.2341
 3735TIP3    H132840   1.197   5.235   0.533 -0.9482 -0.6691 -0.7428
 3735TIP3    H232841   1.312   5.185   0.449 -0.9174 -0.9159 -0.5563
 3736TIP3   OH232842   1.128   0.737   0.442 -0.2095  0.0036 -0.0742
 3736TIP3    H132843   1.079   0.691   0.510  0.6871 -1.8790 -0.6306
 3736TIP3    H232844   1.219   0.717   0.461  0.1666  0.9362 -0.8181
 3737TIP3   OH232845   3.689   1.702   7.538  0.8886 -0.3077  0.3383
 3737TIP3    H132846   3.683   1.731   7.447 -1.1115 -0.5115  0.3581
 3737TIP3    H232847   3.782   1.684   7.552  1.4966  1.3906 -1.1282
 3738TIP3   OH232848   3.696   4.599   8.883 -0.4446 -0.2683  0.5202
 3738TIP3    H132849   3.725   4.689   8.897 -2.5468  0.4111  0.7764
 3738TIP3    H232850   3.654   4.600   8.797 -0.4283 -1.0374  0.4957
 3739TIP3   OH232851   3.356   2.984   1.434 -0.4832  0.2382 -0.5622
 3739TIP3    H132852   3.335   2.951   1.521 -0.1100 -1.0460 -0.9449
 3739TIP3    H232853   3.286   2.951   1.378  0.4497 -0.8440 -1.1394
 3740TIP3   OH232854   2.952   1.312   8.892 -0.1350  0.1538  0.4001
 3740TIP3    H132855   2.881   1.252   8.915  0.7606 -1.0843  0.0795
 3740TIP3    H232856   2.919   1.359   8.815 -0.8423  0.0571  0.6341
 3741TIP3   OH232857   2.373   4.088   0.907 -0.4692 -0.0347  0.4445
 3741TIP3    H132858   2.430   4.126   0.973 -2.2062  2.6984  0.5008
 3741TIP3    H232859   2.288   4.129   0.921 -1.8619 -2.1136 -1.1985
 3742TIP3   OH232860   1.620   5.654   7.902 -0.0151  0.0593  0.2129
 3742TIP3    H132861   1.583   5.727   7.952 -2.0991  0.2432 -1.4634
 3742TIP3    H232862   1.557   5.584   7.912 -1.0815  0.4228 -2.8756
 3743TIP3   OH232863   6.770   2.408   7.842  0.1964  0.0055  0.3094
 3743TIP3    H132864   6.748   2.331   7.895  0.1932 -0.2580 -0.0730
 3743TIP3    H232865   6.823   2.463   7.900 -0.7814  0.2749  0.9901
 3744TIP3   OH232866   1.834   1.619   7.826 -0.0879 -0.9070  0.2469
 3744TIP3    H132867   1.874   1.701   7.796 -1.2032 -0.2123  0.5634
 3744TIP3    H232868   1.754   1.611   7.773 -0.8753 -0.8737  1.3953
 3745TIP3   OH232869   5.920   1.544   7.768  0.1120 -0.3677  0.0652
 3745TIP3    H132870   5.947   1.454   7.750 -1.3270 -1.0268  1.0550
 3745TIP3    H232871   5.865   1.568   7.693 -0.3275 -0.6863  0.2798
 3746TIP3   OH232872   1.999   1.203   7.280 -0.0519  0.2262  0.2489
 3746TIP3    H132873   2.065   1.263   7.244  0.4746 -0.8099 -0.5666
 3746TIP3    H232874   1.996   1.130   7.218 -1.4232 -0.1142  0.6824
 3747TIP3   OH232875   5.327   5.572   7.151 -0.1702 -0.1295 -0.2146
 3747TIP3    H132876   5.365   5.491   7.115 -1.4305 -1.0582  0.4783
 3747TIP3    H232877   5.244   5.582   7.105 -0.0850  0.7040 -0.1926
 3748TIP3   OH232878   3.424   3.355   0.931 -0.3504  0.3516  0.3878
 3748TIP3    H132879   3.332   3.379   0.927  0.0189  1.7630 -0.6860
 3748TIP3    H232880   3.465   3.426   0.981  0.9878  3.0368 -3.9526
 3749TIP3   OH232881   4.513   2.603   8.279  1.3193  0.4552  0.2243
 3749TIP3    H132882   4.561   2.684   8.297  0.5403  0.7546  1.0867
 3749TIP3    H232883   4.486   2.572   8.366  2.0870 -1.0449 -0.0501
 3750TIP3   OH232884   4.010   0.505   7.864 -0.0011 -0.0261 -0.4817
 3750TIP3    H132885   4.068   0.563   7.815  0.6900 -0.8197 -0.6102
 3750TIP3    H232886   3.923   0.545   7.854  0.6536  1.8283  0.6955
 3751TIP3   OH232887   6.686   2.071   2.566  0.4230  0.2649 -0.2628
 3751TIP3    H132888   6.737   2.016   2.625  2.4717  0.5688 -1.6669
 3751TIP3    H232889   6.735   2.153   2.562 -0.1822  0.5857 -1.6237
 3752TIP3   OH232890   4.915   6.741   2.277 -0.1011 -0.5816  0.3706
 3752TIP3    H132891   4.850   6.740   2.348 -0.0230  0.2787  0.4560
 3752TIP3    H232892   4.962   6.658   2.287 -0.7575 -0.9219  0.7055
 3753TIP3   OH232893   3.025   2.771   7.097 -0.4166 -0.2451  0.1196
 3753TIP3    H132894   3.020   2.729   7.012  1.4245 -1.2172  0.4292
 3753TIP3    H232895   3.065   2.856   7.080 -0.8872 -0.0682 -0.0946
 3754TIP3   OH232896   2.899   0.095   7.687  0.0315  0.2425 -1.0085
 3754TIP3    H132897   2.838   0.095   7.614  0.9693 -1.4409 -1.8699
 3754TIP3    H232898   2.985   0.107   7.646  0.6127 -1.1080 -0.2743
 3755TIP3   OH232899   5.570   1.906   1.320 -0.2265  0.0117 -0.2917
 3755TIP3    H132900   5.509   1.875   1.387 -0.4491 -1.4135 -1.1096
 3755TIP3    H232901   5.596   1.827   1.273  2.0972  0.5918 -0.1197
 3756TIP3   OH232902   1.148   5.449   7.894 -0.2095  0.5672 -0.2066
 3756TIP3    H132903   1.052   5.444   7.898 -0.2491 -1.7691 -1.8607
 3756TIP3    H232904   1.167   5.485   7.808  0.3813 -0.1175 -0.3770
 3757TIP3   OH232905   4.241   5.862   7.723 -0.0685 -0.5889  0.1554
 3757TIP3    H132906   4.217   5.837   7.634 -0.1704  1.0656 -0.3139
 3757TIP3    H232907   4.306   5.796   7.750 -1.8076 -2.5546 -0.1867
 3758TIP3   OH232908   1.005   4.856   7.137  0.0907 -0.4515 -0.1104
 3758TIP3    H132909   1.005   4.946   7.169  1.1869 -0.4684 -0.0289
 3758TIP3    H232910   1.017   4.803   7.216 -0.7650 -0.6920 -0.1312
 3759TIP3   OH232911   2.418   2.845   7.982 -0.6006 -0.6997  0.6694
 3759TIP3    H132912   2.446   2.829   7.892 -1.8614 -0.2365  0.1680
 3759TIP3    H232913   2.492   2.892   8.022 -0.1442 -0.6454 -0.2099
 3760TIP3   OH232914   0.285   1.869   6.971 -0.2040  0.3333  0.4433
 3760TIP3    H132915   0.222   1.941   6.968 -1.1500 -0.5116 -1.0583
 3760TIP3    H232916   0.366   1.906   6.935  0.2560  1.4442  2.4408
 3761TIP3   OH232917   4.047   6.295   8.862  0.5616  0.5677 -0.4490
 3761TIP3    H132918   3.972   6.345   8.830  0.8492  0.5588 -1.1581
 3761TIP3    H232919   4.008   6.219   8.907  0.1502  0.6088 -0.7325
 3762TIP3   OH232920   4.207   1.003   1.637  0.0295 -0.1266  0.9569
 3762TIP3    H132921   4.272   1.072   1.625  0.8723 -0.9392  0.7535
 3762TIP3    H232922   4.190   1.002   1.731 -2.4838  2.5500  0.6838
 3763TIP3   OH232923   3.329   4.395   7.073  0.0777 -0.5918 -0.3488
 3763TIP3    H132924   3.390   4.328   7.041 -0.2391 -0.5555 -1.0536
 3763TIP3    H232925   3.335   4.466   7.009 -2.1787 -1.4333 -1.6319
 3764TIP3   OH232926   5.066   4.055   8.870  0.4638  0.0235  0.4998
 3764TIP3    H132927   4.979   4.018   8.856 -0.0547  1.4205 -0.1428
 3764TIP3    H232928   5.126   3.983   8.850 -0.5239 -0.7881  0.3875
 3765TIP3   OH232929   2.886   2.132   1.331 -0.3398 -0.2631  0.1690
 3765TIP3    H132930   2.880   2.134   1.427 -1.0957  0.2355  0.1141
 3765TIP3    H232931   2.954   2.067   1.313  0.7410  0.5691  1.0840
 3766TIP3   OH232932   2.471   0.610   0.259  0.0945 -0.6586 -0.3604
 3766TIP3    H132933   2.478   0.526   0.303  1.4129 -0.3690  0.0175
 3766TIP3    H232934   2.502   0.674   0.323 -2.8412  0.4432  0.1670
 3767TIP3   OH232935   3.833   3.822   1.674 -0.0257 -0.0856 -0.0322
 3767TIP3    H132936   3.910   3.876   1.655 -0.9499  0.4769 -2.6169
 3767TIP3    H232937   3.777   3.879   1.727  0.9550 -0.2207  1.2013
 3768TIP3   OH232938   6.465   0.060   1.103 -0.1508 -0.2773 -0.1435
 3768TIP3    H132939   6.405   0.021   1.167 -3.1039 -0.2355 -2.6571
 3768TIP3    H232940   6.510  -0.014   1.064 -1.1493 -0.6370 -0.6241
 3769TIP3   OH232941   0.452   6.481   7.692  0.3091  0.3176 -0.1553
 3769TIP3    H132942   0.407   6.420   7.750 -0.0417  0.2055 -0.5350
 3769TIP3    H232943   0.381   6.524   7.644  0.6006  0.2700 -0.6385
 3770TIP3   OH232944   6.578   4.826   8.451  0.1250 -0.0102 -0.4295
 3770TIP3    H132945   6.569   4.748   8.507  2.5678 -0.3913 -0.4769
 3770TIP3    H232946   6.507   4.883   8.480  0.8568 -0.4564  2.6690
 3771TIP3   OH232947   0.672   3.017   8.957  0.0767 -0.5596  0.2711
 3771TIP3    H132948   0.632   3.060   8.882  1.4331 -0.6006 -0.5065
 3771TIP3    H232949   0.764   3.045   8.954  0.0561 -0.1575  2.2042
 3772TIP3   OH232950   5.692   3.549   8.027 -0.0218 -0.1345 -0.5729
 3772TIP3    H132951   5.751   3.574   8.098 -0.4248 -0.2614 -0.1797
 3772TIP3    H232952   5.684   3.627   7.973 -0.9411  0.4755  0.4054
 3773TIP3   OH232953   3.288   6.281   6.834 -0.1984 -0.8240  0.5836
 3773TIP3    H132954   3.348   6.347   6.868  0.5947 -0.1970 -1.8460
 3773TIP3    H232955   3.345   6.214   6.796 -1.0033 -2.5287  2.2237
 3774TIP3   OH232956   1.194   2.402   0.630 -0.8694 -0.1644  0.0940
 3774TIP3    H132957   1.128   2.351   0.677  0.8556 -2.8984 -0.2184
 3774TIP3    H232958   1.276   2.357   0.648  0.4226  0.9787 -2.3847
 3775TIP3   OH232959   6.644   6.112   1.519  0.1705  0.0143 -0.3505
 3775TIP3    H132960   6.551   6.112   1.495  0.0804  1.6392 -0.1668
 3775TIP3    H232961   6.682   6.182   1.465  1.1134 -0.0769  0.1759
 3776TIP3   OH232962   2.292   3.799   7.781  0.5899  0.9788 -0.6845
 3776TIP3    H132963   2.326   3.843   7.703 -1.4420  0.7261 -1.7965
 3776TIP3    H232964   2.302   3.705   7.762  2.1490  0.8987  0.3726
 3777TIP3   OH232965   3.868   2.002   1.559 -0.0660  0.2019  0.5965
 3777TIP3    H132966   3.824   2.051   1.629 -1.8563  0.0726 -0.3833
 3777TIP3    H232967   3.876   1.913   1.593  0.5609  0.4988  1.2530
 3778TIP3   OH232968   3.765   0.121   0.503 -0.0163 -0.2560 -0.2589
 3778TIP3    H132969   3.792   0.212   0.512 -1.1497  0.2214 -1.4510
 3778TIP3    H232970   3.672   0.121   0.529  0.3289 -1.3389  1.0706
 3779TIP3   OH232971   2.243   1.654   1.773 -0.7948 -0.4956  0.2275
 3779TIP3    H132972   2.224   1.737   1.729 -0.0421 -0.0038  0.8089
 3779TIP3    H232973   2.165   1.601   1.757 -2.6824  1.3713  2.3302
 3780TIP3   OH232974   0.372   0.331   0.874  0.4001 -0.3836  0.8722
 3780TIP3    H132975   0.405   0.278   0.946  0.7131 -0.1156  0.9226
 3780TIP3    H232976   0.376   0.421   0.906  0.8000 -0.2382  0.4201
 3781TIP3   OH232977   4.985   1.376   1.418  0.0788 -0.2088 -0.2931
 3781TIP3    H132978   4.980   1.320   1.496  0.1818  1.1534  0.7232
 3781TIP3    H232979   4.920   1.340   1.358  0.7059 -1.9104 -0.0131
 3782TIP3   OH232980   5.669   6.247   0.601  0.1285  0.5238  0.5530
 3782TIP3    H132981   5.637   6.216   0.686  0.0436 -2.2044 -0.3744
 3782TIP3    H232982   5.591   6.281   0.557 -0.1538  0.3537  0.9160
 3783TIP3   OH232983   3.690   4.019   1.784 -0.4079  0.6389 -0.1586
 3783TIP3    H132984   3.616   4.008   1.844 -0.5192  0.4721 -0.3242
 3783TIP3    H232985   3.698   4.114   1.772 -1.2261  0.6210 -0.9180
 3784TIP3   OH232986   3.299   6.293   7.990 -0.4381  0.1760 -0.4283
 3784TIP3    H132987   3.375   6.268   7.937  1.4711 -0.3486  2.3413
 3784TIP3    H232988   3.256   6.210   8.012 -1.8499  0.4635 -1.9014
 3785TIP3   OH232989   4.649   6.187   8.523 -0.2752 -0.4118  0.8237
 3785TIP3    H132990   4.609   6.105   8.495 -1.4982 -0.4154  2.4028
 3785TIP3    H232991   4.594   6.216   8.597 -0.2644  2.1357 -0.0658
 3786TIP3   OH232992   6.624   2.152   0.049  0.1371 -0.3529 -0.3933
 3786TIP3    H132993   6.680   2.080   0.078  0.2825  0.0214  0.2604
 3786TIP3    H232994   6.601   2.198   0.129 -1.0361 -0.4439 -0.6636
 3787TIP3   OH232995   1.247   2.252   1.172  0.1331 -0.7350  0.1544
 3787TIP3    H132996   1.200   2.200   1.238 -0.6531 -2.4720 -1.6666
 3787TIP3    H232997   1.192   2.329   1.160 -1.0167 -1.5603 -0.1563
 3788TIP3   OH232998   5.284   3.659   0.029  0.3195  0.0290  0.7618
 3788TIP3    H132999   5.207   3.704  -0.005  0.7825  1.4226  1.4580
 3788TIP3    H233000   5.251   3.608   0.103 -0.1045 -0.2726  0.3695
 3789TIP3   OH233001   0.079   5.762   8.085  0.1582 -0.1836  0.1842
 3789TIP3    H133002   0.031   5.766   8.167  0.1297  0.0314  0.1579
 3789TIP3    H233003   0.051   5.840   8.037 -0.3543 -0.6751 -0.3259
 3790TIP3   OH233004   5.592   5.273   0.988  0.4653  0.3918  0.1969
 3790TIP3    H133005   5.552   5.356   0.963 -0.5764 -0.4180 -0.9157
 3790TIP3    H233006   5.588   5.219   0.909 -0.6305 -1.3807  1.3857
 3791TIP3   OH233007   1.935   1.334   8.675  0.4345  0.2370 -0.0553
 3791TIP3    H133008   1.848   1.353   8.711  0.7627  1.0963  0.2922
 3791TIP3    H233009   1.958   1.249   8.713 -0.2082  0.0483 -0.0698
 3792TIP3   OH233010   1.387   5.113   1.371  0.3066 -0.2042  0.0305
 3792TIP3    H133011   1.417   5.067   1.292  0.2962  0.6561 -0.4844
 3792TIP3    H233012   1.466   5.152   1.407  0.6468 -2.0947  1.4999
 3793TIP3   OH233013   1.721   3.501   7.125  0.3662 -0.0845  0.1898
 3793TIP3    H133014   1.774   3.575   7.096 -0.3523  0.7305  0.9132
 3793TIP3    H233015   1.673   3.473   7.047  1.0107 -0.1209 -0.2012
 3794TIP3   OH233016   1.677   0.965   2.730 -0.3432  0.0048  0.0821
 3794TIP3    H133017   1.773   0.959   2.730 -0.2599  1.0261 -0.8634
 3794TIP3    H233018   1.659   1.054   2.702 -1.5822 -0.2090  0.1655
 3795TIP3   OH233019   5.915   0.126   1.804  0.0752  0.0874  0.0274
 3795TIP3    H133020   5.876   0.039   1.798  0.8926 -0.2742 -0.2360
 3795TIP3    H233021   5.909   0.160   1.714 -0.7250  0.5228  0.2412
 3796TIP3   OH233022   0.433   1.581   8.240  0.0425  0.5882 -0.0336
 3796TIP3    H133023   0.384   1.502   8.264 -1.3503  1.8643  1.5356
 3796TIP3    H233024   0.448   1.627   8.323  0.8145  1.9833 -0.9006
 3797TIP3   OH233025   2.215   4.166   7.805  0.5270 -0.0062  0.7449
 3797TIP3    H133026   2.223   4.090   7.863  3.0837  0.3382  0.9459
 3797TIP3    H233027   2.125   4.161   7.772  0.9553 -3.8889 -0.3323
 3798TIP3   OH233028   3.171   5.818   0.106 -0.3029 -0.3173 -0.2652
 3798TIP3    H133029   3.163   5.877   0.032 -1.9370  0.5305  0.5374
 3798TIP3    H233030   3.257   5.837   0.143 -0.5766  1.1749 -0.3514
 3799TIP3   OH233031   2.883   0.418   7.300 -0.3344  0.0059 -0.0158
 3799TIP3    H133032   2.851   0.394   7.213  1.2306 -0.8267 -0.3956
 3799TIP3    H233033   2.863   0.342   7.354  0.3692 -0.2532 -0.1067
 3800TIP3   OH233034   2.760   5.441   6.784 -0.1459  0.0186 -0.2639
 3800TIP3    H133035   2.698   5.420   6.854 -1.0070 -0.4322 -1.1331
 3800TIP3    H233036   2.708   5.435   6.703  1.1065 -0.6872 -1.0479
 3801TIP3   OH233037   3.529   4.049   1.047  0.6766 -0.7574  0.1315
 3801TIP3    H133038   3.592   4.119   1.031 -0.1742  0.2451  1.0332
 3801TIP3    H233039   3.508   4.016   0.960  3.2086 -1.8556 -0.1531
 3802TIP3   OH233040   3.696   3.520   1.369 -0.4291 -0.4606 -0.5765
 3802TIP3    H133041   3.649   3.582   1.425 -1.9203 -0.8805 -1.3179
 3802TIP3    H233042   3.638   3.506   1.294  0.8434 -1.0960 -1.4814
 3803TIP3   OH233043   2.007   0.389   1.016  0.4292 -0.5445  0.3988
 3803TIP3    H133044   2.056   0.334   1.077  1.0214  0.5188  0.8958
 3803TIP3    H233045   2.071   0.413   0.949 -0.1924 -1.6280 -0.6239
 3804TIP3   OH233046   1.323   5.258   7.572 -0.2296 -0.2501  0.5793
 3804TIP3    H133047   1.387   5.289   7.508  0.3154 -0.5328  0.9822
 3804TIP3    H233048   1.366   5.268   7.657 -1.0744  0.4412  0.9460
 3805TIP3   OH233049   2.349   5.017   8.287 -0.4802 -0.3000  0.1668
 3805TIP3    H133050   2.294   5.064   8.349 -1.1131 -0.8536  0.0265
 3805TIP3    H233051   2.340   5.066   8.205  1.4040  1.2357  0.7874
 3806TIP3   OH233052   5.225   1.672   8.079  0.5179 -0.0964 -0.6158
 3806TIP3    H133053   5.299   1.710   8.127  0.4907 -0.3876 -0.3439
 3806TIP3    H233054   5.227   1.579   8.101 -1.5800  0.2863  1.6669
 3807TIP3   OH233055   5.737   4.692   7.944 -0.1375  0.7147  0.2908
 3807TIP3    H133056   5.668   4.626   7.958  1.4223 -1.2933 -0.9492
 3807TIP3    H233057   5.691   4.767   7.905 -2.0023  0.4967  1.9132
 3808TIP3   OH233058   0.872   1.107   1.179 -0.7739  0.0296 -0.2378
 3808TIP3    H133059   0.785   1.137   1.152 -0.4766 -0.0326 -1.3197
 3808TIP3    H233060   0.922   1.102   1.098 -0.2141 -1.4486  0.1615
 3809TIP3   OH233061   5.840   1.139   8.512  0.1043  0.4515 -0.0929
 3809TIP3    H133062   5.869   1.052   8.542 -0.0405 -0.0916 -1.4386
 3809TIP3    H233063   5.879   1.200   8.574  3.8420 -0.2502 -1.5075
 3810TIP3   OH233064   5.579   3.242   0.857  0.2960 -0.0411  0.1052
 3810TIP3    H133065   5.633   3.274   0.929  1.7687 -1.3307 -0.3636
 3810TIP3    H233066   5.535   3.165   0.892  1.1246 -0.7558 -0.3641
 3811TIP3   OH233067   2.043   2.542   6.946 -0.2998  0.4036  0.6819
 3811TIP3    H133068   1.959   2.546   6.900 -0.0918 -1.6549  0.0238
 3811TIP3    H233069   2.067   2.634   6.959 -1.7169  1.0468 -0.8315
 3812TIP3   OH233070   0.778   1.673   8.120 -0.1261 -0.2701  0.2224
 3812TIP3    H133071   0.848   1.739   8.115 -1.4402  1.0977 -1.3971
 3812TIP3    H233072   0.706   1.717   8.164 -0.3713 -1.3127  0.9021
 3813TIP3   OH233073   0.918   2.253   7.829  0.0595 -0.2898  0.3166
 3813TIP3    H133074   0.868   2.240   7.910  0.4109 -1.0566  0.4242
 3813TIP3    H233075   1.007   2.273   7.858  0.0805 -0.1033  0.1215
 3814TIP3   OH233076   1.776   0.815   7.807  0.1139  0.4649 -0.2426
 3814TIP3    H133077   1.687   0.848   7.791  0.1067  0.7146  0.2951
 3814TIP3    H233078   1.770   0.768   7.890  0.7119  1.3835  0.3357
 3815TIP3   OH233079   2.378   5.428   8.103 -0.1248  0.1081 -0.2964
 3815TIP3    H133080   2.396   5.512   8.061  0.2660  0.1688 -0.0141
 3815TIP3    H233081   2.457   5.375   8.086 -0.6985 -0.4928 -1.1841
 3816TIP3   OH233082   3.435   2.577   0.863  0.5801  0.2069 -0.5624
 3816TIP3    H133083   3.385   2.543   0.938  0.9981  3.4018  1.3709
 3816TIP3    H233084   3.508   2.516   0.854 -0.2632 -1.0665  0.6626
 3817TIP3   OH233085   0.564   1.227   8.955 -0.1518 -0.4285  0.2918
 3817TIP3    H133086   0.507   1.174   8.901 -1.0040 -0.4675  1.1942
 3817TIP3    H233087   0.546   1.317   8.929  0.9102 -0.5230 -0.8688
 3818TIP3   OH233088   6.447   2.481   1.088 -0.1930 -0.1131  0.4155
 3818TIP3    H133089   6.524   2.470   1.142 -1.3808 -0.4866  2.1029
 3818TIP3    H233090   6.415   2.569   1.108 -1.4298 -0.7604  1.4473
 3819TIP3   OH233091   1.661   4.955   6.653 -0.7596  0.2184 -0.3000
 3819TIP3    H133092   1.584   4.904   6.630 -0.4917  0.6085 -2.1506
 3819TIP3    H233093   1.724   4.937   6.584  0.9153 -0.2402  1.2694
 3820TIP3   OH233094   1.242   3.420   2.162  0.4179  0.4397 -0.0931
 3820TIP3    H133095   1.164   3.474   2.170  0.1201 -0.2007  2.0867
 3820TIP3    H233096   1.218   3.352   2.099 -1.8078 -1.2324  2.3097
 3821TIP3   OH233097   3.744   3.372   8.050 -0.1543  0.0828 -0.7209
 3821TIP3    H133098   3.697   3.446   8.088 -0.0698 -0.1517 -0.1418
 3821TIP3    H233099   3.718   3.297   8.104  0.9792 -0.0236 -0.2947
 3822TIP3   OH233100   5.450   5.162   7.879 -0.1430 -0.2711 -0.3528
 3822TIP3    H133101   5.377   5.156   7.818 -0.0627 -0.5700 -0.4194
 3822TIP3    H233102   5.413   5.135   7.963 -0.1654 -0.2075 -0.3424
 3823TIP3   OH233103   2.895   6.736   0.691 -0.0574  0.3474 -0.1481
 3823TIP3    H133104   2.900   6.724   0.596 -0.3226  1.3631 -0.3119
 3823TIP3    H233105   2.943   6.662   0.728  1.0560  0.5564 -1.1076
 3824TIP3   OH233106   1.009   0.290   1.100 -0.2840 -0.2811  0.0804
 3824TIP3    H133107   1.024   0.378   1.064  2.3414 -0.8111 -0.3953
 3824TIP3    H233108   1.009   0.302   1.195 -2.3199  0.4944  0.0218
 3825TIP3   OH233109   6.310   1.010   6.863 -0.1443 -0.4057  0.0650
 3825TIP3    H133110   6.290   0.953   6.937 -0.8442 -0.4905 -0.1886
 3825TIP3    H233111   6.404   1.029   6.872 -0.0123 -1.2080  0.4160
 3826TIP3   OH233112   5.012   2.783   1.495  0.1140  0.1591 -1.1877
 3826TIP3    H133113   4.918   2.802   1.503  0.2752  0.5738 -0.0342
 3826TIP3    H233114   5.039   2.762   1.585  0.6294 -2.3749 -1.8617
 3827TIP3   OH233115   0.176   6.666   1.164 -0.2541  0.2854 -0.0533
 3827TIP3    H133116   0.168   6.761   1.159 -0.2054  0.2840 -0.1539
 3827TIP3    H233117   0.091   6.636   1.198  0.6315  0.5809  2.6912
 3828TIP3   OH233118   4.839   5.808   8.669  0.3275  0.7192  0.1483
 3828TIP3    H133119   4.865   5.815   8.760 -0.3804  0.9313  0.3404
 3828TIP3    H233120   4.901   5.863   8.622  0.9104  0.3293  0.4566
 3829TIP3   OH233121   2.082   6.759   0.142  0.0842 -0.1862 -0.2451
 3829TIP3    H133122   2.148   6.808   0.092  0.0647 -0.6408 -0.7272
 3829TIP3    H233123   2.007   6.753   0.082  0.0840 -0.7937 -0.1919
 3830TIP3   OH233124   3.997   3.515   7.388 -0.0439  0.5539  0.0026
 3830TIP3    H133125   3.972   3.434   7.434 -1.6118  0.8835 -0.2126
 3830TIP3    H233126   4.050   3.563   7.451  0.7253 -0.5261  0.2158
 3831TIP3   OH233127   1.318   4.761   0.948  0.5393 -0.4043  0.0511
 3831TIP3    H133128   1.251   4.825   0.971  1.5545  0.4219  0.8657
 3831TIP3    H233129   1.283   4.677   0.976  0.1145  0.1000  1.0657
 3832TIP3   OH233130   3.884   6.102   1.777  0.9995 -0.0140  0.2911
 3832TIP3    H133131   3.910   6.139   1.862 -0.4715 -0.1903  0.8355
 3832TIP3    H233132   3.837   6.022   1.799 -3.7424  2.2988 -0.2680
 3833TIP3   OH233133   6.551   5.874   8.098  0.0954 -0.1322  0.2453
 3833TIP3    H133134   6.461   5.853   8.074  0.1840 -0.4230  0.1643
 3833TIP3    H233135   6.570   5.816   8.171 -0.9404  2.2758  2.5947
 3834TIP3   OH233136   3.470   5.345   7.870 -0.0496 -0.7644  0.2510
 3834TIP3    H133137   3.515   5.266   7.840  0.3921 -0.8136  1.0086
 3834TIP3    H233138   3.423   5.377   7.793  2.9310  0.4639 -1.2380
 3835TIP3   OH233139   6.690   4.161   1.055 -0.3651  0.0730 -0.0342
 3835TIP3    H133140   6.666   4.068   1.049 -0.6058  0.1872 -0.9673
 3835TIP3    H233141   6.752   4.164   1.128 -1.4797 -0.5745  0.9843
 3836TIP3   OH233142   6.653   6.398   7.242  0.0905 -0.2482 -0.4805
 3836TIP3    H133143   6.668   6.354   7.325 -0.0214 -1.1038 -0.9034
 3836TIP3    H233144   6.716   6.471   7.242 -1.4917  1.2328  1.3662
 3837TIP3   OH233145   4.777   5.409   0.227  0.5880 -0.0735 -0.2332
 3837TIP3    H133146   4.746   5.331   0.181 -0.2312 -0.3171  0.6882
 3837TIP3    H233147   4.821   5.374   0.305  0.1903  0.3791  0.1990
 3838TIP3   OH233148   2.308   2.762   7.046  0.5344 -0.1118  0.1060
 3838TIP3    H133149   2.225   2.790   7.008 -0.6905 -4.2523 -0.7692
 3838TIP3    H233150   2.370   2.765   6.974 -0.0653 -1.2765 -0.4994
 3839TIP3   OH233151   2.362   5.808   7.651  0.1885  0.3125 -0.1133
 3839TIP3    H133152   2.273   5.807   7.685  0.2352  2.5150  0.2262
 3839TIP3    H233153   2.351   5.817   7.556  0.0827 -1.0317 -0.2527
 3840TIP3   OH233154   5.353   0.554   0.414  0.1237  0.4306 -0.6137
 3840TIP3    H133155   5.378   0.547   0.322 -0.3719  0.8482 -0.7845
 3840TIP3    H233156   5.403   0.628   0.448 -0.6433  1.0935 -0.8861
 3841TIP3   OH233157   0.908   1.415   7.977 -0.5759 -0.0543  0.3572
 3841TIP3    H133158   0.974   1.485   7.982  0.5520 -0.6528 -3.2635
 3841TIP3    H233159   0.827   1.460   7.956 -0.4861  0.3747  0.9036
 3842TIP3   OH233160   6.490   2.929   7.307 -0.8021 -0.7520 -0.0805
 3842TIP3    H133161   6.518   2.837   7.311  2.4490  0.0655 -0.9716
 3842TIP3    H233162   6.550   2.975   7.364 -3.8788  0.6619  2.2936
 3843TIP3   OH233163   6.624   2.832   8.907  0.1812  0.1920 -0.1413
 3843TIP3    H133164   6.633   2.925   8.929 -1.8079  0.3791  0.0589
 3843TIP3    H233165   6.529   2.819   8.897  0.5584 -1.3199 -2.3487
 3844TIP3   OH233166   3.946   2.617   0.224  0.1660 -0.6040 -0.6517
 3844TIP3    H133167   3.915   2.576   0.143  3.1553 -1.4716 -1.4724
 3844TIP3    H233168   3.943   2.711   0.206  1.0605 -0.7971 -1.9054
 3845TIP3   OH233169   6.182   6.548   1.296 -0.2645  0.5739  0.2479
 3845TIP3    H133170   6.175   6.465   1.247  0.0137  1.2211 -0.9274
 3845TIP3    H233171   6.100   6.553   1.345 -0.0101 -0.7119  0.8698
 3846TIP3   OH233172   6.500   4.788   7.607  0.4660  0.0520  0.6570
 3846TIP3    H133173   6.586   4.776   7.647  0.4917 -0.5254  0.4380
 3846TIP3    H233174   6.451   4.841   7.671  0.6775 -0.4195  1.2195
 3847TIP3   OH233175   0.220   0.952   2.028 -0.1588  0.0040 -0.0115
 3847TIP3    H133176   0.280   0.922   1.960 -0.3318 -0.6031  0.0958
 3847TIP3    H233177   0.276   0.976   2.102 -0.0390 -0.4156  0.0341
 3848TIP3   OH233178   0.164   3.137   8.445  0.3857 -0.1343 -0.4332
 3848TIP3    H133179   0.175   3.165   8.535  0.5463  3.2535 -1.3701
 3848TIP3    H233180   0.075   3.103   8.441 -0.0474  0.7893  0.7740
 3849TIP3   OH233181   5.241   0.808   7.511 -0.1898  0.2063  0.3174
 3849TIP3    H133182   5.315   0.769   7.464 -1.5298 -2.6220  0.3436
 3849TIP3    H233183   5.276   0.888   7.549  2.3714 -0.1467 -1.0982
 3850TIP3   OH233184   6.741   1.530   7.899  0.2449  0.4465  0.5534
 3850TIP3    H133185   6.691   1.605   7.866 -0.5982 -0.6474 -0.7275
 3850TIP3    H233186   6.689   1.454   7.876  0.8119 -0.5404  2.3348
 3851TIP3   OH233187   5.662   4.676   0.906 -0.3340  0.2346  0.4987
 3851TIP3    H133188   5.747   4.631   0.899 -0.5279 -0.4258  2.0204
 3851TIP3    H233189   5.630   4.681   0.816  0.7369 -0.6519  0.0414
 3852TIP3   OH233190   5.957   4.788   7.205  0.7329  0.1469  0.1725
 3852TIP3    H133191   5.909   4.832   7.275  0.7723  0.2801  0.1151
 3852TIP3    H233192   5.888   4.759   7.145  0.7198  0.3022  0.1111
 3853TIP3   OH233193   4.628   3.480   2.255  0.0938 -0.2056  0.8337
 3853TIP3    H133194   4.566   3.456   2.186 -0.2773 -2.1525  1.7760
 3853TIP3    H233195   4.666   3.397   2.283  0.1872  0.5093  3.0179
 3854TIP3   OH233196   4.709   5.718   1.213  0.1821  0.4018 -0.2267
 3854TIP3    H133197   4.754   5.680   1.288  0.4201  1.6924  0.3228
 3854TIP3    H233198   4.720   5.813   1.225 -2.0540  0.7404 -0.4607
 3855TIP3   OH233199   5.303   4.832   7.688 -0.3138 -0.3577 -0.0723
 3855TIP3    H133200   5.211   4.856   7.680  0.1448  0.9114 -2.5717
 3855TIP3    H233201   5.302   4.746   7.730 -2.5714 -0.0749  0.5932
 3856TIP3   OH233202   0.774   5.189   8.319 -0.4495  0.8498 -0.3157
 3856TIP3    H133203   0.741   5.142   8.395 -1.5575  0.8324 -0.8028
 3856TIP3    H233204   0.866   5.162   8.312 -1.0287 -1.1471 -0.5328
 3857TIP3   OH233205   5.308   2.877   7.467  0.0691  0.5360  0.4105
 3857TIP3    H133206   5.224   2.833   7.457  0.3850  0.1417 -0.6547
 3857TIP3    H233207   5.342   2.886   7.377  1.5967 -0.1949  0.8704
 3858TIP3   OH233208   1.361   5.539   8.456  0.1306 -0.4051 -0.5928
 3858TIP3    H133209   1.405   5.597   8.394 -2.7174  0.6184 -1.8406
 3858TIP3    H233210   1.326   5.598   8.522  1.4168 -1.2976  0.9548
 3859TIP3   OH233211   6.586   3.141   0.037  0.4920  0.1767 -0.6295
 3859TIP3    H133212   6.552   3.130   0.126  0.2653 -0.5920 -0.8040
 3859TIP3    H233213   6.678   3.163   0.049  0.5413 -0.2574 -0.2148
 3860TIP3   OH233214   0.115   3.529   8.038 -0.7077 -0.0598 -0.1604
 3860TIP3    H133215   0.073   3.473   8.103 -1.8205  0.7025 -0.1904
 3860TIP3    H233216   0.206   3.500   8.036 -1.3402 -2.1328 -0.5021
 3861TIP3   OH233217   6.760   3.382   8.234  0.3414 -0.4693 -0.1887
 3861TIP3    H133218   6.812   3.374   8.314  1.0875  1.0965 -0.4700
 3861TIP3    H233219   6.751   3.293   8.201  1.7158 -0.9142  0.5981
 3862TIP3   OH233220   1.197   5.079   0.876 -0.0043  0.2401  0.0774
 3862TIP3    H133221   1.290   5.099   0.882 -0.1304  0.9282 -0.1876
 3862TIP3    H233222   1.180   5.022   0.952  0.7315 -0.3199 -0.1604
 3863TIP3   OH233223   4.682   3.730   2.171 -0.5161  0.4468 -0.1020
 3863TIP3    H133224   4.598   3.775   2.163  0.1228  1.5871 -0.7361
 3863TIP3    H233225   4.659   3.640   2.193 -1.9687  0.3669 -1.6921
 3864TIP3   OH233226   4.666   0.433   6.956 -0.6524  0.3025 -0.0579
 3864TIP3    H133227   4.596   0.380   6.993  1.1472 -2.0934  0.2158
 3864TIP3    H233228   4.659   0.420   6.861 -0.1482 -0.6261  0.0134
 3865TIP3   OH233229   6.284   0.745   0.405 -0.5655 -0.2903 -0.1246
 3865TIP3    H133230   6.245   0.677   0.350 -1.9836  0.9547 -0.7589
 3865TIP3    H233231   6.367   0.766   0.362 -2.1866  1.5585 -2.7158
 3866TIP3   OH233232   4.092   0.889   7.245  0.2021 -0.3724  0.3293
 3866TIP3    H133233   4.188   0.898   7.249  0.1274  1.0620 -0.3158
 3866TIP3    H233234   4.076   0.833   7.169  0.5395 -1.4625  1.0343
 3867TIP3   OH233235   4.098   0.009   1.641  0.6544  0.1826  0.3301
 3867TIP3    H133236   4.121   0.072   1.709  0.0732 -0.8826  1.5431
 3867TIP3    H233237   4.177  -0.045   1.630  1.2332  1.2195 -0.8736
 3868TIP3   OH233238   0.302   5.483   8.026 -0.2286 -0.4586 -0.0921
 3868TIP3    H133239   0.389   5.444   8.023  1.0448  1.9679  1.8654
 3868TIP3    H233240   0.270   5.465   8.114 -0.6873  0.6659 -0.0062
 3869TIP3   OH233241   1.738   2.792   1.020  0.3616 -0.4245  0.3232
 3869TIP3    H133242   1.782   2.718   1.061  0.6675 -0.5812 -0.2805
 3869TIP3    H233243   1.664   2.753   0.973  1.4074 -0.5623 -1.2866
 3870TIP3   OH233244   3.590   3.151   1.665  0.6576 -0.1066 -0.2628
 3870TIP3    H133245   3.607   3.234   1.710  0.2922  0.8657 -1.8628
 3870TIP3    H233246   3.539   3.100   1.728  3.3306 -0.3442  1.9217
 3871TIP3   OH233247   0.188   4.108   1.627  0.1851  0.0362  0.2577
 3871TIP3    H133248   0.122   4.076   1.565  1.1459 -1.2335 -0.1640
 3871TIP3    H233249   0.146   4.098   1.712  0.0397 -1.3945  0.0518
 3872TIP3   OH233250   3.504   0.658   0.411  0.3842  0.0131 -0.2607
 3872TIP3    H133251   3.447   0.595   0.367  1.6239 -1.2558 -0.0811
 3872TIP3    H233252   3.591   0.642   0.375  0.9866  0.6216  0.8597
 3873TIP3   OH233253   4.174   6.329   6.812  0.0412  0.1031  0.2409
 3873TIP3    H133254   4.138   6.242   6.793  0.8441 -0.1390 -0.2046
 3873TIP3    H233255   4.254   6.311   6.862  0.7378  0.5390 -0.7008
 3874TIP3   OH233256   1.024   4.337   6.259  0.5814  0.0732 -0.6643
 3874TIP3    H133257   1.026   4.267   6.194  1.2845 -1.3356  0.8129
 3874TIP3    H233258   1.053   4.415   6.212 -0.4299 -0.5453 -2.4054
 3875TIP3   OH233259   1.740   5.115   7.707  0.9259 -0.6552 -0.3296
 3875TIP3    H133260   1.697   5.199   7.717  1.4941 -0.2869 -0.8702
 3875TIP3    H233261   1.741   5.099   7.612  1.4053 -0.9455 -0.2831
 3876TIP3   OH233262   4.522   3.058   8.266 -0.2890  0.2677  0.4080
 3876TIP3    H133263   4.522   2.986   8.329 -2.1638 -0.0397  0.1127
 3876TIP3    H233264   4.614   3.071   8.244  0.0868 -2.0392  0.4393
 3877TIP3   OH233265   3.274   4.344   0.901  0.2986  0.2579 -0.3141
 3877TIP3    H133266   3.355   4.294   0.884  0.3547 -0.4760  1.8464
 3877TIP3    H233267   3.285   4.424   0.851  2.5464  0.3182  0.1711
 3878TIP3   OH233268   3.005   3.896   2.244  0.3163  0.5061 -0.5359
 3878TIP3    H133269   2.954   3.823   2.208 -0.3636  0.9294 -0.4730
 3878TIP3    H233270   2.965   3.974   2.204 -0.5313  1.0106  1.1944
 3879TIP3   OH233271   3.921   0.264   7.714 -0.0084  0.3015  0.2804
 3879TIP3    H133272   3.840   0.271   7.665  0.2589 -0.4962 -0.2909
 3879TIP3    H233273   3.976   0.335   7.681  0.5860 -0.8854 -1.4123
 3880TIP3   OH233274   3.871   4.888   8.553 -0.1915 -0.2978  0.3909
 3880TIP3    H133275   3.794   4.939   8.527 -0.0211  0.2296  0.8994
 3880TIP3    H233276   3.944   4.930   8.508  0.0582  0.4069  1.4216
 3881TIP3   OH233277   0.967   4.013   8.596 -0.2544 -0.0943  0.0319
 3881TIP3    H133278   0.990   4.002   8.688 -2.2385 -1.9001  0.3828
 3881TIP3    H233279   1.038   3.970   8.548 -0.6568 -1.7546  0.8704
 3882TIP3   OH233280   5.419   2.677   0.217  0.1168  0.2258  0.4488
 3882TIP3    H133281   5.496   2.636   0.178 -0.1970 -1.2700  1.3178
 3882TIP3    H233282   5.387   2.738   0.150  0.7866 -0.7370 -0.7827
 3883TIP3   OH233283   5.296   4.944   1.467 -0.0229  0.2678  0.0038
 3883TIP3    H133284   5.371   4.885   1.471 -1.1196 -1.0791  2.6790
 3883TIP3    H233285   5.335   5.032   1.465  1.6461 -0.3822  1.2846
 3884TIP3   OH233286   5.513   3.728   0.331 -0.0089  0.0691 -0.7295
 3884TIP3    H133287   5.572   3.698   0.401  0.2293 -1.1006 -1.4084
 3884TIP3    H233288   5.427   3.730   0.372  0.1340 -0.5630 -0.3918
 3885TIP3   OH233289   4.362   1.160   7.404 -0.4190  0.1834 -0.4770
 3885TIP3    H133290   4.274   1.189   7.382 -1.4521 -2.1630  0.1608
 3885TIP3    H233291   4.398   1.229   7.460 -1.4871  1.5901 -1.4867
 3886TIP3   OH233292   2.760   5.250   7.846  0.1897 -0.1862  0.1357
 3886TIP3    H133293   2.824   5.283   7.783 -2.5531  0.9313 -2.3082
 3886TIP3    H233294   2.743   5.160   7.819  0.7789 -0.5317  0.8738
 3887TIP3   OH233295   5.022   5.823   1.128 -0.6934 -0.0515  0.1169
 3887TIP3    H133296   5.033   5.753   1.193 -2.1558  0.0083  0.4747
 3887TIP3    H233297   4.992   5.778   1.049  0.2059 -0.0242 -0.2483
 3888TIP3   OH233298   1.879   3.188   6.831  0.3292  0.5216  0.3532
 3888TIP3    H133299   1.877   3.252   6.760 -1.0112  0.3292  0.1827
 3888TIP3    H233300   1.909   3.237   6.908  3.8528  0.2829 -0.6939
 3889TIP3   OH233301   4.271   6.603   2.385 -0.4594  0.4106 -0.0223
 3889TIP3    H133302   4.314   6.688   2.395 -0.9586  0.5539  1.1065
 3889TIP3    H233303   4.272   6.565   2.473  1.1864 -1.4883 -0.7692
 3890TIP3   OH233304   4.585   5.983   1.796 -0.4670  0.5440 -0.7191
 3890TIP3    H133305   4.651   5.984   1.866  0.3047  1.5620 -1.4371
 3890TIP3    H233306   4.636   5.984   1.715 -1.3377 -1.3129 -1.3388
 3891TIP3   OH233307   1.853   1.556   7.260  0.8593  0.0553 -0.0548
 3891TIP3    H133308   1.889   1.491   7.320  1.5560 -0.8645 -1.4261
 3891TIP3    H233309   1.928   1.607   7.231  0.3537  1.3611  0.8101
 3892TIP3   OH233310   1.981   5.878   0.588 -0.0659  0.2048 -0.0714
 3892TIP3    H133311   1.914   5.838   0.644 -0.8229 -0.1988 -1.2257
 3892TIP3    H233312   1.950   5.967   0.574  0.6290  0.6139  0.9350
 3893TIP3   OH233313   6.461   5.495   1.675 -0.0610 -0.3771  0.1436
 3893TIP3    H133314   6.481   5.584   1.704 -0.2783 -0.6000  1.0200
 3893TIP3    H233315   6.453   5.445   1.757 -1.0150 -0.9698 -0.2969
 3894TIP3   OH233316   4.762   4.505   0.652 -0.3959  0.0518 -0.3525
 3894TIP3    H133317   4.803   4.540   0.573  0.3852 -0.9135 -0.3989
 3894TIP3    H233318   4.693   4.568   0.673 -0.9220  0.1061 -2.0578
 3895TIP3   OH233319   2.995   0.389   1.045  0.0043 -0.3311  0.1249
 3895TIP3    H133320   2.984   0.329   0.971  0.7932  0.0018 -0.2627
 3895TIP3    H233321   3.068   0.353   1.095  0.0336 -0.0766  0.2686
 3896TIP3   OH233322   3.532   2.387   0.073  0.6926 -0.0361  0.2576
 3896TIP3    H133323   3.615   2.356   0.108 -0.4827 -2.6940  0.9715
 3896TIP3    H233324   3.538   2.368  -0.021  1.1591  0.4790  0.1787
 3897TIP3   OH233325   1.319   0.134   1.313 -0.0689 -0.4643 -0.7122
 3897TIP3    H133326   1.364   0.056   1.345  2.3099  1.0948  0.0126
 3897TIP3    H233327   1.316   0.123   1.218  0.2376 -1.4288 -0.6187
 3898TIP3   OH233328   1.255   3.848   1.331 -0.0769 -0.3169 -0.1552
 3898TIP3    H133329   1.344   3.881   1.345 -0.1208 -1.3150  3.7046
 3898TIP3    H233330   1.204   3.925   1.307  1.3956  0.7390 -0.0279
 3899TIP3   OH233331   3.519   3.942   7.236 -0.0458 -0.1249 -0.2257
 3899TIP3    H133332   3.489   3.861   7.195  1.0097 -1.4514  1.4848
 3899TIP3    H233333   3.438   3.984   7.268 -0.5843 -0.5882 -0.9538
 3900TIP3   OH233334   6.399   6.198   1.190 -0.4259  0.1522  0.3007
 3900TIP3    H133335   6.317   6.184   1.144  0.2688 -1.6612 -0.4785
 3900TIP3    H233336   6.400   6.132   1.259  1.1561 -1.0982 -0.8516
 3901TIP3   OH233337   0.270   3.899   1.948  0.4229 -0.0911  0.0178
 3901TIP3    H133338   0.178   3.922   1.929  0.0630  0.2330  1.9548
 3901TIP3    H233339   0.303   3.974   1.997  1.5032 -0.5508  0.0062
 3902TIP3   OH233340   0.245   5.659   6.514 -0.0321  0.2291 -0.2629
 3902TIP3    H133341   0.279   5.609   6.587 -0.4401  0.6432  0.2246
 3902TIP3    H233342   0.313   5.724   6.495  0.1902 -0.0504 -0.4335
 3903TIP3   OH233343   4.664   4.871   0.342 -0.3575 -0.1525  0.1130
 3903TIP3    H133344   4.729   4.814   0.383 -0.9034 -0.5230  0.4830
 3903TIP3    H233345   4.682   4.865   0.249 -1.0636 -1.7722  0.0499
 3904TIP3   OH233346   2.661   4.931   1.534 -0.0239 -0.2019 -0.1425
 3904TIP3    H133347   2.724   4.903   1.601 -2.1355 -0.9771  1.6481
 3904TIP3    H233348   2.579   4.941   1.582 -2.0342 -2.2367 -2.8529
 3905TIP3   OH233349   5.948   2.049   8.220 -0.3669  0.1844  0.2407
 3905TIP3    H133350   6.019   2.099   8.262  0.8094 -0.3587 -1.0162
 3905TIP3    H233351   5.884   2.036   8.290  0.6866  0.8457  1.3901
 3906TIP3   OH233352   3.113   5.270   0.809 -0.1295 -0.3778 -0.9402
 3906TIP3    H133353   3.130   5.335   0.740 -1.9706  1.9243  0.6315
 3906TIP3    H233354   3.196   5.260   0.854 -0.1720  2.2721 -0.1620
 3907TIP3   OH233355   0.088   0.374   1.818  0.0555 -0.3395  0.5443
 3907TIP3    H133356   0.172   0.329   1.804 -0.0442 -0.4607  0.3335
 3907TIP3    H233357   0.071   0.363   1.912  0.1702 -0.5025  0.5472
 3908TIP3   OH233358   5.301   2.892   8.254  0.2566 -0.4524  0.1786
 3908TIP3    H133359   5.372   2.957   8.252 -1.2103  1.2299 -0.5424
 3908TIP3    H233360   5.286   2.871   8.162  0.0877 -1.0968  0.3538
 3909TIP3   OH233361   4.882   5.078   7.840  0.1188 -0.4843 -0.0134
 3909TIP3    H133362   4.874   5.157   7.892 -0.2063  0.1323 -0.9724
 3909TIP3    H233363   4.839   5.010   7.892 -0.7365  0.2398  0.2499
 3910TIP3   OH233364   3.419   0.832   0.124  0.4896 -0.1845  0.4732
 3910TIP3    H133365   3.473   0.757   0.100  0.6759  0.0430  0.1626
 3910TIP3    H233366   3.331   0.796   0.137  0.6094 -0.4775  0.4818
 3911TIP3   OH233367   4.782   1.764   7.593 -0.3885  0.2879 -0.2825
 3911TIP3    H133368   4.804   1.739   7.683 -1.6496  2.0713  0.5784
 3911TIP3    H233369   4.866   1.761   7.547  0.1061 -1.8097  0.6043
 3912TIP3   OH233370   4.107   1.230   7.371  0.1922  0.0714  0.0715
 3912TIP3    H133371   4.051   1.233   7.449  1.0864  1.8897  0.6992
 3912TIP3    H233372   4.046   1.218   7.299 -0.8840  0.6222  0.8573
 3913TIP3   OH233373   6.127   0.662   1.537  0.3983  0.3137 -0.1517
 3913TIP3    H133374   6.215   0.629   1.517  0.6484  0.9757 -0.1717
 3913TIP3    H233375   6.135   0.702   1.624  0.1934  0.6318 -0.2738
 3914TIP3   OH233376   1.172   5.617   7.682 -0.2865  0.4538 -0.3944
 3914TIP3    H133377   1.135   5.698   7.718 -0.0681 -0.0228  0.9529
 3914TIP3    H233378   1.256   5.644   7.645 -0.8653  1.0960 -1.2863
 3915TIP3   OH233379   0.030   3.749   6.813 -0.2070  0.7511 -0.2532
 3915TIP3    H133380  -0.041   3.694   6.781 -1.0063  1.9864 -0.6722
 3915TIP3    H233381   0.106   3.722   6.761 -0.7998  0.6861 -1.1143
 3916TIP3   OH233382   2.348   1.433   0.464  0.0491  0.2418 -0.0870
 3916TIP3    H133383   2.421   1.465   0.411  0.3092 -0.0061  0.1201
 3916TIP3    H233384   2.281   1.501   0.456  0.7422  1.0287  0.6812
 3917TIP3   OH233385   0.501   2.865   1.412  0.7674 -0.3992  0.3559
 3917TIP3    H133386   0.585   2.908   1.394  0.1287  1.3838  1.4011
 3917TIP3    H233387   0.525   2.785   1.459  1.9820 -1.2180 -1.5306
 3918TIP3   OH233388   3.086   0.199   8.410  0.0663 -0.0505  0.1995
 3918TIP3    H133389   3.064   0.189   8.317  0.9622  0.9412 -0.1463
 3918TIP3    H233390   3.045   0.282   8.436 -0.3958 -0.4503  0.7561
 3919TIP3   OH233391   3.473   0.286   7.806 -0.2282  0.0642 -0.1819
 3919TIP3    H133392   3.563   0.299   7.836  0.1740 -1.9271 -0.3783
 3919TIP3    H233393   3.434   0.373   7.806  1.3546  0.8027  1.0169
 3920TIP3   OH233394   5.796   1.857   1.918  0.4501 -0.4237 -0.1887
 3920TIP3    H133395   5.841   1.935   1.884  1.6096 -0.2435  1.6544
 3920TIP3    H233396   5.716   1.892   1.958  2.0254  0.2119  2.6375
 3921TIP3   OH233397   2.047   6.338   8.288 -0.6673 -0.2366  0.3009
 3921TIP3    H133398   1.994   6.266   8.321 -2.9082  1.8053  1.5062
 3921TIP3    H233399   2.001   6.368   8.209  0.0516  0.0809 -0.0076
 3922TIP3   OH233400   4.888   3.580   1.507  0.5447 -0.0035  0.4054
 3922TIP3    H133401   4.897   3.674   1.489  1.7518 -0.0958  0.4619
 3922TIP3    H233402   4.813   3.553   1.454  1.0410  0.7270 -0.7083
 3923TIP3   OH233403   2.308   3.775   1.540 -0.2691  0.4388  0.5448
 3923TIP3    H133404   2.286   3.758   1.448  3.5498 -0.8231 -0.3230
 3923TIP3    H233405   2.297   3.690   1.583  3.1316 -0.4647 -0.1026
 3924TIP3   OH233406   4.360   2.823   0.853 -0.5006 -0.3257  0.1936
 3924TIP3    H133407   4.378   2.917   0.844 -1.3389 -0.3187 -1.9239
 3924TIP3    H233408   4.444   2.785   0.882  0.4855  0.8135 -1.0143
 3925TIP3   OH233409   1.115   1.099   8.527 -0.0700  0.0852  0.7734
 3925TIP3    H133410   1.206   1.071   8.528 -0.5638 -1.6880  0.3474
 3925TIP3    H233411   1.078   1.062   8.608 -0.5617  0.2475  0.6241
 3926TIP3   OH233412   4.054   3.984   8.235 -0.2802 -0.5694  0.0412
 3926TIP3    H133413   4.018   3.901   8.264  0.2697 -1.4515 -1.6426
 3926TIP3    H233414   4.092   4.023   8.313 -3.0864 -0.5014  1.4790
 3927TIP3   OH233415   1.288   6.029   8.771  0.0347  0.8356 -1.1176
 3927TIP3    H133416   1.222   6.094   8.793 -0.7132  0.0937 -1.1223
 3927TIP3    H233417   1.348   6.029   8.846 -1.2904 -0.1526 -0.0206
 3928TIP3   OH233418   1.405   4.394   8.739  0.7887 -0.7201 -0.0970
 3928TIP3    H133419   1.466   4.467   8.736  1.2162 -1.0934 -0.5993
 3928TIP3    H233420   1.398   4.372   8.832  0.2711  0.2696  0.1153
 3929TIP3   OH233421   3.062   3.749   1.272  0.6920  0.1090  0.4168
 3929TIP3    H133422   3.117   3.824   1.295 -0.7558  1.2420  0.3605
 3929TIP3    H233423   2.976   3.788   1.254  0.2372 -1.4280 -0.9071
 3930TIP3   OH233424   0.827   0.606   0.461  0.4159  0.3742 -0.9723
 3930TIP3    H133425   0.843   0.646   0.376  1.1061  1.9400 -0.1337
 3930TIP3    H233426   0.734   0.619   0.477  0.0662 -0.7937 -1.8820
 3931TIP3   OH233427   2.066   3.502   6.662 -0.7251 -0.2121  0.2035
 3931TIP3    H133428   1.990   3.489   6.719 -0.1017 -1.3216  0.8044
 3931TIP3    H233429   2.141   3.495   6.720 -0.1430  0.7457 -0.4130
 3932TIP3   OH233430   0.796   0.399   8.543 -0.0650 -0.2001  0.1020
 3932TIP3    H133431   0.875   0.347   8.529  0.2160  0.2452 -0.0042
 3932TIP3    H233432   0.817   0.456   8.617 -0.9927 -1.4451  1.3910
 3933TIP3   OH233433   4.880   6.182   7.622 -0.0715  0.1062  0.3507
 3933TIP3    H133434   4.884   6.086   7.621  0.0559  0.0503  2.0925
 3933TIP3    H233435   4.956   6.209   7.673 -0.1254  1.1425 -0.0909
 3934TIP3   OH233436   5.328   1.589   1.170 -0.4229 -0.1485 -0.0780
 3934TIP3    H133437   5.371   1.505   1.185  0.3290  0.3129  0.4014
 3934TIP3    H233438   5.244   1.581   1.216  0.0646 -0.2867  0.8048
 3935TIP3   OH233439   3.594   6.458   1.766  0.3103 -0.3516  0.4168
 3935TIP3    H133440   3.573   6.396   1.836  2.4417 -1.7590 -0.0826
 3935TIP3    H233441   3.628   6.535   1.812 -2.2479  0.4953  1.0400
 3936TIP3   OH233442   0.489   0.984   7.002 -0.0053  0.1884  0.0457
 3936TIP3    H133443   0.493   0.999   6.907  0.3783  3.0465  0.4256
 3936TIP3    H233444   0.580   0.990   7.030 -0.2903  1.2632  0.7956
 3937TIP3   OH233445   4.427   4.623   7.692 -0.1662  0.2396  0.0292
 3937TIP3    H133446   4.454   4.556   7.754  1.5505 -1.0473 -1.9767
 3937TIP3    H233447   4.384   4.575   7.621 -0.5760  1.4580 -0.5894
 3938TIP3   OH233448   4.105   2.459   6.788 -0.4172 -0.2963  0.3483
 3938TIP3    H133449   4.082   2.529   6.849  1.7995  0.4124  0.4699
 3938TIP3    H233450   4.085   2.378   6.834 -0.8876  0.2459  1.1106
 3939TIP3   OH233451   6.071   4.607   1.484 -0.3499  0.2108 -0.4647
 3939TIP3    H133452   6.056   4.700   1.504  0.0024  0.3464 -0.8124
 3939TIP3    H233453   6.165   4.601   1.467 -0.2386 -0.3593  0.3051
 3940TIP3   OH233454   2.109   0.795   7.168 -0.1717 -0.6950  0.6653
 3940TIP3    H133455   2.185   0.738   7.154  0.4482 -0.0422  1.3450
 3940TIP3    H233456   2.040   0.755   7.114  0.7114 -1.1528 -0.1613
 3941TIP3   OH233457   2.804   3.449   8.618  0.8420 -0.2916 -0.0936
 3941TIP3    H133458   2.849   3.384   8.565  0.6784 -0.3719 -0.1342
 3941TIP3    H233459   2.827   3.427   8.708  1.6231  0.2164 -0.1569
 3942TIP3   OH233460   4.425   2.290   0.074 -0.3901 -0.0215  0.4941
 3942TIP3    H133461   4.447   2.250   0.158 -0.7148  1.1161  1.1434
 3942TIP3    H233462   4.423   2.216   0.012  2.1677 -0.5975  0.9716
 3943TIP3   OH233463   6.486   0.778   6.916  0.5391 -0.5773 -0.7886
 3943TIP3    H133464   6.512   0.864   6.884 -1.1831  0.1164 -0.4523
 3943TIP3    H233465   6.555   0.754   6.978  0.8719  0.7252 -0.6207
 3944TIP3   OH233466   3.822   4.434   7.659  0.0349 -0.1402 -0.3733
 3944TIP3    H133467   3.798   4.432   7.752 -0.1284  2.6417 -0.2681
 3944TIP3    H233468   3.739   4.424   7.613 -0.4360  2.0755 -0.1074
 3945TIP3   OH233469   3.608   6.150   8.492 -0.5167  0.4126  0.1043
 3945TIP3    H133470   3.576   6.074   8.540  1.1003  0.6120  1.6132
 3945TIP3    H233471   3.624   6.216   8.559  2.9398  0.3160 -0.4292
 3946TIP3   OH233472   0.286   2.563   8.653  1.0396  0.5158  0.3973
 3946TIP3    H133473   0.250   2.584   8.567  1.1637  1.5205  0.5790
 3946TIP3    H233474   0.212   2.574   8.713  0.8224 -0.6864  0.3646
 3947TIP3   OH233475   0.625   1.912   7.928  0.0255 -0.3093  0.5300
 3947TIP3    H133476   0.560   1.956   7.873 -0.3415 -1.5316 -0.0514
 3947TIP3    H233477   0.654   1.980   7.989 -0.0782  0.8890 -0.7025
 3948TIP3   OH233478   6.346   0.137   7.121  0.0907  0.5532 -0.3765
 3948TIP3    H133479   6.412   0.204   7.103  0.5571  0.2869  0.3130
 3948TIP3    H233480   6.396   0.056   7.131 -0.4933  0.0452 -1.4609
 3949TIP3   OH233481   5.447   6.719   2.058  0.2608  0.1213  0.3270
 3949TIP3    H133482   5.533   6.677   2.047 -0.8261 -1.9896 -0.9475
 3949TIP3    H233483   5.432   6.765   1.975 -0.0960 -0.0725  0.2810
 3950TIP3   OH233484   0.553   2.021   1.239  0.7597  0.1016 -0.5394
 3950TIP3    H133485   0.629   2.058   1.195  0.5370 -0.7930 -1.7484
 3950TIP3    H233486   0.520   1.955   1.178 -0.4367 -0.1766  0.3618
 3951TIP3   OH233487   4.101   5.593   6.204 -0.0695 -0.0086 -0.3003
 3951TIP3    H133488   4.060   5.677   6.184 -2.9047 -0.7286  1.7263
 3951TIP3    H233489   4.036   5.528   6.179  0.7966 -1.4197  0.9135
 3952TIP3   OH233490   4.057   2.898   7.505 -0.2090  0.5033  0.1006
 3952TIP3    H133491   4.004   2.898   7.426  0.8060  2.4859 -0.6432
 3952TIP3    H233492   4.112   2.820   7.497 -0.6363  0.2772 -0.7716
 3953TIP3   OH233493   1.818   6.142   0.033  0.2152 -0.0361  0.2818
 3953TIP3    H133494   1.905   6.106   0.019  0.2780  0.3790 -0.4323
 3953TIP3    H233495   1.793   6.112   0.121  0.5169 -1.2662 -0.0377
 3954TIP3   OH233496   1.050   0.228   7.496 -0.5294 -0.2711  0.1060
 3954TIP3    H133497   1.078   0.307   7.450 -1.1216  0.2141  0.5693
 3954TIP3    H233498   0.959   0.215   7.468 -0.3941 -0.8715 -0.0743
 3955TIP3   OH233499   3.955   6.093   1.133 -0.0449 -0.2765 -0.0856
 3955TIP3    H133500   3.876   6.129   1.172  0.3582 -0.6240  1.1058
 3955TIP3    H233501   3.995   6.166   1.086 -1.1401 -0.1398 -0.8324
 3956TIP3   OH233502   4.235   1.397   1.822  0.4538  0.0871 -0.0384
 3956TIP3    H133503   4.233   1.318   1.768  2.1934  0.4268 -0.6551
 3956TIP3    H233504   4.326   1.427   1.818 -0.2686  2.4575 -0.3154
 3957TIP3   OH233505   6.043   3.458   7.877 -0.1718 -0.2147 -0.8142
 3957TIP3    H133506   6.135   3.442   7.856  0.5644  1.6526  0.6599
 3957TIP3    H233507   6.013   3.518   7.808  0.1003  0.1387 -0.6311
 3958TIP3   OH233508   0.698   5.499   2.946 -0.0526  0.1404  0.1640
 3958TIP3    H133509   0.699   5.421   2.891 -0.6890 -0.1221  0.5143
 3958TIP3    H233510   0.745   5.565   2.895 -1.5515  0.2286 -1.1797
 3959TIP3   OH233511   3.927   0.285   8.159 -0.1681 -0.4047  0.4079
 3959TIP3    H133512   3.997   0.279   8.094 -0.3477 -0.6131  0.2359
 3959TIP3    H233513   3.886   0.199   8.159 -0.2318 -0.3772  0.7279
 3960TIP3   OH233514   1.924   0.556   0.313  0.1145  0.0254  0.0047
 3960TIP3    H133515   1.906   0.463   0.297 -0.9389  0.5362 -2.1623
 3960TIP3    H233516   2.020   0.563   0.309  0.1291 -0.7338 -1.3601
 3961TIP3   OH233517   2.326   5.917   7.095 -0.2076  0.1425 -0.2468
 3961TIP3    H133518   2.284   5.882   7.016 -0.0151 -1.7920  0.4554
 3961TIP3    H233519   2.327   6.012   7.081 -1.9847  0.0141 -1.6605
 3962TIP3   OH233520   0.222   6.695   8.364  0.0062  0.5921  0.1513
 3962TIP3    H133521   0.300   6.662   8.319 -0.2107  2.3708 -1.6687
 3962TIP3    H233522   0.256   6.743   8.440  0.4385 -1.4305  1.3299
 3963TIP3   OH233523   6.768   4.859   0.388  0.0693 -0.6254  0.2080
 3963TIP3    H133524   6.795   4.945   0.420  1.5013 -1.0469  0.1932
 3963TIP3    H233525   6.776   4.801   0.465  0.8517 -1.0857 -0.2056
 3964TIP3   OH233526   2.922   6.179   1.434 -0.4222  0.0415 -0.1034
 3964TIP3    H133527   2.879   6.261   1.459 -0.1446  0.7075 -1.6433
 3964TIP3    H233528   2.950   6.140   1.516  0.3934  2.0252  0.6210
 3965TIP3   OH233529   0.569   1.180   6.530 -0.4627 -0.4158 -0.0636
 3965TIP3    H133530   0.566   1.256   6.587 -1.2197 -1.3896  1.2485
 3965TIP3    H233531   0.658   1.146   6.539 -0.9231 -1.3051  1.6139
 3966TIP3   OH233532   3.627   5.228   8.707 -0.4738 -0.3109 -0.0657
 3966TIP3    H133533   3.608   5.200   8.618 -0.2543 -1.3635  0.2055
 3966TIP3    H233534   3.699   5.291   8.698 -0.4257 -0.4444 -0.6277
 3967TIP3   OH233535   2.162   1.302   6.489  0.2674  0.0373 -0.0237
 3967TIP3    H133536   2.244   1.349   6.471  0.6000 -0.2382  0.7132
 3967TIP3    H233537   2.160   1.295   6.585 -0.6446  0.0786 -0.0361
 3968TIP3   OH233538   1.211   1.552   0.883  0.3226 -0.2142 -0.1549
 3968TIP3    H133539   1.251   1.630   0.921  2.4291 -0.7413 -1.1621
 3968TIP3    H233540   1.148   1.524   0.949  0.1790  1.7921  0.6347
 3969TIP3   OH233541   5.296   0.400   1.665  0.0215 -0.2650 -0.2739
 3969TIP3    H133542   5.344   0.361   1.592  0.3939 -2.4350  1.0443
 3969TIP3    H233543   5.211   0.356   1.664 -0.6399  0.9601 -0.4054
 3970TIP3   OH233544   3.833   6.420   8.054  0.1930  0.3595  0.3820
 3970TIP3    H133545   3.795   6.379   7.976 -0.2855 -1.2875  1.4290
 3970TIP3    H233546   3.918   6.377   8.065  0.6673  1.2501  0.2581
 3971TIP3   OH233547   2.373   0.010   0.728  0.0550 -0.1481  0.6512
 3971TIP3    H133548   2.400   0.086   0.779 -1.1266  0.9682 -0.3087
 3971TIP3    H233549   2.434   0.008   0.654 -0.0098 -0.0429  0.5949
 3972TIP3   OH233550   4.330   3.400   8.326 -0.2785 -0.0383  0.2421
 3972TIP3    H133551   4.333   3.357   8.240  0.6114  0.5962 -0.0604
 3972TIP3    H233552   4.414   3.379   8.366 -0.4194  0.2250  0.6817
 3973TIP3   OH233553   5.870   1.120   6.184 -0.3071  0.0746  1.2105
 3973TIP3    H133554   5.853   1.114   6.278  0.8298 -0.3622  1.4068
 3973TIP3    H233555   5.865   1.214   6.165  1.8417  0.4652  2.2289
 3974TIP3   OH233556   0.578   5.808   8.774 -0.9037 -0.5399  0.5403
 3974TIP3    H133557   0.548   5.745   8.709 -1.1181  0.0938  0.0137
 3974TIP3    H233558   0.498   5.838   8.818 -0.8547 -0.2720  0.4508
 3975TIP3   OH233559   5.176   1.887   7.670 -0.6957 -0.3863 -0.5810
 3975TIP3    H133560   5.228   1.864   7.593  1.9527  0.2030  0.9031
 3975TIP3    H233561   5.108   1.946   7.636 -0.2618 -0.9635 -2.5862
 3976TIP3   OH233562   1.441   2.090   2.214  0.1643 -0.3258 -0.1643
 3976TIP3    H133563   1.379   2.029   2.254  0.1803 -0.9804 -1.1039
 3976TIP3    H233564   1.401   2.176   2.225 -0.8890 -0.7237 -0.6867
 3977TIP3   OH233565   0.157   6.559   8.696 -0.2130 -0.0275  0.1402
 3977TIP3    H133566   0.186   6.580   8.607 -0.8592 -2.1790 -0.6428
 3977TIP3    H233567   0.141   6.644   8.737 -2.0732  1.0486 -2.5310
 3978TIP3   OH233568   2.427   0.615   2.129  0.0476 -0.0540  0.1161
 3978TIP3    H133569   2.415   0.563   2.208 -2.1270 -0.1444 -0.2254
 3978TIP3    H233570   2.427   0.552   2.058 -0.4603  0.2298 -0.1395
 3979TIP3   OH233571   0.349   2.519   1.050 -0.4338  0.1526 -0.4363
 3979TIP3    H133572   0.320   2.532   1.140  0.2067  0.3247 -0.2505
 3979TIP3    H233573   0.278   2.555   0.996  0.4570  2.7564  0.0321
 3980TIP3   OH233574   5.733   4.111   1.313 -0.7334  0.1000 -0.4196
 3980TIP3    H133575   5.754   4.167   1.238 -2.5074  0.3302 -0.7801
 3980TIP3    H233576   5.793   4.139   1.382 -0.8078  1.6559 -0.9565
 3981TIP3   OH233577   1.614   5.356   8.405 -0.1706  0.2374 -0.4579
 3981TIP3    H133578   1.530   5.368   8.449  0.2748 -1.3020  0.9260
 3981TIP3    H233579   1.592   5.306   8.326 -0.5968  0.0589 -0.2334
 3982TIP3   OH233580   3.139   6.135   7.710 -0.0505 -0.3902  0.6335
 3982TIP3    H133581   3.106   6.059   7.660 -0.5780  0.4396 -0.3158
 3982TIP3    H233582   3.080   6.141   7.785 -1.0215  0.0370 -0.1416
 3983TIP3   OH233583   0.514   5.298   1.822 -0.0032 -0.3202  0.1654
 3983TIP3    H133584   0.577   5.356   1.865  0.5169 -0.4367 -0.4263
 3983TIP3    H233585   0.428   5.333   1.846  0.2906 -0.0264  0.7975
 3984TIP3   OH233586   3.345   6.671   7.224 -0.4781 -0.3538 -0.4255
 3984TIP3    H133587   3.353   6.695   7.316 -0.4124 -1.8552 -0.0107
 3984TIP3    H233588   3.318   6.579   7.225 -0.4907 -0.3979 -1.9067
 3985TIP3   OH233589   1.293   2.185   1.495 -0.0877 -0.3550 -0.2474
 3985TIP3    H133590   1.364   2.214   1.438 -0.7300  1.0133 -0.3776
 3985TIP3    H233591   1.241   2.263   1.512 -2.3838 -1.5427 -1.2886
 3986TIP3   OH233592   2.212   1.935   7.820 -0.1518  0.0577 -0.9373
 3986TIP3    H133593   2.247   2.020   7.847 -2.3142  1.3684 -1.9241
 3986TIP3    H233594   2.272   1.871   7.856  0.0320  1.8499  2.3351
 3987TIP3   OH233595   0.871   4.735   0.874 -0.5186  0.2969  0.7974
 3987TIP3    H133596   0.873   4.761   0.967  1.6895 -1.3079  1.2901
 3987TIP3    H233597   0.882   4.640   0.876  1.1552  0.4035 -1.1292
 3988TIP3   OH233598   2.526   5.463   8.670 -0.2114 -0.4323 -0.7524
 3988TIP3    H133599   2.478   5.479   8.589  0.3842 -1.2194 -1.2821
 3988TIP3    H233600   2.596   5.402   8.644  0.1857 -0.4330  0.2863
 3989TIP3   OH233601   1.549   5.969   7.597  0.3969  0.6629  0.2756
 3989TIP3    H133602   1.502   5.978   7.514 -0.7498  2.2390  1.0296
 3989TIP3    H233603   1.639   5.948   7.573 -0.4792 -1.7168 -1.2511
 3990TIP3   OH233604   2.133   4.991   0.703 -1.0060 -0.1469 -0.2053
 3990TIP3    H133605   2.143   5.044   0.782  1.7289 -0.6813 -0.0706
 3990TIP3    H233606   2.137   5.054   0.631 -1.6599  0.1780  0.0425
 3991TIP3   OH233607   6.116   2.687   8.759 -0.3321  0.3223  0.0616
 3991TIP3    H133608   6.125   2.626   8.832 -0.5393  0.5012  0.2403
 3991TIP3    H233609   6.075   2.764   8.798 -1.1807  0.1173 -0.3958
 3992TIP3   OH233610   1.933   4.043   8.573  0.0389  0.4773  0.7106
 3992TIP3    H133611   1.995   4.060   8.643  3.1006  4.0151 -2.4334
 3992TIP3    H233612   1.875   4.119   8.572 -0.3849  0.1646 -0.2399
 3993TIP3   OH233613   4.122   1.745   7.411 -0.3127 -0.6858 -0.3191
 3993TIP3    H133614   4.110   1.794   7.492 -1.4651 -0.2198 -0.7542
 3993TIP3    H233615   4.216   1.727   7.408 -0.0708  0.3474  0.5089
 3994TIP3   OH233616   6.354   5.884   6.798 -0.2875 -0.3605  0.1624
 3994TIP3    H133617   6.280   5.833   6.830 -1.8760  1.5934 -0.1892
 3994TIP3    H233618   6.390   5.927   6.875 -0.9959  0.4859  0.0316
 3995TIP3   OH233619   4.724   0.405   7.283 -0.4759  0.4091 -0.4080
 3995TIP3    H133620   4.812   0.369   7.286  0.0812  1.7559  0.1611
 3995TIP3    H233621   4.687   0.372   7.201  0.6885  0.1448 -0.8422
 3996TIP3   OH233622   2.432   3.488   8.082  0.6319  0.1236  0.1640
 3996TIP3    H133623   2.502   3.429   8.057 -0.1963 -0.5171 -0.7392
 3996TIP3    H233624   2.476   3.569   8.106  1.7097 -0.4656  0.2284
 3997TIP3   OH233625   0.216   0.251   8.359  0.2988  0.3369  0.2574
 3997TIP3    H133626   0.197   0.284   8.446  0.5527 -1.2689  0.9525
 3997TIP3    H233627   0.233   0.158   8.371 -0.0647 -0.0095 -1.5690
 3998TIP3   OH233628   2.412   6.492   8.954 -0.6662 -0.2422 -0.4958
 3998TIP3    H133629   2.369   6.408   8.937  0.1814 -1.0718  1.1491
 3998TIP3    H233630   2.501   6.481   8.921 -0.6601  0.1439 -0.6129
 3999TIP3   OH233631   1.986   2.900   8.186 -0.1588  0.1557  0.3337
 3999TIP3    H133632   2.059   2.941   8.140  0.0784 -1.8312 -1.1824
 3999TIP3    H233633   2.028   2.842   8.250 -0.4486  0.0758  0.4520
 4000TIP3   OH233634   2.664   1.179   2.206  0.3721 -0.8222 -0.1074
 4000TIP3    H133635   2.759   1.179   2.194  0.9225 -0.0014  3.3003
 4000TIP3    H233636   2.641   1.272   2.217  0.0602 -1.2023  3.8715
 4001TIP3   OH233637   0.567   2.272   0.989  0.5630  0.0846 -0.2333
 4001TIP3    H133638   0.583   2.288   0.896 -0.4748  1.8276 -0.1438
 4001TIP3    H233639   0.514   2.346   1.018  2.4247  0.6019  2.1938
 4002TIP3   OH233640   0.288   1.972   0.883  0.6899 -0.0765  0.0244
 4002TIP3    H133641   0.379   1.945   0.885  0.3815 -1.2442 -0.9824
 4002TIP3    H233642   0.238   1.891   0.876 -0.4474  0.5248  0.7949
 4003TIP3   OH233643   4.727   0.112   1.442  0.0791  0.3276  0.6034
 4003TIP3    H133644   4.812   0.079   1.411 -0.2653  1.0583 -1.2633
 4003TIP3    H233645   4.703   0.053   1.513  2.1147  0.0596  1.1282
 4004TIP3   OH233646   2.689   4.772   8.280  0.2855  0.0281  0.6766
 4004TIP3    H133647   2.600   4.777   8.247  0.2838 -1.6590  0.3548
 4004TIP3    H233648   2.705   4.858   8.318 -1.2868  0.5283  0.2772
 4005TIP3   OH233649   4.097   6.669   7.296 -0.2401 -0.0813 -0.1917
 4005TIP3    H133650   4.031   6.689   7.362 -0.4214  0.6865 -0.6045
 4005TIP3    H233651   4.116   6.576   7.310  1.1427  0.4941  2.2108
 4006TIP3   OH233652   4.734   5.315   0.510  0.2285  0.2228 -0.4320
 4006TIP3    H133653   4.823   5.347   0.524 -0.1026  0.0530  2.8337
 4006TIP3    H233654   4.680   5.394   0.503  0.2274  0.4340  1.3557
 4007TIP3   OH233655   4.632   5.236   1.960 -0.5110 -0.0737 -0.2814
 4007TIP3    H133656   4.574   5.293   1.910  0.9532  0.5990 -1.2714
 4007TIP3    H233657   4.667   5.175   1.896  0.1672 -0.2387  0.2311
 4008TIP3   OH233658   1.376   3.788   0.867 -0.0522 -0.1179  0.3745
 4008TIP3    H133659   1.352   3.779   0.959 -0.4261  1.4726  0.4514
 4008TIP3    H233660   1.458   3.836   0.868  0.5535 -1.1187 -0.0948
 4009TIP3   OH233661   2.075   2.812   6.884 -0.2222 -0.8642 -0.0710
 4009TIP3    H133662   2.016   2.788   6.813 -0.3590 -1.2774  0.1798
 4009TIP3    H233663   2.109   2.898   6.859 -0.5311 -0.8557 -0.4677
 4010TIP3   OH233664   4.827   0.095   2.051  0.2709 -0.0616 -0.1000
 4010TIP3    H133665   4.731   0.092   2.044 -0.0140  2.1445  1.8229
 4010TIP3    H233666   4.846   0.044   2.129  0.4985  0.8786  0.4660
 4011TIP3   OH233667   1.665   3.832   7.322  0.4535  0.2450 -0.2538
 4011TIP3    H133668   1.664   3.796   7.410 -1.2270 -0.1464 -0.4084
 4011TIP3    H233669   1.757   3.857   7.308  0.8684 -0.2393  1.3558
 4012TIP3   OH233670   0.247   5.193   2.110  0.0231  0.2750 -0.1771
 4012TIP3    H133671   0.306   5.132   2.066  1.2713  1.9398 -0.9385
 4012TIP3    H233672   0.250   5.168   2.203 -0.2558 -1.3722 -0.5940
 4013TIP3   OH233673   2.935   5.853   7.386  0.1086  0.7484  0.4219
 4013TIP3    H133674   3.029   5.854   7.368  0.0411 -0.4966 -0.0871
 4013TIP3    H233675   2.924   5.784   7.452 -0.6733 -0.6439 -1.0872
 4014TIP3   OH233676   2.285   3.459   1.063  0.7868  0.2111 -0.1606
 4014TIP3    H133677   2.233   3.380   1.044  1.2283  0.0854 -0.8840
 4014TIP3    H233678   2.251   3.490   1.146  1.0045 -1.0857  0.4411
 4015TIP3   OH233679   0.168   0.772   1.732 -0.1575 -0.9737 -0.3933
 4015TIP3    H133680   0.154   0.858   1.772 -2.7803 -1.3934 -0.2142
 4015TIP3    H233681   0.263   0.766   1.720  0.2163  1.3902  0.7809
 4016TIP3   OH233682   1.632   6.016   1.187 -0.3272 -0.6384 -0.0562
 4016TIP3    H133683   1.594   6.084   1.132 -0.7499 -1.2625 -0.5567
 4016TIP3    H233684   1.727   6.026   1.176 -0.4109 -0.9932 -1.2091
 4017TIP3   OH233685   5.387   0.518   8.275  0.5836  0.5975 -0.5896
 4017TIP3    H133686   5.334   0.439   8.264  0.1023  1.0345 -1.4307
 4017TIP3    H233687   5.392   0.557   8.188  1.9281  0.8049 -0.4482
 4018TIP3   OH233688   3.220   3.973   2.683  0.4991  0.3154 -0.1291
 4018TIP3    H133689   3.167   4.039   2.638 -1.2368 -1.7056 -1.2068
 4018TIP3    H233690   3.300   4.020   2.709 -0.5030  2.7215 -1.1329
 4019TIP3   OH233691   2.995   1.782   7.651  0.6638 -0.3652 -0.4241
 4019TIP3    H133692   2.994   1.776   7.555 -0.0698  1.1983 -0.5598
 4019TIP3    H233693   3.083   1.755   7.676  0.9488 -0.5515 -1.5692
 4020TIP3   OH233694   6.235   0.267   1.164  0.6379 -0.8614  0.3417
 4020TIP3    H133695   6.245   0.350   1.209 -0.7533 -0.4961  0.0163
 4020TIP3    H233696   6.316   0.220   1.182  1.4341  0.5405  0.5576
 4021TIP3   OH233697   3.830   1.308   0.706 -0.0469 -0.0441  0.4321
 4021TIP3    H133698   3.835   1.278   0.796  0.0687  1.1157  0.8269
 4021TIP3    H233699   3.843   1.403   0.711 -1.2260  0.2136 -0.6672
 4022TIP3   OH233700   0.572   0.959   6.735 -0.2517  0.5693  1.2595
 4022TIP3    H133701   0.638   1.028   6.725 -1.9523  2.4744  2.4612
 4022TIP3    H233702   0.548   0.936   6.645  0.9559  0.9064  0.8243
 4023TIP3   OH233703   1.267   4.480   6.394 -0.0174 -0.4937  0.3732
 4023TIP3    H133704   1.295   4.534   6.468  2.7592  1.0133 -1.5732
 4023TIP3    H233705   1.192   4.528   6.358  0.1935  0.1470  0.7532
 4024TIP3   OH233706   4.424   5.962   1.187 -0.2760 -0.2223 -0.4967
 4024TIP3    H133707   4.469   6.042   1.160  0.0879  0.0019  0.7214
 4024TIP3    H233708   4.338   5.992   1.218 -0.4214 -0.4030 -0.7121
 4025TIP3   OH233709   4.021   4.653   7.594  0.8141 -0.5486 -0.3103
 4025TIP3    H133710   3.933   4.617   7.593  0.7438 -0.3756 -0.4560
 4025TIP3    H233711   4.016   4.728   7.654  0.6628 -0.0531 -0.9277
 4026TIP3   OH233712   5.712   5.543   6.915  0.7011  0.4486  0.0132
 4026TIP3    H133713   5.793   5.585   6.942  1.3264 -1.3618  1.1214
 4026TIP3    H233714   5.657   5.615   6.883  2.8692  1.6755 -1.2042
 4027TIP3   OH233715   1.494   4.376   7.396  0.4866  0.0622 -0.3540
 4027TIP3    H133716   1.403   4.348   7.403  0.7837 -0.7949  0.3479
 4027TIP3    H233717   1.541   4.297   7.368  0.9342  0.6605 -1.3351
 4028TIP3   OH233718   2.489   2.836   8.723 -0.0191 -0.0765 -0.3398
 4028TIP3    H133719   2.552   2.845   8.794 -0.1755  0.4802 -0.2664
 4028TIP3    H233720   2.487   2.923   8.682 -1.6930  0.3131  0.4747
 4029TIP3   OH233721   1.446   4.086   2.403  0.0168 -0.1023  0.3416
 4029TIP3    H133722   1.519   4.066   2.345 -1.2757 -1.4728 -0.9051
 4029TIP3    H233723   1.425   4.003   2.446 -2.2633 -0.3538 -1.1158
 4030TIP3   OH233724   3.616   3.601   7.789  0.4107  0.0986 -0.3909
 4030TIP3    H133725   3.675   3.611   7.863  0.4549 -0.4094 -0.3550
 4030TIP3    H233726   3.671   3.564   7.719 -0.2124 -2.0293  0.1678
 4031TIP3   OH233727   3.919   0.058   8.937  0.0152  0.1311 -0.3570
 4031TIP3    H133728   3.891   0.128   8.878  1.1914  0.8313 -0.1170
 4031TIP3    H233729   3.883   0.084   9.022  0.1883  0.2872 -0.3297
 4032TIP3   OH233730   6.296   3.974   1.122  0.0860  0.0499  0.1094
 4032TIP3    H133731   6.370   3.921   1.093  0.0319  0.0391 -0.0092
 4032TIP3    H233732   6.316   4.062   1.089 -1.3259 -0.4753 -2.4825
 4033TIP3   OH233733   0.424   0.698   0.149  0.5168  0.6216 -0.4848
 4033TIP3    H133734   0.397   0.618   0.106 -0.8756  0.7293  0.1289
 4033TIP3    H233735   0.375   0.767   0.104  1.8963  1.1685 -1.1810
 4034TIP3   OH233736   2.757   4.197   0.950  0.6047  0.0624  0.5127
 4034TIP3    H133737   2.815   4.255   1.000  0.9888 -0.5612  0.8059
 4034TIP3    H233738   2.706   4.151   1.017  0.8617 -0.5104  0.3201
 4035TIP3   OH233739   5.087   3.201   8.341 -0.1435 -0.0591  0.5322
 4035TIP3    H133740   5.166   3.254   8.328 -1.0972  1.0513 -1.2942
 4035TIP3    H233741   5.037   3.249   8.408 -1.3812  1.9974 -1.6786
 4036TIP3   OH233742   0.975   5.453   1.371 -0.1634  0.8566 -0.7044
 4036TIP3    H133743   0.956   5.500   1.290 -0.2918 -1.8727 -2.3842
 4036TIP3    H233744   1.069   5.437   1.368 -0.1540  0.8157 -0.2459
 4037TIP3   OH233745   4.460   0.509   1.209 -0.0402  0.0269  0.2509
 4037TIP3    H133746   4.513   0.580   1.246  1.1410 -0.4692 -0.4265
 4037TIP3    H233747   4.370   0.543   1.211  0.3558  1.0873  0.9778
 4038TIP3   OH233748   0.836   2.027   2.122 -0.1226 -0.2475  0.3204
 4038TIP3    H133749   0.773   2.018   2.194 -0.8801  1.6660 -0.0372
 4038TIP3    H233750   0.900   2.090   2.153  1.7941 -2.2834  0.7276
 4039TIP3   OH233751   4.789   5.173   2.196  0.0815 -0.4220 -0.0313
 4039TIP3    H133752   4.837   5.256   2.191  1.2507 -1.1127 -0.7694
 4039TIP3    H233753   4.737   5.170   2.115 -0.8427  0.0791  0.5191
 4040TIP3   OH233754   3.448   4.492   0.441  0.3938 -0.1071  0.4857
 4040TIP3    H133755   3.442   4.505   0.346 -0.0146 -2.3856  0.1510
 4040TIP3    H233756   3.357   4.483   0.470  0.4138  1.8840  1.3656
 4041TIP3   OH233757   4.806   2.643   7.321  0.1759  0.2765  0.0015
 4041TIP3    H133758   4.754   2.723   7.329  0.2693  0.2298  1.1282
 4041TIP3    H233759   4.743   2.577   7.292 -0.5846  0.0580  2.0156
 4042TIP3   OH233760   1.097   4.899   8.338 -0.4207 -0.3986  0.2481
 4042TIP3    H133761   1.190   4.918   8.327 -0.6799  1.6695  1.1294
 4042TIP3    H233762   1.090   4.864   8.427 -0.3646 -1.6105 -0.2122
 4043TIP3   OH233763   5.664   2.525   0.429 -0.0857  0.0953  0.4423
 4043TIP3    H133764   5.722   2.566   0.365 -0.0559 -2.2173 -1.1494
 4043TIP3    H233765   5.592   2.587   0.439 -0.1669  0.5197 -1.9991
 4044TIP3   OH233766   5.989   4.168   8.443 -0.2401 -0.3130 -0.3222
 4044TIP3    H133767   5.905   4.208   8.463 -0.0890  0.5869 -1.3744
 4044TIP3    H233768   6.046   4.241   8.420  0.7449 -0.9382  0.0476
 4045TIP3   OH233769   3.114   3.887   1.891  0.2685  0.3345  0.1948
 4045TIP3    H133770   3.037   3.940   1.908 -0.9735 -1.6483  1.0087
 4045TIP3    H233771   3.128   3.895   1.796 -0.2642  1.5279  0.1947
 4046TIP3   OH233772   1.911   1.030   7.070  0.3074  0.3215 -0.6045
 4046TIP3    H133773   1.851   0.955   7.066 -1.1648  1.4310 -0.2724
 4046TIP3    H233774   1.988   1.001   7.022 -1.2017 -0.5741 -2.6639
 4047TIP3   OH233775   0.190   2.720   0.972  0.2183 -0.7207 -0.1427
 4047TIP3    H133776   0.188   2.771   0.891 -3.7710 -1.2089 -0.5448
 4047TIP3    H233777   0.208   2.784   1.040 -2.2514  0.9442 -0.8866
 4048TIP3   OH233778   5.450   0.817   2.330  0.2580  0.4229 -0.9400
 4048TIP3    H133779   5.534   0.862   2.328  0.8144 -0.5834 -2.3161
 4048TIP3    H233780   5.388   0.881   2.364  1.6507  1.0353  0.5030
 4049TIP3   OH233781   3.375   3.890   1.950  0.0863  0.5601  0.3519
 4049TIP3    H133782   3.286   3.890   1.915 -0.2205  0.5107  1.1144
 4049TIP3    H233783   3.422   3.829   1.895 -1.1924 -2.0676  1.9764
 4050TIP3   OH233784   4.804   2.577   1.119  0.0120  0.4930  0.5542
 4050TIP3    H133785   4.858   2.499   1.104 -0.5596  0.1415  0.2953
 4050TIP3    H233786   4.736   2.548   1.180 -1.3618  0.2340 -1.0095
 4051TIP3   OH233787   5.032   6.263   1.558  0.7728  0.9872  0.1250
 4051TIP3    H133788   4.999   6.253   1.647  1.7563  1.1383  0.5180
 4051TIP3    H233789   4.993   6.345   1.528 -1.2244 -0.0794 -0.3629
 4052TIP3   OH233790   0.116   1.707   8.466  0.2473 -0.0431 -0.3399
 4052TIP3    H133791   0.115   1.777   8.531  0.4439 -1.6073  1.4256
 4052TIP3    H233792   0.209   1.684   8.457  0.1328 -0.4663 -0.4591
 4053TIP3   OH233793   5.752   3.831   0.229  0.3205 -0.3616  0.1808
 4053TIP3    H133794   5.785   3.753   0.184  0.0913 -0.3350 -0.0320
 4053TIP3    H233795   5.677   3.799   0.279  0.7390 -0.4454  0.7594
 4054TIP3   OH233796   3.582   1.404   7.736  0.0151 -0.0419  0.0655
 4054TIP3    H133797   3.548   1.469   7.674  1.0837  0.4924  0.0010
 4054TIP3    H233798   3.509   1.386   7.795 -1.1115 -0.7339 -1.4740
 4055TIP3   OH233799   5.061   1.942   0.294 -0.4168 -0.1470  0.1988
 4055TIP3    H133800   5.137   1.961   0.239 -0.7561 -0.1221 -0.2643
 4055TIP3    H233801   5.090   1.964   0.383 -0.2565  0.9340 -0.1120
 4056TIP3   OH233802   0.215   4.137   0.979  0.4587 -0.2103  0.6886
 4056TIP3    H133803   0.155   4.064   0.991  1.8823 -1.4359  0.5528
 4056TIP3    H233804   0.222   4.176   1.066  0.7295 -1.0778  1.0672
 4057TIP3   OH233805   0.617   4.072   0.254 -0.1783  0.5808 -0.0496
 4057TIP3    H133806   0.674   3.999   0.276 -0.1090  0.9803  1.1962
 4057TIP3    H233807   0.591   4.056   0.164  0.6482 -0.4341 -0.1292
 4058TIP3   OH233808   1.049   5.108   7.235  0.1277  0.3127 -0.4988
 4058TIP3    H133809   1.008   5.193   7.220  1.8533  0.9989 -1.6994
 4058TIP3    H233810   1.102   5.120   7.314 -0.3674  0.0636 -0.1290
 4059TIP3   OH233811   6.412   2.628   8.017 -0.1200 -0.4804  0.1641
 4059TIP3    H133812   6.356   2.705   8.029  3.4966  2.4781 -0.0412
 4059TIP3    H233813   6.415   2.614   7.923  0.3893  0.2077  0.0627
 4060TIP3   OH233814   4.577   5.942   2.089 -0.2478  0.3772 -0.3384
 4060TIP3    H133815   4.642   6.011   2.078  1.7885 -1.4425 -0.5667
 4060TIP3    H233816   4.552   5.947   2.181 -0.1286  1.4087 -0.3500
 4061TIP3   OH233817   4.260   2.713   7.994 -0.6774 -0.7261  0.6375
 4061TIP3    H133818   4.244   2.745   8.083  0.2098  1.2855  0.1404
 4061TIP3    H233819   4.349   2.679   7.997 -0.9569 -1.4620  0.7134
 4062TIP3   OH233820   2.580   5.619   1.094 -0.1999  0.1958 -0.2922
 4062TIP3    H133821   2.640   5.675   1.143  1.7179 -1.1547 -0.9940
 4062TIP3    H233822   2.634   5.545   1.065 -2.6023 -2.0330  0.5495
 4063TIP3   OH233823   1.650   0.101   8.819  0.4584 -0.2155  0.2536
 4063TIP3    H133824   1.605   0.063   8.743  0.1931  0.4583  0.0615
 4063TIP3    H233825   1.690   0.181   8.785  1.7354 -0.7500  0.4508
 4064TIP3   OH233826   5.255   2.334   0.421  0.3210  0.3959  0.1644
 4064TIP3    H133827   5.305   2.270   0.371 -0.5804  0.5432 -0.9477
 4064TIP3    H233828   5.318   2.368   0.485  1.2700 -0.3727 -0.3327
 4065TIP3   OH233829   1.866   4.662   0.982 -0.0818 -0.2555  0.1472
 4065TIP3    H133830   1.939   4.682   0.923 -0.8726  0.4900 -0.6023
 4065TIP3    H233831   1.908   4.632   1.062  1.0707  0.6858 -0.0708
 4066TIP3   OH233832   3.779   6.464   1.474  0.0721  0.5133 -0.3035
 4066TIP3    H133833   3.724   6.448   1.398  0.7288  2.9684 -1.3964
 4066TIP3    H233834   3.720   6.502   1.539 -0.0239  0.7193 -0.5105
 4067TIP3   OH233835   6.520   2.061   8.219 -0.1464 -0.4482  0.1243
 4067TIP3    H133836   6.466   2.091   8.292 -0.4250 -1.5303  0.3772
 4067TIP3    H233837   6.604   2.038   8.259  1.1965  2.7870 -0.4771
 4068TIP3   OH233838   0.352   5.620   7.549  0.2381  0.0247 -0.8303
 4068TIP3    H133839   0.446   5.620   7.564  0.2054 -0.0958 -0.6189
 4068TIP3    H233840   0.340   5.673   7.470  0.4828  0.0336 -0.8621
 4069TIP3   OH233841   4.652   5.559   0.602 -0.0136  0.7462 -0.2931
 4069TIP3    H133842   4.677   5.531   0.690 -1.5362  3.8330  1.2517
 4069TIP3    H233843   4.706   5.636   0.584 -0.6019  0.8990 -1.5558
 4070TIP3   OH233844   3.888   2.619   1.499 -0.0186  0.4063  0.2638
 4070TIP3    H133845   3.880   2.568   1.580  1.6130  0.9440  0.8024
 4070TIP3    H233846   3.891   2.553   1.429  1.4894 -0.2588  0.9021
 4071TIP3   OH233847   0.658   4.460   0.431 -0.4678 -0.1886  0.2038
 4071TIP3    H133848   0.659   4.553   0.452 -0.7380 -0.4296  1.4022
 4071TIP3    H233849   0.750   4.434   0.432 -0.4199 -0.0190  0.3238
 4072TIP3   OH233850   5.399   2.963   1.286  0.3759 -0.7201  0.0057
 4072TIP3    H133851   5.464   3.000   1.345 -0.7682 -0.0576  0.8968
 4072TIP3    H233852   5.332   2.926   1.344 -1.3609  0.9708 -0.8079
 4073TIP3   OH233853   0.750   6.361   8.326 -0.4059 -0.3596 -0.0831
 4073TIP3    H133854   0.800   6.410   8.260 -0.2214  1.3559  1.2621
 4073TIP3    H233855   0.799   6.373   8.407 -0.8332 -2.1256  0.4886
 4074TIP3   OH233856   5.906   1.040   2.697 -0.4846 -0.1910  0.3324
 4074TIP3    H133857   5.842   1.110   2.708 -2.5185 -1.7858 -0.5959
 4074TIP3    H233858   5.932   1.045   2.605  0.4067  0.1672  0.5953
 4075TIP3   OH233859   5.169   4.297   8.793 -0.2658 -0.2872  0.5277
 4075TIP3    H133860   5.154   4.207   8.821 -0.6977 -0.4236 -0.1352
 4075TIP3    H233861   5.195   4.290   8.702 -0.2080  0.2539  0.4988
 4076TIP3   OH233862   5.253   4.771   0.056 -0.2324 -0.0796  0.1293
 4076TIP3    H133863   5.336   4.805   0.022 -0.4397  1.2395  0.8770
 4076TIP3    H233864   5.248   4.682   0.021  2.1281 -0.7052  1.1452
 4077TIP3   OH233865   6.079   4.935   8.850  0.1691 -0.6655  0.5948
 4077TIP3    H133866   6.050   4.849   8.877  2.2940 -1.0294  1.9524
 4077TIP3    H233867   6.154   4.919   8.793  0.9162  0.2676  1.2739
 4078TIP3   OH233868   1.439   1.477   0.734 -0.1254  0.0777  0.5934
 4078TIP3    H133869   1.509   1.468   0.798 -0.6099 -1.4635  0.9588
 4078TIP3    H233870   1.361   1.496   0.786 -0.5416 -1.2917  0.5282
 4079TIP3   OH233871   3.858   4.920   7.631 -0.7846  0.2200  0.3851
 4079TIP3    H133872   3.863   4.977   7.553 -1.0580  1.4052  1.2019
 4079TIP3    H233873   3.799   4.850   7.606 -0.6700  0.4475 -0.5689
 4080TIP3   OH233874   3.113   2.985   6.656  0.8289 -0.7280 -0.5404
 4080TIP3    H133875   3.144   2.898   6.631  0.0667 -1.1958  0.0937
 4080TIP3    H233876   3.073   3.020   6.577 -1.5788 -2.1945 -0.0676
 4081TIP3   OH233877   0.623   1.193   0.888 -0.0880  0.1666  0.0426
 4081TIP3    H133878   0.623   1.176   0.982  1.1663  2.7846  0.5971
 4081TIP3    H233879   0.548   1.252   0.875  0.0544  0.2302 -0.4932
 4082TIP3   OH233880   5.513   0.209   7.964  0.4166  0.1772  0.7713
 4082TIP3    H133881   5.602   0.232   7.938 -0.1032  0.6990 -0.6433
 4082TIP3    H233882   5.459   0.235   7.890 -0.7172 -1.8180  0.8268
 4083TIP3   OH233883   6.671   2.824   6.880 -0.6702 -0.0935 -0.5863
 4083TIP3    H133884   6.756   2.780   6.875 -0.5115  0.1478 -0.0471
 4083TIP3    H233885   6.614   2.772   6.824 -0.2328 -0.4073 -0.7476
 4084TIP3   OH233886   6.189   5.405   0.596  0.0988  0.4646 -0.2695
 4084TIP3    H133887   6.189   5.326   0.542 -2.2693  0.3210 -0.1922
 4084TIP3    H233888   6.258   5.391   0.660 -0.4399 -1.6951 -0.0947
 4085TIP3   OH233889   3.488   0.130   7.122  0.5687 -0.3729  0.2159
 4085TIP3    H133890   3.423   0.184   7.076  0.8839 -0.1781  0.0021
 4085TIP3    H233891   3.442   0.047   7.137 -0.0536  0.0737  0.8852
 4086TIP3   OH233892   3.752   4.439   1.708  0.0223 -0.1411 -0.0430
 4086TIP3    H133893   3.707   4.389   1.776  0.3750 -1.7086 -0.9152
 4086TIP3    H233894   3.705   4.522   1.705 -2.8909 -1.6859 -0.9224
 4087TIP3   OH233895   5.805   5.637   7.894 -0.2053  0.0614  0.0985
 4087TIP3    H133896   5.721   5.683   7.897 -0.3594 -0.2556  1.0502
 4087TIP3    H233897   5.801   5.586   7.813  0.1470  2.0142 -1.2261
 4088TIP3   OH233898   2.283   4.823   1.080 -0.1059 -0.0652  0.3640
 4088TIP3    H133899   2.337   4.818   1.159 -1.3118 -0.7132  1.1750
 4088TIP3    H233900   2.315   4.751   1.025 -0.4549 -0.7542  1.0463
 4089TIP3   OH233901   6.375   4.254   1.078 -0.6403 -0.8590  0.5553
 4089TIP3    H133902   6.316   4.313   1.031 -1.1965 -0.8452  1.2628
 4089TIP3    H233903   6.463   4.290   1.062 -1.0472  0.8954  1.9793
 4090TIP3   OH233904   4.798   1.964   0.158  0.6282  0.5367 -0.1159
 4090TIP3    H133905   4.839   1.966   0.071  0.6775  3.2310 -0.1260
 4090TIP3    H233906   4.868   1.990   0.218  0.1136  0.5520  0.4836
 4091TIP3   OH233907   1.677   0.672   8.024  0.1507  0.4696 -0.1673
 4091TIP3    H133908   1.655   0.702   8.112 -1.6866 -1.9055  0.2695
 4091TIP3    H233909   1.768   0.642   8.031 -0.5159 -1.3560  1.4395
 4092TIP3   OH233910   1.955   0.692   0.819 -0.5053  0.7440 -0.0537
 4092TIP3    H133911   1.915   0.628   0.760  0.0763  0.6205 -0.3154
 4092TIP3    H233912   1.926   0.777   0.787  0.6629  0.7423 -1.1747
 4093TIP3   OH233913   1.395   0.673   1.603  0.4254  0.1275  0.0888
 4093TIP3    H133914   1.373   0.742   1.540  0.3234  0.6415  0.6816
 4093TIP3    H233915   1.317   0.617   1.606  0.2017  0.4430  0.2068
 4094TIP3   OH233916   5.234   2.870   2.114 -0.5963  0.6338 -0.3100
 4094TIP3    H133917   5.190   2.862   2.198  0.4645  1.2893  0.3372
 4094TIP3    H233918   5.227   2.783   2.075  0.8634 -0.3693  1.4813
 4095TIP3   OH233919   2.261   2.253   0.165 -0.7134  0.3352 -0.1209
 4095TIP3    H133920   2.233   2.173   0.209 -0.0216 -0.7933 -1.6203
 4095TIP3    H233921   2.249   2.322   0.229 -0.8935 -1.0406  1.3772
 4096TIP3   OH233922   5.102   4.668   1.451  0.0919  0.2562 -0.2060
 4096TIP3    H133923   5.099   4.756   1.413  0.1455 -0.0594 -0.9544
 4096TIP3    H233924   5.010   4.648   1.471  0.2206  1.0739  1.4016
 4097TIP3   OH233925   2.897   0.419   8.395 -0.4270  0.4843  0.0580
 4097TIP3    H133926   2.817   0.414   8.344 -0.8770  3.0990  0.3817
 4097TIP3    H233927   2.956   0.475   8.344  0.4332  0.2436  0.7470
 4098TIP3   OH233928   0.560   5.386   0.495 -0.1702  0.4977  0.4495
 4098TIP3    H133929   0.607   5.467   0.478  0.5599  0.0922  0.4894
 4098TIP3    H233930   0.592   5.325   0.429  2.1784 -0.8959  2.6953
 4099TIP3   OH233931   4.813   1.695   1.417  0.0970 -0.3648 -0.3983
 4099TIP3    H133932   4.883   1.751   1.384  0.6863 -0.1030  1.2130
 4099TIP3    H233933   4.786   1.736   1.499 -2.3810 -0.1146 -1.2335
 4100TIP3   OH233934   6.122   6.775   1.662  0.0919  0.9825 -0.1877
 4100TIP3    H133935   6.123   6.838   1.590 -1.1032  2.0353  0.6526
 4100TIP3    H233936   6.095   6.827   1.738  0.9091 -0.1782  0.9319
 4101TIP3   OH233937   4.490   3.540   8.888 -0.6376  0.1128 -0.2173
 4101TIP3    H133938   4.492   3.598   8.812  0.7143 -0.4520 -0.6309
 4101TIP3    H233939   4.571   3.559   8.935 -0.6552 -0.7346  0.1772
 4102TIP3   OH233940   1.795   3.273   8.108 -0.4085 -0.2765 -0.1523
 4102TIP3    H133941   1.842   3.279   8.025  0.6716  0.9768  0.5151
 4102TIP3    H233942   1.851   3.220   8.163 -0.6419 -0.2787  0.0819
 4103TIP3   OH233943   1.766   2.845   1.431  0.0573 -0.0107  0.0374
 4103TIP3    H133944   1.688   2.882   1.390  0.6942  1.1880 -0.1362
 4103TIP3    H233945   1.796   2.913   1.491  1.7274  0.0994 -0.8666
 4104TIP3   OH233946   1.930   4.839   0.608 -0.5465  0.3214 -0.0318
 4104TIP3    H133947   1.980   4.900   0.662 -0.4662 -0.1090  0.3851
 4104TIP3    H233948   1.895   4.893   0.537  1.1806  0.5053 -0.8016
 4105TIP3   OH233949   3.071   0.828   7.746 -0.1272  0.3147  0.3646
 4105TIP3    H133950   3.073   0.892   7.675  0.7729 -0.5661 -0.4375
 4105TIP3    H233951   3.117   0.751   7.711  1.2275  0.1971  2.2164
 4106TIP3   OH233952   3.795   3.861   0.998 -0.3688  0.1398 -0.0656
 4106TIP3    H133953   3.728   3.800   0.967 -0.8525  1.2318 -1.2577
 4106TIP3    H233954   3.776   3.943   0.953  1.5873  0.5698 -0.2168
 4107TIP3   OH233955   1.816   0.553   1.776 -0.4822 -0.3455 -0.1354
 4107TIP3    H133956   1.740   0.520   1.825 -0.4612  0.1267  0.2335
 4107TIP3    H233957   1.889   0.499   1.806 -0.6740 -0.8094 -0.4991
 4108TIP3   OH233958   1.481   3.473   8.782  0.4078  0.1296  0.0271
 4108TIP3    H133959   1.421   3.482   8.708  0.4955 -1.1202 -0.2038
 4108TIP3    H233960   1.567   3.495   8.745  0.2575  0.9467  0.1279
 4109TIP3   OH233961   0.935   4.469   0.379 -0.4003  0.1584 -0.2748
 4109TIP3    H133962   0.949   4.555   0.339  1.0094  1.6602  3.1170
 4109TIP3    H233963   1.022   4.429   0.380 -1.2198 -2.0509 -2.9959
 4110TIP3   OH233964   1.682   5.117   8.585 -0.5458  0.0657 -0.3016
 4110TIP3    H133965   1.717   5.150   8.668 -0.5347  0.8682 -0.6256
 4110TIP3    H233966   1.593   5.152   8.581 -1.4413 -1.9224  0.5032
 4111TIP3   OH233967   4.228   0.353   1.643 -0.4435  0.1451 -0.2510
 4111TIP3    H133968   4.279   0.283   1.601 -0.3831  0.3887 -0.5851
 4111TIP3    H233969   4.268   0.434   1.612 -2.0148  0.3910 -1.8176
 4112TIP3   OH233970   3.479   6.473   0.873 -0.0039  0.1981 -0.0652
 4112TIP3    H133971   3.520   6.455   0.789  0.2222  0.4389 -0.0049
 4112TIP3    H233972   3.542   6.443   0.938 -0.7087 -1.2016  0.0212
 4113TIP3   OH233973   3.081   1.100   7.884 -0.6508  0.3420 -0.5376
 4113TIP3    H133974   3.087   1.088   7.979 -3.2775 -0.9553 -0.4335
 4113TIP3    H233975   3.136   1.031   7.847 -0.2658  0.3304  0.0419
 4114TIP3   OH233976   3.814   6.160   7.153  0.5823  0.1297  0.0690
 4114TIP3    H133977   3.824   6.222   7.081  1.9087 -2.3980 -2.0849
 4114TIP3    H233978   3.903   6.135   7.176  0.1094 -0.3651  1.4788
 4115TIP3   OH233979   4.736   0.205   8.805  0.0209 -0.2716  0.7399
 4115TIP3    H133980   4.790   0.256   8.865  1.6177 -0.1106 -0.7482
 4115TIP3    H233981   4.798   0.153   8.755 -1.1490  0.1151 -1.2427
 4116TIP3   OH233982   6.118   2.657   7.488 -0.5129 -0.5158 -0.1380
 4116TIP3    H133983   6.114   2.685   7.396 -0.1496  0.1812  0.0507
 4116TIP3    H233984   6.043   2.701   7.528  0.6957  1.1582  0.4025
 4117TIP3   OH233985   6.715   3.096   8.736  0.1358  0.3314  0.0306
 4117TIP3    H133986   6.624   3.122   8.748  0.0030 -0.3808  0.7069
 4117TIP3    H233987   6.710   3.007   8.701  0.5764  0.5707 -0.6570
 4118TIP3   OH233988   3.185   6.680   7.695 -0.4761  0.1749  0.7580
 4118TIP3    H133989   3.165   6.631   7.774 -1.5625 -2.7629 -1.1757
 4118TIP3    H233990   3.267   6.643   7.663 -1.3927 -0.6037 -0.8314
 4119TIP3   OH233991   2.613   1.426   2.106  0.5900 -0.2750 -0.7007
 4119TIP3    H133992   2.530   1.398   2.070 -0.7249  0.7755  1.3278
 4119TIP3    H233993   2.676   1.411   2.036 -0.9775 -2.6823 -1.7133
 4120TIP3   OH233994   1.108   6.010   7.761 -0.2829 -0.6248  0.5139
 4120TIP3    H133995   1.054   6.052   7.694 -2.0040 -2.3064  0.7578
 4120TIP3    H233996   1.064   6.030   7.844  1.3704  0.7532  1.1161
 4121TIP3   OH233997   2.099   1.020   6.531 -0.0573 -0.0293  0.1699
 4121TIP3    H133998   2.135   1.010   6.619 -2.2289  1.9923  1.4206
 4121TIP3    H233999   2.094   1.115   6.518 -0.0383 -0.2739 -2.0635
 4122TIP3   OH234000   1.924   0.475   0.632  0.1125  0.0432 -0.4158
 4122TIP3    H134001   1.989   0.485   0.562 -1.4538 -0.2278 -1.9763
 4122TIP3    H234002   1.923   0.381   0.650 -1.2056 -0.2465 -1.8114
 4123TIP3   OH234003   3.430   2.040   8.146  0.0714 -0.1085 -0.3309
 4123TIP3    H134004   3.365   2.042   8.076 -2.5439  2.8539  1.9114
 4123TIP3    H234005   3.403   1.966   8.202  0.1188 -0.3693 -0.6513
 4124TIP3   OH234006   3.990   3.248   7.500 -0.5473 -0.3827  0.2051
 4124TIP3    H134007   4.081   3.252   7.531 -0.1011 -0.6470 -1.0104
 4124TIP3    H234008   3.939   3.232   7.579  0.6196 -1.9183  0.6965
 4125TIP3   OH234009   4.440   0.476   7.181  0.2508 -0.6161 -0.1507
 4125TIP3    H134010   4.347   0.494   7.169  0.0552 -0.9152  0.8653
 4125TIP3    H234011   4.446   0.381   7.187  0.8896 -0.7556 -2.2232
 4126TIP3   OH234012   1.170   4.509   7.992 -0.1462 -0.0758  0.5936
 4126TIP3    H134013   1.144   4.582   8.048 -1.7574 -0.9887  1.1031
 4126TIP3    H234014   1.089   4.460   7.977  0.0534  0.4618 -3.0746
 4127TIP3   OH234015   5.891   1.605   0.800  0.1191  0.0185 -0.0535
 4127TIP3    H134016   5.933   1.685   0.769  1.0999 -1.4480 -2.7507
 4127TIP3    H234017   5.957   1.563   0.855  0.1851  0.2960  0.0811
 4128TIP3   OH234018   3.276   0.477   2.151  0.1102  0.5972 -0.3154
 4128TIP3    H134019   3.251   0.560   2.192  0.0120  0.7252 -0.6335
 4128TIP3    H234020   3.199   0.451   2.101 -0.8436 -1.0099  1.8285
 4129TIP3   OH234021   6.738   1.483   1.115  0.6785 -0.0377 -0.4714
 4129TIP3    H134022   6.678   1.414   1.087 -1.2429  0.7684  1.4114
 4129TIP3    H234023   6.687   1.563   1.107  1.3481  0.6403  1.5413
 4130TIP3   OH234024   4.411   5.041   0.106 -0.4102 -0.0891  0.0640
 4130TIP3    H134025   4.357   4.971   0.069  0.0236 -0.2929 -0.1836
 4130TIP3    H234026   4.391   5.039   0.200 -1.1215  0.0905 -0.0739
 4131TIP3   OH234027   4.902   1.069   8.640 -0.0217 -0.2544 -0.6117
 4131TIP3    H134028   4.952   1.036   8.714 -0.7098 -0.1005 -0.0674
 4131TIP3    H234029   4.811   1.068   8.670 -0.1474  1.3406 -0.8576
 4132TIP3   OH234030   6.174   0.535   0.266 -0.3442 -0.3100 -0.6040
 4132TIP3    H134031   6.148   0.478   0.339 -1.6549  0.9377 -0.0305
 4132TIP3    H234032   6.217   0.477   0.204  1.1390 -1.3670  1.3122
 4133TIP3   OH234033   0.916   2.903   7.737 -0.5912  0.3959 -0.3294
 4133TIP3    H134034   0.966   2.956   7.798  0.1886 -1.5379  0.8130
 4133TIP3    H234035   0.839   2.874   7.786  0.0432 -1.1795 -0.2034
 4134TIP3   OH234036   6.645   2.823   0.285  0.5930 -0.6114  0.1325
 4134TIP3    H134037   6.622   2.750   0.343 -0.7087  1.1415  1.9554
 4134TIP3    H234038   6.577   2.888   0.301  1.2856  0.7272 -2.0076
 4135TIP3   OH234039   5.975   5.302   7.744  0.1339  0.2230  0.3308
 4135TIP3    H134040   6.042   5.335   7.804  1.4731 -1.7211  0.0011
 4135TIP3    H234041   6.008   5.322   7.657  0.2184 -0.5588  0.1716
 4136TIP3   OH234042   4.011   1.835   8.019  0.4742 -0.4746 -0.1819
 4136TIP3    H134043   4.068   1.891   7.967 -1.7021  1.4167 -0.7035
 4136TIP3    H234044   3.959   1.787   7.954 -0.4210 -0.0798  0.2141
 4137TIP3   OH234045   5.181   3.207   6.731  0.3044  0.0136 -0.4210
 4137TIP3    H134046   5.154   3.216   6.822 -1.2587  1.5775 -0.9957
 4137TIP3    H234047   5.264   3.255   6.725  0.8195 -0.7520  0.3144
 4138TIP3   OH234048   6.509   5.750   7.512 -0.0181 -0.3521 -0.6141
 4138TIP3    H134049   6.488   5.658   7.500 -0.3032 -0.3485 -0.1845
 4138TIP3    H234050   6.545   5.755   7.601 -0.6038  0.0488 -0.3936
 4139TIP3   OH234051   1.706   0.751   0.693 -0.3018 -0.5947 -0.0511
 4139TIP3    H134052   1.764   0.815   0.650 -0.8108 -0.2676 -0.2656
 4139TIP3    H234053   1.664   0.801   0.763 -0.1398 -0.8977  0.2655
 4140TIP3   OH234054   3.547   5.811   0.246 -0.2275  0.1950 -0.3850
 4140TIP3    H134055   3.584   5.753   0.312  0.3948  1.0403  0.0359
 4140TIP3    H234056   3.552   5.898   0.286  0.9576  0.8467 -1.8891
 4141TIP3   OH234057   6.027   3.762   8.462  0.2254  0.7446 -0.0466
 4141TIP3    H134058   6.025   3.667   8.473  0.0483  0.7100 -0.3683
 4141TIP3    H234059   5.935   3.788   8.464  0.2589  0.8785 -0.2096
 4142TIP3   OH234060   5.743   2.408   8.260 -0.2721 -0.9114 -0.7641
 4142TIP3    H134061   5.681   2.418   8.332  0.3281 -1.5519 -0.1382
 4142TIP3    H234062   5.762   2.497   8.232 -1.5746 -0.7119 -1.0634
 4143TIP3   OH234063   5.774   1.041   2.284  0.1777  0.0884 -0.6888
 4143TIP3    H134064   5.849   1.049   2.344  0.1588 -1.3078 -0.4560
 4143TIP3    H234065   5.698   1.047   2.341  0.1105  0.9399 -0.8569
 4144TIP3   OH234066   0.312   0.186   6.799 -0.1316 -0.4768 -0.0885
 4144TIP3    H134067   0.235   0.237   6.825 -0.6115 -0.9831 -0.4933
 4144TIP3    H234068   0.332   0.217   6.710  0.0811 -0.4059 -0.0165
 4145TIP3   OH234069   3.568   0.810   8.130  0.3956 -0.2173 -0.0655
 4145TIP3    H134070   3.628   0.861   8.075 -0.6660  2.0365  0.7435
 4145TIP3    H234071   3.615   0.799   8.213 -0.7490  3.0541  1.2082
 4146TIP3   OH234072   1.302   1.117   8.954  0.3460 -0.3961  0.3290
 4146TIP3    H134073   1.333   1.057   9.021 -1.6475 -1.8905 -0.0177
 4146TIP3    H234074   1.300   1.065   8.874  0.7564  0.7966 -0.4857
 4147TIP3   OH234075   0.609   5.141   1.613 -0.0635 -0.1786 -0.4240
 4147TIP3    H134076   0.697   5.178   1.616 -0.8697  1.7997  1.6227
 4147TIP3    H234077   0.557   5.197   1.670 -2.4823 -1.8002 -0.8647
 4148TIP3   OH234078   3.773   1.223   7.792 -0.1658 -0.2869  0.2695
 4148TIP3    H134079   3.720   1.143   7.796 -1.6279  0.6172  0.0603
 4148TIP3    H234080   3.709   1.292   7.772  1.0721  0.9146  0.3370
 4149TIP3   OH234081   1.536   2.166   8.477  0.1614  0.1625  0.1342
 4149TIP3    H134082   1.471   2.191   8.542 -1.2547 -0.6614 -0.9071
 4149TIP3    H234083   1.494   2.096   8.427  2.3106 -1.2456  0.1814
 4150TIP3   OH234084   1.556   4.409   2.399 -0.0940 -0.5485 -0.5055
 4150TIP3    H134085   1.618   4.355   2.351 -0.7808  0.0276 -2.1292
 4150TIP3    H234086   1.582   4.499   2.381  1.3638 -0.2172  2.5975
 4151TIP3   OH234087   2.042   5.555   0.820  0.0275 -0.0547 -0.9194
 4151TIP3    H134088   2.052   5.501   0.742  0.5313  0.2432 -1.0667
 4151TIP3    H234089   2.130   5.559   0.857 -0.4230 -1.2602  0.3885
 4152TIP3   OH234090   3.259   0.197   1.494  0.2051 -0.5813 -0.0449
 4152TIP3    H134091   3.176   0.152   1.477  0.2883 -0.7463 -0.0160
 4152TIP3    H234092   3.289   0.162   1.578 -0.3892  0.5125  0.6515
 4153TIP3   OH234093   0.104   1.092   0.289 -0.2286 -0.2306  0.1379
 4153TIP3    H134094   0.016   1.124   0.271  0.2256  0.6621 -0.6229
 4153TIP3    H234095   0.117   1.106   0.383 -1.2783 -1.3930  0.4748
 4154TIP3   OH234096   5.205   4.535   8.392 -0.0772 -0.0148  0.1611
 4154TIP3    H134097   5.198   4.456   8.338  1.9237 -1.2290  1.5388
 4154TIP3    H234098   5.125   4.584   8.373 -0.6447 -1.6016 -1.9305
 4155TIP3   OH234099   2.704   2.308   7.994  0.1587  0.1982  0.4109
 4155TIP3    H134100   2.779   2.330   7.938 -0.7299  2.6308  0.0449
 4155TIP3    H234101   2.722   2.352   8.077 -1.5449  2.3082 -0.2307
 4156TIP3   OH234102   5.626   5.228   2.231  0.4790 -0.2721 -1.0756
 4156TIP3    H134103   5.617   5.141   2.269  0.0833 -0.3454 -1.3374
 4156TIP3    H234104   5.538   5.264   2.231  0.5133 -0.1760 -1.6858
 4157TIP3   OH234105   4.955   0.424   7.558  0.5158  0.5521  0.1603
 4157TIP3    H134106   4.973   0.436   7.465  1.5455 -0.3076  0.2348
 4157TIP3    H234107   4.960   0.329   7.572  0.0779  0.6440  1.0431
 4158TIP3   OH234108   5.231   2.968   1.510  0.3040  0.2100 -0.3076
 4158TIP3    H134109   5.254   3.023   1.585  0.5935  0.9317 -0.9125
 4158TIP3    H234110   5.164   2.909   1.543  0.7011  0.2693  0.6188
 4159TIP3   OH234111   6.252   1.974   8.059  0.2495 -0.4675  0.4762
 4159TIP3    H134112   6.168   1.942   8.092  1.0378 -0.5773  2.4704
 4159TIP3    H234113   6.243   2.069   8.061 -1.2387 -0.3422 -3.2447
 4160TIP3   OH234114   3.419   3.506   1.191 -0.9407  0.4715  0.0958
 4160TIP3    H134115   3.407   3.595   1.157 -2.0919 -0.0932 -1.0956
 4160TIP3    H234116   3.336   3.486   1.235 -1.0616 -0.3364 -0.4729
 4161TIP3   OH234117   3.363   0.136   0.937 -0.7291  0.0146  0.1705
 4161TIP3    H134118   3.392   0.220   0.900 -2.3944  0.1556 -0.9048
 4161TIP3    H234119   3.287   0.158   0.991 -1.2575 -0.8085 -0.2267
 4162TIP3   OH234120   4.690   1.596   2.372  0.3009 -0.6351 -0.2935
 4162TIP3    H134121   4.701   1.519   2.316 -0.1047 -0.6180 -0.3968
 4162TIP3    H234122   4.595   1.609   2.377  0.3742 -0.0567 -0.3975
 4163TIP3   OH234123   1.540   5.237   0.853  0.1754 -0.0459 -0.1532
 4163TIP3    H134124   1.555   5.143   0.840  0.4194  0.0981 -0.9649
 4163TIP3    H234125   1.595   5.260   0.928 -0.9928 -0.8348  1.0026
 4164TIP3   OH234126   3.244   2.201   0.688  0.1923  0.8543 -0.3222
 4164TIP3    H134127   3.162   2.152   0.690  1.0516 -0.7449 -1.5817
 4164TIP3    H234128   3.218   2.292   0.698 -1.6075  0.2726  0.6698
 4165TIP3   OH234129   5.669   2.722   6.961 -0.0497  0.3308  0.5344
 4165TIP3    H134130   5.699   2.690   6.876 -0.7022  1.2087 -0.0424
 4165TIP3    H234131   5.649   2.814   6.946  0.5132  0.6870  1.8223
 4166TIP3   OH234132   3.231   6.428   0.984  0.2384  0.3398 -0.0860
 4166TIP3    H134133   3.230   6.501   1.046 -0.2310  1.3118 -1.2011
 4166TIP3    H234134   3.323   6.418   0.959  0.0897  1.8959 -1.4233
 4167TIP3   OH234135   5.214   1.625   1.524 -0.2337 -0.9550  0.4665
 4167TIP3    H134136   5.220   1.531   1.545 -1.3987 -1.1906 -0.1297
 4167TIP3    H234137   5.176   1.627   1.436 -2.2806  0.0973  1.3156
 4168TIP3   OH234138   5.424   2.166   0.259  0.1944 -0.0310 -0.2889
 4168TIP3    H134139   5.488   2.148   0.327 -2.1620  0.7042  2.3556
 4168TIP3    H234140   5.382   2.082   0.241 -0.6355  0.1117  0.8580
 4169TIP3   OH234141   1.949   0.208   0.686 -0.0485 -0.0904  0.4056
 4169TIP3    H134142   2.008   0.163   0.626  0.6329  2.2846 -0.8515
 4169TIP3    H234143   1.913   0.139   0.742  2.5525 -1.8580  0.0543
 4170TIP3   OH234144   3.860   4.536   8.282 -0.2230 -0.2229 -0.2063
 4170TIP3    H134145   3.877   4.556   8.374 -0.3668  1.3124 -0.4825
 4170TIP3    H234146   3.908   4.455   8.266  1.3549  0.4781  0.7410
 4171TIP3   OH234147   3.459   4.883   0.979  0.8627  0.4017  0.3736
 4171TIP3    H134148   3.455   4.787   0.983 -2.7900  0.1607 -2.7797
 4171TIP3    H234149   3.487   4.902   0.890 -1.3261  2.1089 -0.0259
 4172TIP3   OH234150   2.779   3.599   0.095  0.0229 -0.1871  0.0076
 4172TIP3    H134151   2.776   3.521   0.151 -0.3897  0.7537  1.3308
 4172TIP3    H234152   2.817   3.568   0.013 -0.5130 -1.8745  0.3615
 4173TIP3   OH234153   0.390   1.080   2.231 -0.1341 -0.1137  0.1977
 4173TIP3    H134154   0.379   1.116   2.320 -0.7556 -0.6834  0.3624
 4173TIP3    H234155   0.441   1.000   2.243 -0.2849 -0.2324  0.0493
 4174TIP3   OH234156   3.476   0.648   8.653  0.0473  0.4526  0.2012
 4174TIP3    H134157   3.523   0.693   8.723  0.4244 -0.0024  0.2459
 4174TIP3    H234158   3.539   0.585   8.619  0.4244  1.6977 -1.5850
 4175TIP3   OH234159   4.295   6.563   8.360  0.0530 -0.1936 -0.2705
 4175TIP3    H134160   4.299   6.467   8.358 -0.3930 -0.2229  0.1593
 4175TIP3    H234161   4.357   6.588   8.429 -0.9246 -0.2511  0.6496
 4176TIP3   OH234162   6.421   5.872   6.521 -0.2948  0.3309  0.6868
 4176TIP3    H134163   6.349   5.817   6.492  0.2395  0.2350 -0.5095
 4176TIP3    H234164   6.408   5.881   6.616 -1.9845  0.5045  0.4665
 4177TIP3   OH234165   5.793   3.540   1.942 -0.0560  1.0442  0.1061
 4177TIP3    H134166   5.744   3.514   1.863  1.0418  0.7169 -0.4875
 4177TIP3    H234167   5.726   3.575   2.001 -1.0325  0.4189 -0.5981
 4178TIP3   OH234168   6.577   2.845   1.671 -0.4411  0.2993 -0.0893
 4178TIP3    H134169   6.528   2.765   1.654  1.0071 -0.7696  0.6082
 4178TIP3    H234170   6.587   2.849   1.766  0.6992  0.5557 -0.2016
 4179TIP3   OH234171   6.481   6.044   8.707 -0.0473 -0.1196 -0.3886
 4179TIP3    H134172   6.474   6.098   8.628  0.3385  0.0217 -0.3261
 4179TIP3    H234173   6.409   5.981   8.699  0.6667 -0.8258 -1.4016
 4180TIP3   OH234174   2.020   0.656   6.954 -0.3567  0.3741 -0.0765
 4180TIP3    H134175   2.097   0.611   6.922  0.7221 -0.6851  3.5253
 4180TIP3    H234176   1.958   0.586   6.975 -1.7132  1.1165 -1.3938
 4181TIP3   OH234177   3.648   3.081   0.264  0.2553 -0.2818  0.3198
 4181TIP3    H134178   3.569   3.133   0.277  0.8916  0.6635  0.5308
 4181TIP3    H234179   3.626   3.021   0.193 -0.4951  0.3097  0.0396
 4182TIP3   OH234180   3.676   2.661   8.166 -0.5401 -0.5962  0.1346
 4182TIP3    H134181   3.646   2.635   8.079 -0.9750  0.1997  0.0347
 4182TIP3    H234182   3.724   2.585   8.199  2.2972  0.0610 -2.0236
 4183TIP3   OH234183   5.220   1.370   1.611  0.6843  0.3616 -0.5196
 4183TIP3    H134184   5.284   1.314   1.568 -0.0421  0.0720 -1.2463
 4183TIP3    H234185   5.224   1.345   1.704  2.1285  0.8583 -0.4252
 4184TIP3   OH234186   3.453   5.171   8.280 -0.1565  0.2137  0.2927
 4184TIP3    H134187   3.519   5.186   8.213  1.2535 -1.1661  1.3036
 4184TIP3    H234188   3.440   5.256   8.320  0.6468  0.6035 -0.2502
 4185TIP3   OH234189   1.941   2.722   8.450  0.1907 -0.1647  0.0976
 4185TIP3    H134190   1.866   2.663   8.460  2.3632 -3.0656  0.7730
 4185TIP3    H234191   1.955   2.757   8.538 -0.3720  0.4125 -0.0379
 4186TIP3   OH234192   4.601   4.893   1.234 -0.2426  0.1403  0.1632
 4186TIP3    H134193   4.545   4.930   1.166 -0.9594 -0.3420  0.4736
 4186TIP3    H234194   4.687   4.887   1.194 -0.4530  0.7179 -0.3905
 4187TIP3   OH234195   2.113   3.046   6.766 -0.1269  0.2346  0.5751
 4187TIP3    H134196   2.027   3.079   6.792 -0.6770  1.3827 -2.2986
 4187TIP3    H234197   2.119   3.067   6.673  2.5255 -1.5024  0.2596
 4188TIP3   OH234198   6.406   2.609   8.758 -0.3285 -0.6718 -0.5273
 4188TIP3    H134199   6.354   2.614   8.677 -0.1955 -0.6831 -0.6145
 4188TIP3    H234200   6.362   2.542   8.810 -1.4176  0.5117  0.1382
 4189TIP3   OH234201   4.310   4.344   0.099  0.0241  0.0019 -0.0740
 4189TIP3    H134202   4.301   4.325   0.005  0.5365 -0.0731 -0.1065
 4189TIP3    H234203   4.295   4.438   0.105 -2.9133 -0.3756  0.1357
 4190TIP3   OH234204   5.244   0.454   0.721 -0.3528 -0.3389  0.9609
 4190TIP3    H134205   5.329   0.411   0.726 -0.5567 -0.8167  0.4961
 4190TIP3    H234206   5.257   0.528   0.662 -0.5172 -1.0727 -0.0149
 4191TIP3   OH234207   4.144   1.990   6.446 -0.7336 -0.4649 -0.0362
 4191TIP3    H134208   4.230   1.987   6.406  0.0578 -0.0208  1.5444
 4191TIP3    H234209   4.155   1.946   6.530 -1.8713  0.1901  0.4836
 4192TIP3   OH234210   6.206   4.703   0.781  0.4627  0.4125 -0.6777
 4192TIP3    H134211   6.266   4.715   0.854  0.2535 -0.7650 -0.2876
 4192TIP3    H234212   6.261   4.674   0.708  0.4831  0.1571 -0.5615
 4193TIP3   OH234213   5.229   1.535   7.274 -0.6666  0.5073  0.1004
 4193TIP3    H134214   5.278   1.487   7.341 -0.7183  1.1653  0.6253
 4193TIP3    H234215   5.166   1.471   7.240  0.2504 -0.2164 -0.2774
 4194TIP3   OH234216   5.255   5.758   8.005 -0.1145  0.2613  0.3800
 4194TIP3    H134217   5.308   5.679   8.016  0.6162  0.6536 -0.1960
 4194TIP3    H234218   5.312   5.829   8.035  0.0551  0.7880 -1.0901
 4195TIP3   OH234219   4.564   4.388   1.538 -0.3384  0.8275 -0.3442
 4195TIP3    H134220   4.650   4.396   1.498 -0.8399  3.0772 -1.0935
 4195TIP3    H234221   4.554   4.294   1.555  1.5582  0.3155 -1.7611
 4196TIP3   OH234222   2.825   1.858   8.603  0.1050  0.6402 -0.3345
 4196TIP3    H134223   2.793   1.796   8.537  0.1437 -1.4111  1.4601
 4196TIP3    H234224   2.915   1.830   8.621  0.5136  1.9381 -0.2867
 4197TIP3   OH234225   4.503   6.056   7.293 -0.0524  0.4023 -0.2586
 4197TIP3    H134226   4.531   5.984   7.236 -0.1978 -0.2889  0.5212
 4197TIP3    H234227   4.441   6.106   7.240  2.1048  1.5975 -1.7875
 4198TIP3   OH234228   2.227   0.375   0.249 -0.1627 -0.0475  0.3930
 4198TIP3    H134229   2.159   0.331   0.197  0.6973 -0.7322 -0.1782
 4198TIP3    H234230   2.235   0.462   0.209 -1.2563  0.3424  0.9749
 4199TIP3   OH234231   2.508   2.173   7.136 -0.2959 -0.4223  0.1718
 4199TIP3    H134232   2.540   2.263   7.131  1.2553 -0.9993 -1.0162
 4199TIP3    H234233   2.586   2.119   7.126 -1.4936 -1.8984 -2.0170
 4200TIP3   OH234234   1.408   3.755   8.659  0.2728  0.2895  0.0146
 4200TIP3    H134235   1.438   3.830   8.710  0.7063 -0.4828  0.9412
 4200TIP3    H234236   1.468   3.751   8.584  1.1733  0.0183  0.7278
 4201TIP3   OH234237   5.650   1.960   8.802  0.5583  0.2222  0.1118
 4201TIP3    H134238   5.622   2.015   8.728 -0.5923  0.6836  0.8639
 4201TIP3    H234239   5.684   2.022   8.866  1.8639 -0.2052 -0.1464
 4202TIP3   OH234240   5.940   3.006   1.643  0.3925 -0.4255  0.2599
 4202TIP3    H134241   5.938   3.032   1.551  2.1553 -0.5790  0.1509
 4202TIP3    H234242   5.865   2.948   1.653  0.4364 -0.7689 -1.1949
 4203TIP3   OH234243   0.211   2.881   0.735  0.0821  0.3154  0.2001
 4203TIP3    H134244   0.233   2.974   0.732 -0.9545  0.5783  0.4940
 4203TIP3    H234245   0.276   2.839   0.679  0.2936  1.2663 -0.2784
 4204TIP3   OH234246   3.964   0.948   7.562 -0.3611  0.1761  0.1362
 4204TIP3    H134247   3.931   0.858   7.568  0.0721 -0.0521 -0.6859
 4204TIP3    H234248   3.970   0.978   7.653  0.1872 -0.8871  0.4635
 4205TIP3   OH234249   2.175   2.228   1.459 -0.1711  0.1817  0.2918
 4205TIP3    H134250   2.112   2.209   1.528 -1.0781  0.2444 -0.5010
 4205TIP3    H234251   2.250   2.171   1.479 -0.8977 -0.6752  0.6660
 4206TIP3   OH234252   3.330   2.528   8.871 -0.4145  0.3376 -0.0168
 4206TIP3    H134253   3.293   2.516   8.959  0.0388  0.5168  0.2042
 4206TIP3    H234254   3.273   2.478   8.814 -0.9716  0.5667  0.3228
 4207TIP3   OH234255   0.760   6.719   7.211 -0.4097 -0.2425  0.4339
 4207TIP3    H134256   0.834   6.742   7.154 -0.7282  2.9107  1.1093
 4207TIP3    H234257   0.786   6.636   7.252  2.4787  0.4403  0.1880
 4208TIP3   OH234258   5.275   5.281   1.235 -0.0488  0.0170 -0.1650
 4208TIP3    H134259   5.299   5.256   1.145 -0.8314 -0.8560 -0.1510
 4208TIP3    H234260   5.188   5.242   1.248  0.6566 -1.0956  1.4519
 4209TIP3   OH234261   6.252   4.226   6.909 -0.1624 -0.3795  0.6630
 4209TIP3    H134262   6.323   4.190   6.964 -0.5582 -2.1249  0.0923
 4209TIP3    H234263   6.243   4.163   6.838 -1.0718  0.7808 -0.2867
 4210TIP3   OH234264   0.583   0.223   8.493 -0.0082  0.0218 -0.3085
 4210TIP3    H134265   0.659   0.265   8.533 -0.1913  0.3068 -0.2591
 4210TIP3    H234266   0.518   0.293   8.485  0.4486  0.2816 -2.2337
 4211TIP3   OH234267   1.851   3.457   1.339 -0.3828 -0.3981  0.6303
 4211TIP3    H134268   1.838   3.367   1.369  1.9359 -1.3035 -0.8605
 4211TIP3    H234269   1.890   3.502   1.414  0.0871 -1.1057  0.8175
 4212TIP3   OH234270   4.076   1.402   1.435 -0.3023  0.2231 -0.3876
 4212TIP3    H134271   4.092   1.413   1.341  1.8281 -1.0043 -0.2268
 4212TIP3    H234272   4.065   1.491   1.468  1.2482  0.8573 -1.4648
 4213TIP3   OH234273   0.951   2.003   7.730  0.2801 -0.0392 -0.3656
 4213TIP3    H134274   0.924   2.089   7.763 -1.1663 -0.0745 -1.3361
 4213TIP3    H234275   0.955   1.947   7.808  1.9531  1.0499  0.3739
 4214TIP3   OH234276   0.831   0.324   7.853 -0.2693 -0.1419 -0.5242
 4214TIP3    H134277   0.914   0.343   7.810 -0.5633  1.8591 -0.2747
 4214TIP3    H234278   0.802   0.408   7.889 -3.2634 -0.3525 -2.1029
 4215TIP3   OH234279   0.111   4.329   8.854  0.1102 -0.3863 -0.3881
 4215TIP3    H134280   0.177   4.267   8.885  0.9351  0.0696 -1.1660
 4215TIP3    H234281   0.094   4.386   8.929  1.1377 -0.0793 -0.3662
 4216TIP3   OH234282   0.351   4.548   8.414 -0.3426  0.1022  0.6456
 4216TIP3    H134283   0.401   4.528   8.335  0.5129  1.6631  0.7431
 4216TIP3    H234284   0.328   4.463   8.450  1.5796 -0.6950  0.1540
 4217TIP3   OH234285   1.957   6.223   7.730 -0.2151 -0.3463  0.1795
 4217TIP3    H134286   1.916   6.195   7.648 -0.6929 -1.9309  0.9084
 4217TIP3    H234287   1.888   6.214   7.796  0.1476  0.9484  0.7682
 4218TIP3   OH234288   4.472   1.613   7.880  0.0970  0.0961  0.1685
 4218TIP3    H134289   4.395   1.590   7.828  0.4335  1.5075 -1.0271
 4218TIP3    H234290   4.517   1.530   7.894  0.4931 -0.2777 -2.6789
 4219TIP3   OH234291   0.773   1.480   7.596 -0.0576 -0.3502  0.0566
 4219TIP3    H134292   0.728   1.491   7.512 -1.2598 -0.3350  0.6961
 4219TIP3    H234293   0.758   1.561   7.643 -0.9847 -1.0662  1.0300
 4220TIP3   OH234294   0.588   0.062   6.601 -0.0476  0.0487 -0.3882
 4220TIP3    H134295   0.535   0.139   6.583  0.1954  0.3191  0.0340
 4220TIP3    H234296   0.613   0.028   6.515 -0.7073  0.0556 -0.5844
 4221TIP3   OH234297   0.914   5.348   8.106 -0.4174 -0.0171  0.1541
 4221TIP3    H134298   0.981   5.413   8.126 -1.1815  0.4282  1.3847
 4221TIP3    H234299   0.901   5.300   8.189  0.1883 -1.8253 -0.7337
 4222TIP3   OH234300   0.051   0.394   8.203 -0.1553  0.2380  0.0714
 4222TIP3    H134301   0.078   0.377   8.113  1.0075 -0.8188  0.5807
 4222TIP3    H234302   0.097   0.327   8.255 -2.3273 -0.4589  1.2367
 4223TIP3   OH234303   0.126   0.331   0.754 -0.2538 -0.9934 -0.6931
 4223TIP3    H134304   0.213   0.316   0.790 -1.0521 -0.6600  1.5147
 4223TIP3    H234305   0.078   0.250   0.772 -0.5693 -0.9667 -1.3893
 4224TIP3   OH234306   5.657   2.455   1.184 -0.5641  0.1152  0.1861
 4224TIP3    H134307   5.649   2.381   1.244 -1.4764 -0.2461 -0.3506
 4224TIP3    H234308   5.567   2.473   1.157 -0.2627  0.8834 -0.3341
 4225TIP3   OH234309   3.543   4.925   7.200  0.2990 -0.0783 -0.1490
 4225TIP3    H134310   3.456   4.891   7.220 -0.5441  0.8553 -1.9716
 4225TIP3    H234311   3.581   4.946   7.286 -1.3017 -0.3979  0.6808
 4226TIP3   OH234312   5.648   2.118   0.048 -0.1848  0.3617  0.0671
 4226TIP3    H134313   5.580   2.170   0.090 -0.8904 -0.3876 -0.1438
 4226TIP3    H234314   5.713   2.103   0.118 -1.0239 -0.3103  0.7232
 4227TIP3   OH234315   6.755   0.790   0.950  0.3812  0.0877  0.1020
 4227TIP3    H134316   6.666   0.776   0.980 -0.9760  3.4298 -1.8181
 4227TIP3    H234317   6.809   0.776   1.027 -1.8929 -0.8144  1.6347
 4228TIP3   OH234318   1.964   4.356   1.098 -0.1464 -0.2209 -0.3726
 4228TIP3    H134319   1.869   4.358   1.102 -0.2889  3.3978 -1.7887
 4228TIP3    H234320   1.992   4.432   1.149  1.9343 -0.6681 -0.7369
 4229TIP3   OH234321   0.095   3.315   8.698  0.6123 -0.4077 -0.0911
 4229TIP3    H134322   0.177   3.271   8.719  0.0086 -0.3039  3.0083
 4229TIP3    H234323   0.027   3.257   8.733 -0.4185  1.0798  0.4975
 4230TIP3   OH234324   2.537   1.700   2.152 -0.2788 -0.0451 -0.1669
 4230TIP3    H134325   2.581   1.618   2.174 -0.8754 -0.8285 -1.7381
 4230TIP3    H234326   2.501   1.731   2.235  0.9094 -0.7752  0.6506
 4231TIP3   OH234327   2.505   5.162   1.513  0.2133  0.1702  0.7001
 4231TIP3    H134328   2.554   5.087   1.478  0.8009  0.8770 -0.0205
 4231TIP3    H234329   2.569   5.209   1.567  0.5365  1.3852 -0.6544
 4232TIP3   OH234330   2.878   4.843   6.708  0.5966  0.1043  0.4647
 4232TIP3    H134331   2.949   4.904   6.728 -1.1560  2.3274  0.3454
 4232TIP3    H234332   2.868   4.850   6.613 -0.3850  0.5683  0.5942
 4233TIP3   OH234333   3.408   5.692   7.715  0.2013  0.2872  0.1034
 4233TIP3    H134334   3.480   5.636   7.687 -0.0486 -0.9484  1.7341
 4233TIP3    H234335   3.428   5.778   7.679  0.8759 -0.7097 -2.0559
 4234TIP3   OH234336   3.155   2.403   6.327 -0.0424 -0.5923  0.4018
 4234TIP3    H134337   3.250   2.390   6.325  0.0285 -0.4927  2.0871
 4234TIP3    H234338   3.143   2.496   6.306  0.5515  0.3842  3.8320
 4235TIP3   OH234339   2.533   1.411   2.455  0.8673  0.2326 -0.4103
 4235TIP3    H134340   2.584   1.492   2.456 -1.0764  1.6069 -2.8140
 4235TIP3    H234341   2.442   1.440   2.450 -0.0633 -2.1485  0.9496
 4236TIP3   OH234342   2.895   1.601   1.563  0.4091  0.2954 -0.7142
 4236TIP3    H134343   2.925   1.687   1.593  0.9570  0.0010 -0.4030
 4236TIP3    H234344   2.963   1.572   1.503  0.4100 -0.0853 -0.5290
 4237TIP3   OH234345   0.458   0.945   2.602 -0.2000 -0.2846 -0.1290
 4237TIP3    H134346   0.460   1.031   2.559  0.9202 -0.7363 -1.0252
 4237TIP3    H234347   0.472   0.965   2.695 -2.5098  0.6898  0.0982
 4238TIP3   OH234348   2.139   6.626   7.537 -0.0748 -0.3073  0.3656
 4238TIP3    H134349   2.055   6.595   7.570 -0.2041 -1.1416 -0.6955
 4238TIP3    H234350   2.198   6.552   7.549  0.5815  0.3497  1.3161
 4239TIP3   OH234351   4.503   3.130   2.299 -0.9841 -0.2267  0.2351
 4239TIP3    H134352   4.592   3.164   2.302  0.6570 -4.0010 -0.7212
 4239TIP3    H234353   4.479   3.132   2.206 -0.4164 -2.4363 -0.0110
 4240TIP3   OH234354   2.462   0.555   8.285 -1.0266  0.4895  0.4295
 4240TIP3    H134355   2.516   0.475   8.287 -1.2037  0.3689  0.3989
 4240TIP3    H234356   2.500   0.611   8.352  0.4916  1.2815 -1.0136
 4241TIP3   OH234357   6.735   4.701   7.704 -0.3853  0.6966  0.3829
 4241TIP3    H134358   6.732   4.688   7.799  0.3330  2.2236  0.6485
 4241TIP3    H234359   6.740   4.613   7.668 -0.6231  0.0928  1.7705
 4242TIP3   OH234360   1.355   4.822   8.739  1.0149  0.0862  0.2527
 4242TIP3    H134361   1.380   4.793   8.827  0.1304 -0.0389  0.4730
 4242TIP3    H234362   1.361   4.918   8.743 -2.5017  0.4001  1.6247
 4243TIP3   OH234363   0.095   0.456   7.922 -0.1498 -0.4755  0.1307
 4243TIP3    H134364   0.012   0.408   7.930 -0.5449 -0.2297 -1.8448
 4243TIP3    H234365   0.135   0.421   7.842  0.6856  0.7941 -0.0359
 4244TIP3   OH234366   0.043   0.948   8.808  0.2100  0.0130 -0.2363
 4244TIP3    H134367   0.003   1.008   8.871 -0.1969 -0.7486  0.2335
 4244TIP3    H234368  -0.022   0.941   8.738 -0.3397 -0.9206  0.3452
 4245TIP3   OH234369   2.215   4.811   6.899 -0.1653  0.4252 -0.4819
 4245TIP3    H134370   2.174   4.817   6.813  2.2281  1.8129 -1.6282
 4245TIP3    H234371   2.253   4.898   6.914  1.0474 -0.3203  1.1302
 4246TIP3   OH234372   3.827   0.698   0.354 -0.0551 -0.3711  0.3168
 4246TIP3    H134373   3.906   0.733   0.395  0.0939 -0.4880  0.1292
 4246TIP3    H234374   3.852   0.680   0.264 -0.1452 -0.9233  0.4029
 4247TIP3   OH234375   3.989   6.144   6.717  0.0047 -0.0138  0.8848
 4247TIP3    H134376   4.037   6.062   6.731  0.7055  0.5346  1.7960
 4247TIP3    H234377   3.898   6.122   6.739  0.2037 -0.5200  1.2337
 4248TIP3   OH234378   6.606   0.337   0.646  0.1151  0.3896 -0.1102
 4248TIP3    H134379   6.595   0.389   0.726 -0.4810 -0.5978  0.4593
 4248TIP3    H234380   6.649   0.257   0.675  0.3338  0.2313 -0.8589
 4249TIP3   OH234381   0.570   2.631   7.828  0.9024  0.0183 -0.0856
 4249TIP3    H134382   0.550   2.701   7.766 -0.7718  0.1975  0.6005
 4249TIP3    H234383   0.599   2.558   7.774 -1.7085 -0.2672 -1.2670
 4250TIP3   OH234384   4.995   0.823   8.850 -0.1385 -0.4160  0.0614
 4250TIP3    H134385   5.054   0.854   8.919 -0.8781 -2.0291  1.4773
 4250TIP3    H234386   5.053   0.799   8.778  0.8791 -1.0375  1.0602
 4251TIP3   OH234387   0.805   3.633   1.739 -0.2551 -0.3088  0.4051
 4251TIP3    H134388   0.822   3.595   1.825  1.6691 -0.7056 -0.1191
 4251TIP3    H234389   0.852   3.716   1.740 -0.2093 -0.3265 -0.2747
 4252TIP3   OH234390   5.814   6.752   7.121 -0.2303  0.6090 -0.2739
 4252TIP3    H134391   5.823   6.822   7.186  1.0670  1.4046 -1.2482
 4252TIP3    H234392   5.776   6.796   7.044  0.8227  0.3266 -0.9782
 4253TIP3   OH234393   4.458   0.542   8.047  0.6452 -0.2052  0.2832
 4253TIP3    H134394   4.397   0.600   8.002 -0.3697 -1.9810 -0.7444
 4253TIP3    H234395   4.516   0.510   7.978  0.3019 -1.4700  0.5571
 4254TIP3   OH234396   4.733   3.356   6.775  0.2787  0.4978 -0.1808
 4254TIP3    H134397   4.791   3.366   6.699  0.9263  1.5303  0.4334
 4254TIP3    H234398   4.655   3.408   6.752  0.4833  0.8280 -0.1306
 4255TIP3   OH234399   3.090   3.358   8.478  0.2714 -0.3443  0.3001
 4255TIP3    H134400   3.102   3.271   8.440  2.4205  1.2799 -3.2512
 4255TIP3    H234401   3.164   3.370   8.536  2.5195  0.4884 -2.4936
 4256TIP3   OH234402   1.666   6.267   7.169 -0.2454  0.3014 -0.0951
 4256TIP3    H134403   1.604   6.216   7.117 -0.1568 -0.4269  0.4910
 4256TIP3    H234404   1.695   6.206   7.237  1.4127  0.4815 -0.5890
 4257TIP3   OH234405   1.326   2.016   0.128 -0.3285  0.3442 -0.0603
 4257TIP3    H134406   1.383   2.093   0.134  0.3489 -0.2335  1.2947
 4257TIP3    H234407   1.338   1.971   0.212 -2.2251 -0.1943 -0.0435
 4258TIP3   OH234408   5.597   1.683   1.149  0.1905 -0.1412 -0.1973
 4258TIP3    H134409   5.506   1.653   1.154  1.1302 -3.2650 -0.1466
 4258TIP3    H234410   5.633   1.637   1.073  1.9223  0.5193  0.1848
 4259TIP3   OH234411   5.346   3.165   8.900  0.7686  0.0893  0.2879
 4259TIP3    H134412   5.332   3.257   8.877 -0.3334  0.4518  2.1760
 4259TIP3    H234413   5.436   3.147   8.875  0.8315  1.5066 -0.6352
 4260TIP3   OH234414   0.905   2.880   0.764 -0.1466 -0.2720  0.1797
 4260TIP3    H134415   0.809   2.876   0.769 -0.1830 -0.4829 -0.5260
 4260TIP3    H234416   0.931   2.794   0.732  0.2981 -0.2928  0.5958
 4261TIP3   OH234417   5.008   1.729   7.430  0.0812  0.3001  0.1654
 4261TIP3    H134418   5.028   1.816   7.395  1.3700  0.8422  2.0531
 4261TIP3    H234419   5.031   1.668   7.360  0.2313  1.4148 -0.7837
 4262TIP3   OH234420   5.804   6.209   8.619  0.0459 -0.0762  0.2679
 4262TIP3    H134421   5.783   6.225   8.527  0.5468  3.7249  0.6721
 4262TIP3    H234422   5.721   6.222   8.665  0.4750  1.5865  0.6247
 4263TIP3   OH234423   6.432   5.762   1.946  0.1388  0.3995 -0.2415
 4263TIP3    H134424   6.475   5.846   1.964  2.9509 -0.6334 -1.5084
 4263TIP3    H234425   6.422   5.760   1.851  0.5852 -0.8694 -0.2845
 4264TIP3   OH234426   2.212   0.108   1.656 -0.0205  0.1946 -0.3554
 4264TIP3    H134427   2.250   0.178   1.710 -0.7663  0.7379 -0.5104
 4264TIP3    H234428   2.282   0.045   1.645  0.2532  0.2444  0.9584
 4265TIP3   OH234429   6.698   1.844   0.501 -0.1395  0.1198 -0.2238
 4265TIP3    H134430   6.674   1.925   0.547 -0.4627 -0.4012  0.5565
 4265TIP3    H234431   6.620   1.820   0.451 -0.9713 -1.0298  1.5179
 4266TIP3   OH234432   0.844   2.195   8.531  1.0442 -0.5636 -0.5914
 4266TIP3    H134433   0.789   2.194   8.610  0.1510 -0.8279 -1.1950
 4266TIP3    H234434   0.892   2.278   8.537 -0.5348  0.4154 -0.7617
 4267TIP3   OH234435   4.854   2.362   8.540 -0.3763  0.3581 -0.5549
 4267TIP3    H134436   4.825   2.350   8.449 -0.4750  0.8887 -0.5965
 4267TIP3    H234437   4.934   2.415   8.533  1.2634 -1.9755 -0.5129
 4268TIP3   OH234438   3.160   0.995   0.070 -0.5514 -0.4305 -0.1352
 4268TIP3    H134439   3.128   0.953  -0.010 -1.2892  0.5139 -0.3619
 4268TIP3    H234440   3.255   0.997   0.060 -0.7101  1.3863 -1.9160
 4269TIP3   OH234441   2.719   1.443   0.963  0.1954 -0.0684 -0.0957
 4269TIP3    H134442   2.737   1.484   0.878  0.3093  1.3413  0.5846
 4269TIP3    H234443   2.720   1.515   1.025 -0.0960 -1.0544  1.0897
 4270TIP3   OH234444   3.968   4.649   0.034 -0.6177 -0.0498  0.3076
 4270TIP3    H134445   4.049   4.681   0.075 -0.3520  0.4413 -0.5877
 4270TIP3    H234446   3.946   4.715  -0.032  0.9619 -2.4889 -2.9147
 4271TIP3   OH234447   2.265   0.472   7.007  0.7937 -0.3090  0.3056
 4271TIP3    H134448   2.328   0.401   7.001  1.3518  0.0225  1.8209
 4271TIP3    H234449   2.304   0.533   7.070 -0.4412  0.5264  0.2863
 4272TIP3   OH234450   2.117   0.890   6.274  0.4478  0.7099  0.1099
 4272TIP3    H134451   2.094   0.967   6.221  1.8337  1.1412  0.0809
 4272TIP3    H234452   2.127   0.925   6.363 -0.9908  0.1520  0.5180
 4273TIP3   OH234453   2.562   0.270   0.144  0.0201 -0.2358  0.4818
 4273TIP3    H134454   2.501   0.329   0.100  0.9511  0.4502  0.0896
 4273TIP3    H234455   2.594   0.212   0.075  0.5333  0.0290  0.4950
 4274TIP3   OH234456   4.626   5.272   6.909  0.2069  0.0395 -0.0143
 4274TIP3    H134457   4.591   5.271   6.820  1.1616  3.9672 -0.6264
 4274TIP3    H234458   4.719   5.253   6.899  0.0296 -1.1016  0.3912
 4275TIP3   OH234459   0.283   4.395   7.815  0.3494 -0.0755 -0.6605
 4275TIP3    H134460   0.298   4.404   7.720  2.4534  2.3390 -0.2230
 4275TIP3    H234461   0.371   4.391   7.852 -0.3757  0.9193  1.3016
 4276TIP3   OH234462   6.758   1.191   8.942  0.6300 -0.9389 -0.0657
 4276TIP3    H134463   6.723   1.262   8.888  0.0327 -1.8514 -0.9382
 4276TIP3    H234464   6.833   1.229   8.987  0.0880  0.3453 -0.1943
 4277TIP3   OH234465   3.874   4.402   7.933  0.5367  0.1172  0.1382
 4277TIP3    H134466   3.860   4.496   7.949  0.8987 -0.0213  1.3709
 4277TIP3    H234467   3.879   4.363   8.021 -0.5323 -1.2070 -0.3584
 4278TIP3   OH234468   3.617   4.083   8.485 -0.0263 -0.8451 -0.6386
 4278TIP3    H134469   3.532   4.058   8.521 -0.3147 -0.7771 -1.2548
 4278TIP3    H234470   3.630   4.173   8.516 -0.7490 -0.4180 -1.5228
 4279TIP3   OH234471   6.157   2.395   7.490 -0.1493  0.0630 -0.5670
 4279TIP3    H134472   6.148   2.490   7.478 -0.9356 -0.0229 -0.6821
 4279TIP3    H234473   6.111   2.377   7.572 -0.3888 -0.2851 -0.7760
 4280TIP3   OH234474   2.811   3.398   0.800 -0.0488  0.0434  0.3187
 4280TIP3    H134475   2.751   3.462   0.838 -2.1636 -0.2417 -2.2420
 4280TIP3    H234476   2.770   3.313   0.817  0.5038 -0.2982 -0.0165
 4281TIP3   OH234477   3.647   6.387   0.117  0.1149 -0.2009 -0.5996
 4281TIP3    H134478   3.602   6.453   0.170 -2.3479 -1.6844 -0.7115
 4281TIP3    H234479   3.728   6.369   0.165 -0.3689  1.0604  0.7602
 4282TIP3   OH234480   0.921   5.509   0.267  0.6296 -0.1605 -0.2244
 4282TIP3    H134481   0.854   5.526   0.333 -0.2472  0.7013 -1.2875
 4282TIP3    H234482   0.913   5.583   0.206  0.6935 -1.4638 -1.8637
 4283TIP3   OH234483   4.840   5.922   7.654  0.3622 -0.5324  0.0372
 4283TIP3    H134484   4.781   5.884   7.720 -1.6823 -1.1667 -2.0400
 4283TIP3    H234485   4.845   5.855   7.585  2.3755  0.1452 -0.5573
 4284TIP3   OH234486   3.245   3.320   0.154 -0.0857 -0.3863  0.1169
 4284TIP3    H134487   3.194   3.254   0.108  0.4902 -0.5639 -0.2846
 4284TIP3    H234488   3.182   3.368   0.207 -0.5960 -0.8738 -0.0494
 4285TIP3   OH234489   4.969   1.711   1.040  0.9339 -0.3435  0.4998
 4285TIP3    H134490   4.941   1.620   1.026 -2.9470  0.7773  0.0524
 4285TIP3    H234491   5.037   1.725   0.973 -0.7692 -1.9982 -1.7570
 4286TIP3   OH234492   0.684   3.366   8.220  0.4927 -0.0189 -0.0560
 4286TIP3    H134493   0.689   3.461   8.210  1.3069 -0.1948 -1.7738
 4286TIP3    H234494   0.590   3.347   8.225  0.2798  0.8174 -0.5917
 4287TIP3   OH234495   3.970   4.027   1.919 -0.0532 -0.4327 -0.5136
 4287TIP3    H134496   3.936   3.965   1.984  0.6579 -0.8342 -0.5138
 4287TIP3    H234497   4.000   3.971   1.847 -0.9879  0.0139 -1.2785
 4288TIP3   OH234498   5.144   4.436   1.318 -0.0049 -0.5604 -0.0644
 4288TIP3    H134499   5.116   4.514   1.365  0.4520 -1.0399  1.0436
 4288TIP3    H234500   5.071   4.374   1.329 -0.5807 -0.1472 -1.3572
 4289TIP3   OH234501   6.474   1.028   6.279 -0.3716 -0.2663  0.2344
 4289TIP3    H134502   6.535   0.992   6.345  0.0972 -1.1990 -0.6842
 4289TIP3    H234503   6.414   0.956   6.260 -2.7581  1.0607  2.1760
 4290TIP3   OH234504   0.091   1.626   0.186 -0.1625 -0.4718 -0.0893
 4290TIP3    H134505   0.091   1.592   0.097 -0.6859 -3.0988  0.8301
 4290TIP3    H234506   0.009   1.594   0.224  1.2131 -1.6532  2.0785
 4291TIP3   OH234507   6.548   5.545   0.567  0.0868 -0.2017  0.2327
 4291TIP3    H134508   6.587   5.470   0.523  1.9639  0.4593  0.6899
 4291TIP3    H234509   6.551   5.615   0.502 -1.2431 -0.3641 -0.0388
 4292TIP3   OH234510   5.396   5.843   1.634  0.5795  0.3864 -0.2150
 4292TIP3    H134511   5.460   5.912   1.649  1.1001 -0.1638  0.1299
 4292TIP3    H234512   5.434   5.766   1.675  0.8080 -0.5233 -2.0304
 4293TIP3   OH234513   3.115   5.189   1.444  0.1569 -0.0894  0.3372
 4293TIP3    H134514   3.040   5.140   1.412  0.3703  0.0224 -0.3530
 4293TIP3    H234515   3.083   5.235   1.521 -0.7314  0.6515 -0.4505
 4294TIP3   OH234516   6.426   5.193   8.405 -0.2295  0.6241 -0.2587
 4294TIP3    H134517   6.503   5.169   8.456  0.3728  1.5401 -0.7107
 4294TIP3    H234518   6.441   5.156   8.318 -0.8203 -0.1348 -0.0481
 4295TIP3   OH234519   4.254   5.729   0.070 -0.2374 -0.5889 -0.3480
 4295TIP3    H134520   4.261   5.649   0.122  0.5866 -0.5338 -0.3647
 4295TIP3    H234521   4.339   5.738   0.028 -0.0832  0.6533  0.1841
 4296TIP3   OH234522   0.452   1.361   6.288  0.0637  0.3478 -0.3766
 4296TIP3    H134523   0.408   1.412   6.221  0.4747  0.3528 -0.6452
 4296TIP3    H234524   0.499   1.426   6.341  0.7090  0.2413 -0.8092
 4297TIP3   OH234525   4.603   5.930   0.205  0.3327  0.0320 -0.0865
 4297TIP3    H134526   4.561   5.928   0.119  1.0525 -2.1447 -0.4384
 4297TIP3    H234527   4.645   5.845   0.214  0.2061  0.1496  2.4859
 4298TIP3   OH234528   2.787   3.859   7.028 -0.3273 -0.0992  0.4553
 4298TIP3    H134529   2.717   3.903   6.978 -0.2022 -0.3952  0.0150
 4298TIP3    H234530   2.854   3.926   7.038 -0.7529  0.2502  1.0533
 4299TIP3   OH234531   2.679   3.763   0.512  0.6622  0.3959  0.1055
 4299TIP3    H134532   2.622   3.836   0.536 -0.9683 -0.7519 -0.1262
 4299TIP3    H234533   2.697   3.776   0.419 -1.0453 -0.3581 -0.3767
 4300TIP3   OH234534   0.077   5.675   1.220 -0.0212  0.0553  0.1064
 4300TIP3    H134535   0.138   5.614   1.263 -0.5774 -0.0955  0.7058
 4300TIP3    H234536   0.023   5.709   1.292  0.6614  1.7245 -0.1349
 4301TIP3   OH234537   6.755   4.491   7.511 -0.7683 -0.9097 -0.1671
 4301TIP3    H134538   6.801   4.410   7.488 -1.2634 -1.3951  0.4816
 4301TIP3    H234539   6.671   4.484   7.465 -1.5746 -1.6693  1.3466
 4302TIP3   OH234540   2.489   5.964   8.018 -0.1567 -0.6156 -0.0517
 4302TIP3    H134541   2.404   5.995   8.050  0.5877  2.4572 -0.7709
 4302TIP3    H234542   2.546   5.966   8.095  0.0793  0.7036 -0.2358
 4303TIP3   OH234543   1.439   0.472   8.018 -0.5121 -0.1406 -0.1018
 4303TIP3    H134544   1.356   0.488   7.974 -0.9779 -1.7024  0.1437
 4303TIP3    H234545   1.489   0.552   8.005 -1.8511  0.6284 -0.7081
 4304TIP3   OH234546   1.666   5.418   0.440  0.6059  0.3662 -0.0675
 4304TIP3    H134547   1.687   5.461   0.523  0.4493 -2.1073  1.3470
 4304TIP3    H234548   1.607   5.347   0.464  1.6049 -1.2497 -2.0859
 4305TIP3   OH234549   1.223   4.517   1.040 -0.1693  0.1129  0.0152
 4305TIP3    H134550   1.231   4.422   1.045  0.3974 -0.0682 -2.9296
 4305TIP3    H234551   1.129   4.533   1.027 -0.6631  0.2169  2.9484
 4306TIP3   OH234552   1.784   6.409   6.560  0.3374 -0.1509 -0.0150
 4306TIP3    H134553   1.714   6.465   6.592  0.3835 -0.0598 -0.0745
 4306TIP3    H234554   1.743   6.323   6.547 -0.0645  0.2010 -1.2370
 4307TIP3   OH234555   6.272   3.468   0.728 -0.6491 -0.1391 -0.1473
 4307TIP3    H134556   6.337   3.527   0.690  1.3826 -0.8250  2.0382
 4307TIP3    H234557   6.280   3.480   0.823 -3.7233 -0.3221  0.2440
 4308TIP3   OH234558   3.276   4.108   8.250  0.0818  0.8871  0.4335
 4308TIP3    H134559   3.184   4.087   8.232  0.0822  0.5700  0.7821
 4308TIP3    H234560   3.326   4.055   8.188  0.1493 -1.3960  2.2940
 4309TIP3   OH234561   5.738   5.851   1.716 -0.0373 -0.0864 -0.1044
 4309TIP3    H134562   5.762   5.855   1.623 -0.9315  0.5593 -0.3191
 4309TIP3    H234563   5.822   5.852   1.762  0.4673 -1.6044 -0.9244
 4310TIP3   OH234564   2.306   3.699   0.862  0.3698 -0.2027 -0.3898
 4310TIP3    H134565   2.321   3.608   0.838  0.9966 -0.0279 -0.6680
 4310TIP3    H234566   2.222   3.698   0.909  0.8467 -1.0626  0.4620
 4311TIP3   OH234567   0.376   1.042   6.136  0.2806  0.2397  0.4138
 4311TIP3    H134568   0.417   0.956   6.146 -1.4510 -0.5374  1.2367
 4311TIP3    H234569   0.321   1.033   6.058  0.4009  0.7375  0.2699
 4312TIP3   OH234570   3.633   5.152   7.789  0.2639 -0.1572  0.3665
 4312TIP3    H134571   3.643   5.201   7.707  1.1397 -1.4219 -0.3163
 4312TIP3    H234572   3.717   5.109   7.802  0.4087  0.6489  2.3792
 4313TIP3   OH234573   4.760   4.581   7.485  0.4027  0.0007 -0.1461
 4313TIP3    H134574   4.735   4.507   7.430  0.8886 -0.9077  0.8226
 4313TIP3    H234575   4.718   4.564   7.569  1.9280 -0.1137  0.6357
 4314TIP3   OH234576   6.191   5.536   7.955  0.7355  0.1628 -0.9005
 4314TIP3    H134577   6.193   5.486   7.873  0.5745  1.6805 -1.8823
 4314TIP3    H234578   6.158   5.622   7.929  1.2123  0.8542  0.6753
 4315TIP3   OH234579   0.357   5.718   8.256 -0.0992 -0.0237 -0.2059
 4315TIP3    H134580   0.379   5.628   8.279 -0.7478 -0.4340 -1.1026
 4315TIP3    H234581   0.440   5.766   8.261  0.3248 -0.7576 -0.1096
 4316TIP3   OH234582   0.456   5.278   1.228  0.1402  0.0919  0.2680
 4316TIP3    H134583   0.428   5.241   1.144  0.1507  0.8384 -0.0721
 4316TIP3    H234584   0.513   5.351   1.203  1.4834 -0.7032  0.9349
 4317TIP3   OH234585   3.250   3.341   7.230 -0.6533  0.1189  0.2307
 4317TIP3    H134586   3.252   3.429   7.267 -1.2311  1.0484 -1.8104
 4317TIP3    H234587   3.325   3.297   7.269 -1.2540  0.9807  2.4873
 4318TIP3   OH234588   1.164   2.800   6.924  0.6624 -0.6575 -0.4411
 4318TIP3    H134589   1.167   2.895   6.914  0.5854 -0.3207  2.0546
 4318TIP3    H234590   1.252   2.770   6.903  0.8361  0.0281 -0.7044
 4319TIP3   OH234591   0.711   5.754   1.328  0.2589 -0.1451 -0.5004
 4319TIP3    H134592   0.768   5.824   1.296 -0.8374  0.8444 -0.3494
 4319TIP3    H234593   0.622   5.787   1.316 -0.2596 -0.9482  0.8323
 4320TIP3   OH234594   0.896   3.566   0.272  0.0021  0.0710 -0.1933
 4320TIP3    H134595   0.935   3.519   0.345 -0.5433  0.8259  0.6086
 4320TIP3    H234596   0.909   3.659   0.293  0.2104  0.2995 -1.2664
 4321TIP3   OH234597   1.108   1.985   1.127 -0.2619  0.2380 -0.3079
 4321TIP3    H134598   1.075   1.897   1.111 -0.2359  0.3476 -0.9947
 4321TIP3    H234599   1.040   2.027   1.179 -1.7903  0.8132 -2.6088
 4322TIP3   OH234600   5.023   1.786   8.313  0.3863 -0.3932 -0.0810
 4322TIP3    H134601   5.052   1.858   8.257 -0.6140 -0.2993 -0.4897
 4322TIP3    H234602   5.100   1.766   8.367  0.3963  1.6459  0.7487
 4323TIP3   OH234603   6.446   3.198   0.281  0.1579  0.7870 -0.0491
 4323TIP3    H134604   6.469   3.290   0.269  1.6405  0.7533  2.0044
 4323TIP3    H234605   6.472   3.179   0.371 -2.8229 -0.8845  0.5915
 4324TIP3   OH234606   1.801   2.234   1.513  0.6971 -0.2233  0.2382
 4324TIP3    H134607   1.844   2.282   1.584  0.6388 -1.3337  1.0516
 4324TIP3    H234608   1.784   2.147   1.550 -0.2413 -0.5060 -0.8126
 4325TIP3   OH234609   3.334   4.925   8.638  0.6945 -0.3575 -0.3998
 4325TIP3    H134610   3.276   4.961   8.705  2.2600 -1.7839  1.8785
 4325TIP3    H234611   3.374   5.001   8.597 -1.8679  0.6212 -1.2814
 4326TIP3   OH234612   4.378   5.589   6.764 -0.0751  0.0670 -0.0278
 4326TIP3    H134613   4.337   5.642   6.695 -0.7964 -0.0698  0.2882
 4326TIP3    H234614   4.346   5.500   6.748  1.7798 -0.4600 -1.0613
 4327TIP3   OH234615   1.347   0.816   6.300  0.4548 -0.0380 -0.1527
 4327TIP3    H134616   1.428   0.766   6.312  1.9408  1.4435 -2.9931
 4327TIP3    H234617   1.369   0.904   6.330 -1.1552 -0.2391  1.8700
 4328TIP3   OH234618   5.081   2.846   1.137 -0.1371 -0.5954  0.3634
 4328TIP3    H134619   5.110   2.932   1.109 -0.8081 -0.7765 -0.9665
 4328TIP3    H234620   5.018   2.863   1.207  2.9364 -0.1934  3.2886
 4329TIP3   OH234621   6.683   0.729   7.094 -0.1054 -0.0373  0.0554
 4329TIP3    H134622   6.704   0.713   7.186  1.1892  1.6630  0.0965
 4329TIP3    H234623   6.725   0.657   7.046  1.7112  0.6231  0.5773
 4330TIP3   OH234624   4.450   0.736   0.015  0.4895  0.0371 -0.2090
 4330TIP3    H134625   4.386   0.675  -0.022  0.5602  0.4172 -0.9832
 4330TIP3    H234626   4.423   0.746   0.106  0.1720 -0.7427 -0.2059
 4331TIP3   OH234627   0.333   0.151   8.835 -0.5971 -0.3450 -0.3800
 4331TIP3    H134628   0.269   0.221   8.850  0.3654  0.5107 -0.1247
 4331TIP3    H234629   0.402   0.168   8.900 -1.7945 -3.4320  1.9739
 4332TIP3   OH234630   3.492   6.544   0.324 -0.3423  0.8324  0.3675
 4332TIP3    H134631   3.467   6.474   0.384  2.0430 -1.6922 -1.3945
 4332TIP3    H234632   3.570   6.583   0.364 -0.5971  1.3191  0.4113
 4333TIP3   OH234633   2.413   1.051   2.061  0.0967 -0.5415 -0.4984
 4333TIP3    H134634   2.488   1.048   2.001  0.2169 -1.4792 -0.3110
 4333TIP3    H234635   2.370   1.134   2.041  1.4704  0.2524 -0.2547
 4334TIP3   OH234636   3.645   2.418   8.733 -0.2200  0.1295 -0.4619
 4334TIP3    H134637   3.577   2.355   8.758 -0.0902  0.2076  0.0891
 4334TIP3    H234638   3.601   2.502   8.730  0.1541  0.4327  1.3951
 4335TIP3   OH234639   2.403   0.205   7.623 -0.2639  0.3613  0.7762
 4335TIP3    H134640   2.375   0.151   7.549  1.6145  0.1560  0.1734
 4335TIP3    H234641   2.467   0.151   7.670  0.4237  1.4362  1.1126
 4336TIP3   OH234642   4.269   5.326   8.205 -0.5667 -0.1438  0.1503
 4336TIP3    H134643   4.217   5.258   8.249  0.1518 -0.9808 -0.2693
 4336TIP3    H234644   4.352   5.283   8.185 -0.3305  0.6771 -0.6836
 4337TIP3   OH234645   4.030   1.162   1.958  0.5682 -0.2923  0.6746
 4337TIP3    H134646   4.089   1.213   2.013  3.5242 -1.8249 -0.8521
 4337TIP3    H234647   4.010   1.219   1.884  1.7558 -0.4009  0.2534
 4338TIP3   OH234648   5.804   4.401   8.889  0.0138 -0.2396 -0.1748
 4338TIP3    H134649   5.855   4.320   8.901 -0.5739 -0.7204 -0.8059
 4338TIP3    H234650   5.713   4.372   8.887 -0.3475  0.6936  1.5634
 4339TIP3   OH234651   5.916   3.777   1.426 -0.3283  0.6546  0.0511
 4339TIP3    H134652   5.870   3.851   1.464 -1.5778 -0.0411 -0.0434
 4339TIP3    H234653   5.992   3.815   1.382 -0.2076  1.7155  1.1557
 4340TIP3   OH234654   4.686   5.491   6.298 -0.0772  0.1288  0.1079
 4340TIP3    H134655   4.730   5.524   6.221 -0.1740 -0.1676 -0.0749
 4340TIP3    H234656   4.743   5.423   6.333 -0.2765 -0.0948  0.0028
 4341TIP3   OH234657   6.094   0.205   2.105 -0.2801  0.1268 -0.3280
 4341TIP3    H134658   6.095   0.132   2.167  0.3548  1.3434  1.1389
 4341TIP3    H234659   6.157   0.267   2.140  0.6721  0.5391 -2.6216
 4342TIP3   OH234660   3.713   1.991   6.820 -0.4460 -0.5976  0.2890
 4342TIP3    H134661   3.728   1.933   6.894  0.7059 -0.3343  0.2966
 4342TIP3    H234662   3.763   1.952   6.748 -0.4876 -0.1685  0.0207
 4343TIP3   OH234663   5.650   1.299   6.688 -0.2899  0.3590 -0.3669
 4343TIP3    H134664   5.655   1.228   6.752  1.0512  1.5269  0.8807
 4343TIP3    H234665   5.673   1.378   6.737  1.1291  1.2573 -2.3207
 4344TIP3   OH234666   1.759   5.866   7.240 -0.5257  0.1178 -0.6907
 4344TIP3    H134667   1.804   5.950   7.239  2.0535 -1.1427  0.5654
 4344TIP3    H234668   1.784   5.824   7.158 -1.0035  0.1765 -0.8686
 4345TIP3   OH234669   3.530   4.914   1.930 -0.2469  0.0348 -0.0650
 4345TIP3    H134670   3.495   4.963   2.005  0.9815  0.0948  0.4825
 4345TIP3    H234671   3.583   4.845   1.969 -2.0957 -1.9116 -0.8159
 4346TIP3   OH234672   5.681   0.056   8.181 -0.0742 -0.1777  0.3024
 4346TIP3    H134673   5.620  -0.016   8.168  1.6826 -1.6435 -0.3390
 4346TIP3    H234674   5.628   0.135   8.172 -1.5575 -1.3406 -2.0817
 4347TIP3   OH234675   4.065   4.372   7.583  0.2279  0.4620  0.7920
 4347TIP3    H134676   4.057   4.276   7.587  1.2831  0.3805  1.3754
 4347TIP3    H234677   3.980   4.404   7.613 -0.3192 -0.2843  0.1008
 4348TIP3   OH234678   5.709   6.152   0.029  0.3221  0.2846  0.3147
 4348TIP3    H134679   5.697   6.197   0.113 -1.2037  1.0972 -0.2922
 4348TIP3    H234680   5.621   6.123   0.005  0.9177 -0.9707 -0.4609
 4349TIP3   OH234681   4.362   2.038   1.251  0.6267  0.0863  0.3395
 4349TIP3    H134682   4.333   2.113   1.200 -0.2790 -0.8777 -0.5953
 4349TIP3    H234683   4.447   2.065   1.288 -0.0769  1.8660  0.7347
 4350TIP3   OH234684   0.915   1.610   2.405 -0.1621 -0.1754 -0.6371
 4350TIP3    H134685   0.907   1.640   2.496  2.9610  0.3141 -0.4007
 4350TIP3    H234686   0.940   1.518   2.412  0.8753  0.0690 -0.9175
 4351TIP3   OH234687   5.437   5.218   7.185 -0.1211 -0.1812  0.4619
 4351TIP3    H134688   5.371   5.204   7.117 -0.6686  0.8247  0.7683
 4351TIP3    H234689   5.501   5.276   7.144  2.0680 -3.1987 -0.7577
 4352TIP3   OH234690   1.139   4.238   0.347  0.3625  0.2728 -0.3441
 4352TIP3    H134691   1.056   4.211   0.307 -0.4880  1.2478  0.6947
 4352TIP3    H234692   1.144   4.187   0.427  1.0717 -0.2130 -0.6910
 4353TIP3   OH234693   2.136   4.576   8.391  0.4046 -0.2041  0.7198
 4353TIP3    H134694   2.148   4.521   8.314 -1.2678  0.2237  0.1168
 4353TIP3    H234695   2.154   4.519   8.465  2.0951 -0.6138  0.0515
 4354TIP3   OH234696   0.903   4.129   8.335 -0.3701  0.0173  0.2187
 4354TIP3    H134697   0.866   4.044   8.314 -1.8985  0.6373  0.2403
 4354TIP3    H234698   0.913   4.129   8.431 -0.8611  0.0471  0.2712
 4355TIP3   OH234699   0.618   5.630   7.502 -0.2351  0.3046 -0.1424
 4355TIP3    H134700   0.654   5.687   7.433 -2.4225 -1.7033 -3.2376
 4355TIP3    H234701   0.674   5.553   7.500  0.0193  0.4630  0.7679
 4356TIP3   OH234702   5.440   4.002   8.129 -0.3957  0.0341 -0.4851
 4356TIP3    H134703   5.418   4.043   8.213  0.2228 -0.2275 -0.1893
 4356TIP3    H234704   5.512   4.055   8.095 -1.5287  0.9876 -1.5262
 4357TIP3   OH234705   4.741   1.458   0.195  0.2911  1.0809 -0.8630
 4357TIP3    H134706   4.705   1.530   0.246 -0.5763  0.3184 -0.3599
 4357TIP3    H234707   4.663   1.414   0.159  0.7878  0.2145 -0.8941
 4358TIP3   OH234708   6.221   3.850   0.589 -0.4222 -0.2604  0.2359
 4358TIP3    H134709   6.163   3.856   0.514 -0.4794 -3.8891 -0.1548
 4358TIP3    H234710   6.296   3.798   0.559  0.0672 -0.9199  2.3704
 4359TIP3   OH234711   0.919   5.617   7.409 -0.2456  0.3047  0.1895
 4359TIP3    H134712   1.001   5.594   7.366 -0.1896 -0.9141  0.8985
 4359TIP3    H234713   0.886   5.691   7.359  0.4742 -0.2120 -1.1105
 4360TIP3   OH234714   2.168   1.676   8.470 -0.0774  0.4204  0.2152
 4360TIP3    H134715   2.131   1.756   8.507  1.1265  1.3346 -0.4714
 4360TIP3    H234716   2.157   1.610   8.539  0.4824  1.6206  1.5015
 4361TIP3   OH234717   6.432   5.281   0.794 -0.1220 -0.3825  0.2011
 4361TIP3    H134718   6.358   5.259   0.851  0.7329 -0.1780  1.4290
 4361TIP3    H234719   6.462   5.366   0.827 -0.3569  0.3564 -1.3617
 4362TIP3   OH234720   3.291   2.749   1.100 -0.2269 -0.4295  0.2037
 4362TIP3    H134721   3.278   2.818   1.165 -1.2278 -1.0504  0.7078
 4362TIP3    H234722   3.357   2.692   1.139 -0.0334 -0.2164  0.1857
 4363TIP3   OH234723   2.556   0.685   8.494  0.1513 -0.1497  0.0694
 4363TIP3    H134724   2.576   0.762   8.547 -0.8027  1.1109 -1.2761
 4363TIP3    H234725   2.516   0.623   8.555  0.1885  0.7546  1.0415
 4364TIP3   OH234726   4.269   0.902   7.516 -0.0241 -0.3750 -0.7510
 4364TIP3    H134727   4.264   0.953   7.436  0.2203 -1.8636 -1.7680
 4364TIP3    H234728   4.178   0.882   7.538 -0.1482  0.8035 -0.1041
 4365TIP3   OH234729   1.270   0.592   7.062  0.0079 -0.0006 -0.0403
 4365TIP3    H134730   1.348   0.559   7.106  0.3709 -0.2853 -0.8738
 4365TIP3    H234731   1.221   0.638   7.130  0.8013  0.0027  0.5355
 4366TIP3   OH234732   5.098   3.635   8.322 -0.3880  0.4222  0.4555
 4366TIP3    H134733   5.190   3.640   8.298 -0.6523  1.7948 -0.4213
 4366TIP3    H234734   5.098   3.608   8.414  0.7844 -1.6766 -0.1142
 4367TIP3   OH234735   3.102   3.038   8.083 -0.3470 -0.1940  0.2124
 4367TIP3    H134736   3.091   3.133   8.076 -0.0894 -0.1166  0.8216
 4367TIP3    H234737   3.160   3.026   8.159 -1.4360 -0.8989  0.9537
 4368TIP3   OH234738   3.126   3.589   8.822  0.4746  0.2725 -0.0640
 4368TIP3    H134739   3.162   3.575   8.734  0.1555 -0.7885 -0.0396
 4368TIP3    H234740   3.074   3.510   8.839  0.1972  0.6574  0.9135
 4369TIP3   OH234741   6.650   4.696   7.979 -0.3848 -0.6552 -0.1600
 4369TIP3    H134742   6.657   4.712   8.073  2.3264  1.6704 -0.6351
 4369TIP3    H234743   6.679   4.606   7.967 -0.7516 -0.9750  1.2175
 4370TIP3   OH234744   6.558   2.073   1.404 -0.0806  0.4389 -0.1727
 4370TIP3    H134745   6.485   2.036   1.354 -0.8283 -0.8644  1.7701
 4370TIP3    H234746   6.625   2.091   1.338 -0.4763 -2.4769 -1.5379
 4371TIP3   OH234747   6.259   5.411   7.700  0.4875 -0.3104  0.1429
 4371TIP3    H134748   6.344   5.374   7.725 -0.1530 -1.5175  0.6132
 4371TIP3    H234749   6.227   5.354   7.631 -0.2022 -0.2018  0.3664
 4372TIP3   OH234750   3.274   2.723   8.011 -0.1961 -0.3265  0.9457
 4372TIP3    H134751   3.234   2.640   8.035  3.6886 -2.9822 -0.7828
 4372TIP3    H234752   3.355   2.727   8.062  1.6301  0.3614 -1.7842
 4373TIP3   OH234753   2.244   1.416   7.524 -0.5602 -0.4303  0.0969
 4373TIP3    H134754   2.325   1.437   7.477 -0.7571  0.5843  0.1708
 4373TIP3    H234755   2.257   1.327   7.557  0.1274 -0.6427 -0.7152
 4374TIP3   OH234756   0.874   0.579   8.129 -0.1744 -0.0936 -0.0477
 4374TIP3    H134757   0.959   0.554   8.164  0.4115  1.0344 -0.5959
 4374TIP3    H234758   0.812   0.561   8.199  0.4098 -1.5490  0.1240
 4375TIP3   OH234759   2.302   4.028   1.612  0.1802 -0.0127 -0.7163
 4375TIP3    H134760   2.293   4.056   1.520  0.2594 -1.8483 -1.3235
 4375TIP3    H234761   2.289   3.933   1.609  2.1959 -0.3991  0.9007
 4376TIP3   OH234762   2.654   2.501   8.815  0.1421 -0.2389  0.0384
 4376TIP3    H134763   2.562   2.478   8.801 -0.2574  0.4329  1.3266
 4376TIP3    H234764   2.703   2.436   8.765 -1.0462  0.7365 -2.5281
 4377TIP3   OH234765   6.427   5.671   0.160 -0.2355  0.8781 -0.0948
 4377TIP3    H134766   6.420   5.759   0.198 -0.9719  1.2833 -1.1085
 4377TIP3    H234767   6.430   5.687   0.065  1.8242 -0.0755 -0.2212
 4378TIP3   OH234768   3.145   4.940   0.728 -0.2462 -0.2512 -0.3717
 4378TIP3    H134769   3.140   5.023   0.776  0.3631 -1.4058  1.8575
 4378TIP3    H234770   3.235   4.912   0.738 -0.5011 -1.3084 -0.8768
 4379TIP3   OH234771   6.544   1.676   0.679 -0.0569  0.3036  0.2017
 4379TIP3    H134772   6.629   1.705   0.646  1.4039 -2.4221  1.2936
 4379TIP3    H234773   6.525   1.595   0.631  0.2236 -1.5815  3.0101
 4380TIP3   OH234774   2.851   3.076   8.190 -0.2004 -0.0668 -0.3020
 4380TIP3    H134775   2.875   3.067   8.282  0.3855  0.3665 -0.4050
 4380TIP3    H234776   2.929   3.047   8.143 -1.0507 -1.8593 -0.6865
 4381TIP3   OH234777   2.889   5.211   0.930  0.0424  0.1951 -0.1199
 4381TIP3    H134778   2.846   5.138   0.885  1.2761 -0.4325 -0.3298
 4381TIP3    H234779   2.960   5.237   0.871 -1.1694  2.4944 -0.6993
 4382TIP3   OH234780   3.821   5.336   7.623 -0.6032 -0.3049 -0.6866
 4382TIP3    H134781   3.885   5.298   7.562 -1.1667 -1.7676 -0.4151
 4382TIP3    H234782   3.873   5.358   7.701 -0.2928 -0.8130 -0.7383
 4383TIP3   OH234783   0.702   6.150   0.823 -0.1545  0.2388  0.0141
 4383TIP3    H134784   0.619   6.105   0.807  0.0116 -0.3643  0.7639
 4383TIP3    H234785   0.691   6.236   0.784 -0.0414 -0.8395 -2.6165
 4384TIP3   OH234786   5.786   0.899   0.946 -0.0418  0.5398  0.2822
 4384TIP3    H134787   5.787   0.825   0.884 -0.4110  1.2985 -0.6494
 4384TIP3    H234788   5.828   0.864   1.025 -0.6680 -0.8210  0.0410
 4385TIP3   OH234789   5.979   2.646   1.396  0.1968  0.0420 -0.2087
 4385TIP3    H134790   5.896   2.692   1.389 -1.0496 -2.1910 -1.0271
 4385TIP3    H234791   6.039   2.710   1.435 -1.3696  2.3455 -1.3420
 4386TIP3   OH234792   3.996   3.811   1.207 -0.2665  1.0916  0.7759
 4386TIP3    H134793   3.944   3.817   1.127  0.5427 -0.2279  0.1090
 4386TIP3    H234794   3.943   3.855   1.274 -0.8535  2.4013 -0.5187
 4387TIP3   OH234795   0.208   6.152   0.363  0.0397  0.2124 -0.1066
 4387TIP3    H134796   0.258   6.207   0.423 -2.4478 -1.3735  3.8427
 4387TIP3    H234797   0.135   6.207   0.335  0.9370  0.8003 -1.3621
 4388TIP3   OH234798   4.636   4.471   6.819 -0.6899 -0.2179 -0.2441
 4388TIP3    H134799   4.618   4.531   6.891  1.5612  0.1552  0.0842
 4388TIP3    H234800   4.611   4.518   6.740  0.3564  0.9082  0.0659
 4389TIP3   OH234801   5.254   0.927   7.870  0.0884 -0.6890  0.2711
 4389TIP3    H134802   5.305   0.929   7.951  2.0856 -0.3699 -0.9220
 4389TIP3    H234803   5.202   0.847   7.876  1.5995 -1.6496  1.0625
 4390TIP3   OH234804   5.859   5.083   6.937 -0.0181 -0.2600  0.1150
 4390TIP3    H134805   5.834   5.009   6.883 -1.2039  1.1343 -1.3439
 4390TIP3    H234806   5.925   5.048   6.997 -1.1505 -2.6566  0.0541
 4391TIP3   OH234807   3.526   2.193   8.823  0.4051 -0.3706 -0.2994
 4391TIP3    H134808   3.497   2.126   8.885 -1.2664 -0.9131 -1.5847
 4391TIP3    H234809   3.591   2.147   8.768  1.5946  0.0009  0.7470
 4392TIP3   OH234810   0.189   0.123   7.126 -0.3181  0.2451 -0.0870
 4392TIP3    H134811   0.174   0.217   7.137  1.5799  0.6269 -0.3779
 4392TIP3    H234812   0.124   0.095   7.061 -0.4414  1.5081 -0.5261
 4393TIP3   OH234813   3.156   3.936   1.610 -0.4973  0.0177 -0.5026
 4393TIP3    H134814   3.243   3.947   1.571 -0.6719 -0.2246 -0.9585
 4393TIP3    H234815   3.098   3.989   1.555 -0.3913  1.5082  0.7446
 4394TIP3   OH234816   0.479   1.163   8.577 -1.0031  0.3052  0.7004
 4394TIP3    H134817   0.571   1.167   8.549 -1.1804  0.8364  0.1747
 4394TIP3    H234818   0.430   1.194   8.501 -1.7485 -1.5290  0.3871
 4395TIP3   OH234819   2.313   2.283   7.816 -0.2846 -0.2904 -0.4113
 4395TIP3    H134820   2.390   2.225   7.816 -1.7468 -2.3410 -0.7120
 4395TIP3    H234821   2.343   2.361   7.863  2.1266 -0.7736 -0.9738
 4396TIP3   OH234822   1.731   6.262   2.237  0.9103 -0.3344  0.1288
 4396TIP3    H134823   1.736   6.326   2.166  1.4641 -1.2517 -0.6768
 4396TIP3    H234824   1.639   6.233   2.236  0.1424  1.7298  1.7053
 4397TIP3   OH234825   2.168   6.143   8.078  0.0741 -0.1786 -0.7179
 4397TIP3    H134826   2.129   6.228   8.099 -0.0179 -0.4592  0.2853
 4397TIP3    H234827   2.094   6.083   8.073  0.2165 -0.3686 -0.5495
 4398TIP3   OH234828   4.232   6.196   8.210 -0.3012  0.6309  0.0612
 4398TIP3    H134829   4.147   6.222   8.245 -0.9106 -2.2096  0.9855
 4398TIP3    H234830   4.292   6.205   8.284 -0.5008 -0.4648  0.3640
 4399TIP3   OH234831   5.395   2.790   6.780  0.2544  0.1581  0.1552
 4399TIP3    H134832   5.372   2.703   6.748  1.9993 -0.1809 -0.2989
 4399TIP3    H234833   5.354   2.850   6.717  1.3550 -0.4387 -1.1873
 4400TIP3   OH234834   5.650   1.088   0.260 -0.2095 -0.2525 -0.0320
 4400TIP3    H134835   5.722   1.062   0.317 -0.6936 -0.8245  0.3329
 4400TIP3    H234836   5.679   1.170   0.220  1.0937 -1.0536 -0.7499
 4401TIP3   OH234837   4.853   1.242   0.057  0.2491 -0.5438 -0.1439
 4401TIP3    H134838   4.859   1.156   0.099  2.3522 -0.9183 -1.1103
 4401TIP3    H234839   4.855   1.305   0.130  1.0203 -1.2457  0.4533
 4402TIP3   OH234840   2.400   5.244   7.519 -0.2683 -0.1472  0.7276
 4402TIP3    H134841   2.391   5.169   7.460 -1.6799 -0.0352  0.7687
 4402TIP3    H234842   2.368   5.212   7.604 -0.7973  0.4589  0.7666
 4403TIP3   OH234843   1.713   5.796   8.607 -0.4732  0.5923  0.2394
 4403TIP3    H134844   1.618   5.802   8.597 -0.3554  0.8570 -0.8730
 4403TIP3    H234845   1.730   5.827   8.696 -1.3648  1.2941  0.1827
 4404TIP3   OH234846   0.771   3.278   7.060  0.0629 -0.3767 -0.1892
 4404TIP3    H134847   0.738   3.343   6.997 -0.9816  1.2195  1.8765
 4404TIP3    H234848   0.863   3.266   7.035 -0.2636  0.2956 -1.8974
 4405TIP3   OH234849   3.768   4.819   2.204 -0.0182  0.5712 -0.9688
 4405TIP3    H134850   3.788   4.771   2.124 -0.7681 -0.4537 -0.5583
 4405TIP3    H234851   3.773   4.753   2.273 -0.0748  1.2976 -0.2531
 4406TIP3   OH234852   6.167   3.136   0.180 -0.3788  0.4639 -0.0144
 4406TIP3    H134853   6.205   3.048   0.186 -1.2723  0.1778  3.3420
 4406TIP3    H234854   6.231   3.193   0.221  0.2745  1.5251 -2.3285
 4407TIP3   OH234855   6.087   5.637   0.023 -0.3062  0.7234  0.5155
 4407TIP3    H134856   6.032   5.698  -0.025 -2.5049  0.5131  2.5851
 4407TIP3    H234857   6.113   5.684   0.102  0.6896  0.0707  0.5942
 4408TIP3   OH234858   2.063   4.154   0.713 -0.3357 -0.1206  0.3158
 4408TIP3    H134859   1.996   4.185   0.652  0.8186  0.7651 -0.5413
 4408TIP3    H234860   2.092   4.071   0.675  1.7899  1.3512 -1.5605
 4409TIP3   OH234861   5.657   4.052   7.204  0.1264  0.3136 -0.1434
 4409TIP3    H134862   5.615   4.045   7.118  1.3166 -2.4079 -0.5814
 4409TIP3    H234863   5.741   4.094   7.186  0.2638 -0.0129 -0.2576
 4410TIP3   OH234864   2.077   3.789   8.632  0.7353 -0.0856 -0.5417
 4410TIP3    H134865   2.140   3.860   8.616 -0.3880  1.2519  0.6192
 4410TIP3    H234866   1.992   3.829   8.611  0.2339 -1.8999 -2.2626
 4411TIP3   OH234867   6.389   3.166   7.165 -0.4890 -0.3606 -0.2293
 4411TIP3    H134868   6.307   3.123   7.190  0.2917 -2.1145 -0.5594
 4411TIP3    H234869   6.455   3.097   7.170  0.7651  0.7319 -1.0965
 4412TIP3   OH234870   0.920   3.911   1.768  0.7945  0.0289  0.6495
 4412TIP3    H134871   0.999   3.931   1.819  0.5828  0.3882  0.8447
 4412TIP3    H234872   0.897   3.994   1.726  0.0944  0.1227  1.2008
 4413TIP3   OH234873   5.664   0.913   8.626  0.0146  0.6073 -0.2345
 4413TIP3    H134874   5.725   0.867   8.569  0.2130  0.1008  0.3733
 4413TIP3    H234875   5.716   0.983   8.666  0.5219 -0.5011  1.1326
 4414TIP3   OH234876   5.429   3.075   6.372  0.3703  0.9259  0.4412
 4414TIP3    H134877   5.508   3.112   6.331  0.4574 -0.1689 -0.4212
 4414TIP3    H234878   5.408   2.999   6.318 -0.9025  0.8227  1.0612
 4415TIP3   OH234879   4.151   1.719   7.763  0.4604  0.2542  0.1199
 4415TIP3    H134880   4.062   1.684   7.760  0.1245  1.0980 -0.0848
 4415TIP3    H234881   4.182   1.697   7.850 -0.4679  1.1717  0.7059
 4416TIP3   OH234882   6.392   1.707   0.904 -1.0433  0.5871  0.1128
 4416TIP3    H134883   6.432   1.712   0.817 -1.0791  1.1088  0.1248
 4416TIP3    H234884   6.347   1.791   0.915  0.0796  1.0660  1.1847
 4417TIP3   OH234885   4.665   4.825   7.424  0.8465  0.5501  0.1558
 4417TIP3    H134886   4.704   4.738   7.434 -0.1101 -0.0661 -1.0715
 4417TIP3    H234887   4.723   4.870   7.363 -0.6432 -0.6432 -2.3002
 4418TIP3   OH234888   4.505   0.527   2.109 -0.2672  0.3783  0.3397
 4418TIP3    H134889   4.416   0.490   2.110  0.3454 -1.1671  0.6652
 4418TIP3    H234890   4.540   0.507   2.196  0.7043  0.1393 -0.0886
 4419TIP3   OH234891   1.287   5.811   0.129  0.3327  0.1484  0.2550
 4419TIP3    H134892   1.327   5.752   0.064 -1.4390 -0.7847 -0.0312
 4419TIP3    H234893   1.206   5.841   0.088  0.3726  1.5085  1.0816
 4420TIP3   OH234894   5.560   0.924   8.323 -0.6171  0.0513  0.2595
 4420TIP3    H134895   5.644   0.961   8.297  0.1779 -1.7842  0.0603
 4420TIP3    H234896   5.581   0.862   8.393 -2.0147  0.6499  1.2567
 4421TIP3   OH234897   0.643   1.843   8.302  0.7965 -0.4269  0.4933
 4421TIP3    H134898   0.615   1.878   8.387  0.8770 -0.1633  0.4121
 4421TIP3    H234899   0.730   1.881   8.289 -0.7165  2.8063 -1.5417
 4422TIP3   OH234900   1.331   2.491   8.784 -0.0206  0.5116 -0.0774
 4422TIP3    H134901   1.317   2.501   8.878  0.9769 -0.9496  0.2518
 4422TIP3    H234902   1.243   2.482   8.748 -0.3770  0.4368  0.7953
 4423TIP3   OH234903   4.464   2.470   8.519  0.3792 -0.7116  0.1367
 4423TIP3    H134904   4.558   2.461   8.502  0.6941  0.1273  1.3040
 4423TIP3    H234905   4.459   2.510   8.606 -1.0727 -1.0718  0.2443
 4424TIP3   OH234906   0.007   1.424   8.371  0.6978 -0.0940  0.1122
 4424TIP3    H134907  -0.048   1.470   8.435 -0.6414 -1.7167  0.1973
 4424TIP3    H234908  -0.031   1.446   8.286  0.0176 -1.0107  0.1564
 4425TIP3   OH234909   4.022   0.874   2.708 -0.4007  0.0589  0.1766
 4425TIP3    H134910   4.090   0.865   2.775 -0.3809 -0.0758  0.1398
 4425TIP3    H234911   4.060   0.934   2.644  0.2977 -1.1555 -0.5946
 4426TIP3   OH234912   2.695   3.162   8.531 -0.0209 -0.0935 -0.2222
 4426TIP3    H134913   2.785   3.131   8.525 -0.0088  0.0911 -1.0401
 4426TIP3    H234914   2.688   3.197   8.620  1.4626  2.1689 -0.9061
 4427TIP3   OH234915   3.980   0.985   0.954 -0.3347  0.2844  0.1438
 4427TIP3    H134916   3.913   1.041   0.993 -1.6277 -0.4653 -0.9221
 4427TIP3    H234917   3.943   0.897   0.960  0.5309 -0.1399 -0.5255
 4428TIP3   OH234918   4.526   0.421   8.867 -0.2826 -0.2111 -0.2004
 4428TIP3    H134919   4.570   0.408   8.952  1.5949  1.0220 -0.9102
 4428TIP3    H234920   4.558   0.506   8.837 -0.7467 -0.7132 -2.2317
 4429TIP3   OH234921   4.855   0.430   1.451  0.7801 -0.0142 -0.5503
 4429TIP3    H134922   4.800   0.352   1.448  1.4418 -0.6616  1.9580
 4429TIP3    H234923   4.821   0.480   1.525  3.2842 -0.2934  0.8891
 4430TIP3   OH234924   0.040   0.779   0.663 -0.0637 -1.1616 -0.1091
 4430TIP3    H134925  -0.042   0.738   0.635 -0.1382 -0.9477 -0.2072
 4430TIP3    H234926   0.029   0.792   0.757 -0.3289 -0.7166 -0.1990
 4431TIP3   OH234927   1.341   0.443   2.444 -0.5144  0.1783  0.0518
 4431TIP3    H134928   1.402   0.369   2.453  0.2279  0.4949 -1.8945
 4431TIP3    H234929   1.386   0.517   2.484 -0.4105  0.0267  0.2185
 4432TIP3   OH234930   0.338   4.510   8.106 -0.3963  0.0767  0.0535
 4432TIP3    H134931   0.374   4.431   8.064  0.0604  0.1524  0.3013
 4432TIP3    H234932   0.412   4.570   8.113 -0.0616 -0.5114  2.3635
 4433TIP3   OH234933   1.708   4.276   8.871  0.4863 -0.0048 -0.2208
 4433TIP3    H134934   1.654   4.242   8.942 -0.3086 -0.1296 -0.8727
 4433TIP3    H234935   1.764   4.203   8.845 -1.1187 -0.8117 -1.5287
 4434TIP3   OH234936   5.102   2.695   2.286  0.0598 -0.1931  0.1717
 4434TIP3    H134937   5.187   2.674   2.324  0.5153  0.0510 -0.7099
 4434TIP3    H234938   5.066   2.610   2.259  0.0499 -0.2877  0.4834
 4435TIP3   OH234939   5.289   6.685   1.804 -0.2628  0.2703  0.5208
 4435TIP3    H134940   5.344   6.764   1.804  0.2242 -0.0264 -0.9920
 4435TIP3    H234941   5.201   6.718   1.786  0.2598  0.3827 -2.4219
 4436TIP3   OH234942   0.775   4.066   7.791 -0.5032 -0.0870 -0.1128
 4436TIP3    H134943   0.783   3.971   7.787 -1.2228 -0.1579 -0.0275
 4436TIP3    H234944   0.805   4.088   7.879 -1.4444 -0.3664  0.2928
 4437TIP3   OH234945   0.990   6.202   1.510  0.2390 -0.0357 -0.5483
 4437TIP3    H134946   1.079   6.237   1.509  0.8478 -1.4821 -0.2046
 4437TIP3    H234947   0.942   6.256   1.447  2.0123 -0.8190 -2.7172
 4438TIP3   OH234948   5.866   0.712   7.410 -0.4180 -0.1277  0.5791
 4438TIP3    H134949   5.820   0.791   7.439  0.8709  0.4435  1.1296
 4438TIP3    H234950   5.815   0.681   7.335 -1.7095  0.4562  1.1882
 4439TIP3   OH234951   1.715   1.700   6.863 -0.5797  0.4536  0.9209
 4439TIP3    H134952   1.766   1.778   6.841  0.8043 -0.6691 -0.0627
 4439TIP3    H234953   1.671   1.676   6.781 -0.5870 -0.0731  1.0738
 4440TIP3   OH234954   6.431   4.378   2.040  0.4802  0.0239 -0.0112
 4440TIP3    H134955   6.516   4.387   2.082  1.4418  4.1302 -2.2942
 4440TIP3    H234956   6.442   4.305   1.979  1.7112 -0.7192  1.0510
 4441TIP3   OH234957   3.922   1.536   7.823  0.3790  0.4028 -0.8300
 4441TIP3    H134958   3.913   1.484   7.903  0.4789  1.1873 -0.3034
 4441TIP3    H234959   3.920   1.471   7.752  2.9966 -0.6360 -0.0946
 4442TIP3   OH234960   0.946   3.069   8.956 -0.0784  0.4124  0.0181
 4442TIP3    H134961   1.014   3.117   9.004 -1.1597 -0.0007  2.0945
 4442TIP3    H234962   0.983   3.055   8.869  2.2091  0.7916  0.8556
 4443TIP3   OH234963   4.081   1.522   6.645  0.1724  0.2500  0.6668
 4443TIP3    H134964   4.133   1.569   6.710  1.1785 -1.5419  1.2346
 4443TIP3    H234965   3.991   1.550   6.660  0.1054 -1.3680  4.0468
 4444TIP3   OH234966   5.999   3.142   6.644 -0.0812 -0.2902 -0.6255
 4444TIP3    H134967   6.012   3.051   6.672  1.1620 -0.1457 -0.6588
 4444TIP3    H234968   5.957   3.184   6.719  1.7340 -0.2965  0.4685
 4445TIP3   OH234969   4.633   2.782   0.506  0.2907  0.3580 -0.3115
 4445TIP3    H134970   4.686   2.740   0.574  1.1889  3.1010  0.8547
 4445TIP3    H234971   4.543   2.755   0.525  0.8017 -0.9797  0.3338
 4446TIP3   OH234972   2.951   3.675   7.894 -0.3523 -0.0535 -0.0898
 4446TIP3    H134973   3.013   3.746   7.877  0.7946 -0.7828  0.8802
 4446TIP3    H234974   3.000   3.596   7.873 -1.9383 -0.5629 -2.1120
 4447TIP3   OH234975   0.960   5.113   1.843 -0.2686  0.2640  0.0395
 4447TIP3    H134976   1.012   5.072   1.912  1.1762  0.2518 -1.0048
 4447TIP3    H234977   0.941   5.200   1.876  0.3948  0.2527  0.4737
 4448TIP3   OH234978   5.882   5.584   7.235  0.5412  0.2208 -0.1828
 4448TIP3    H134979   5.916   5.611   7.150 -0.1987 -1.2607 -0.9986
 4448TIP3    H234980   5.820   5.652   7.259  1.3857  1.0861 -0.4090
 4449TIP3   OH234981   0.442   3.063   1.616  0.4981 -0.2056  0.5040
 4449TIP3    H134982   0.460   3.029   1.528 -0.8890  0.0587  0.0977
 4449TIP3    H234983   0.352   3.096   1.611  1.1886  1.9814  1.3536
 4450TIP3   OH234984   5.012   0.715   7.388  0.3464 -0.1455  0.9471
 4450TIP3    H134985   4.954   0.714   7.464  0.5982 -1.0268  1.1421
 4450TIP3    H234986   5.097   0.740   7.424  0.6101 -1.1816  1.0824
 4451TIP3   OH234987   0.988   1.358   2.410  0.2944  0.2514 -0.5891
 4451TIP3    H134988   1.070   1.322   2.375 -0.8085 -0.7762 -2.2689
 4451TIP3    H234989   0.981   1.321   2.498  1.7819  0.6392 -0.2852
 4452TIP3   OH234990   0.014   3.657   1.097 -0.0784  0.1789  0.6314
 4452TIP3    H134991  -0.036   3.622   1.023  0.7056  1.1629 -0.4028
 4452TIP3    H234992   0.075   3.588   1.121  0.3791  0.2260 -0.3492
 4453TIP3   OH234993   3.654   2.757   1.529 -0.2384 -0.3603  0.4648
 4453TIP3    H134994   3.738   2.712   1.539 -0.5770 -1.5338 -1.4888
 4453TIP3    H234995   3.633   2.787   1.618  1.6497 -1.0724  1.2211
 4454TIP3   OH234996   6.695   6.564   8.119  0.1259 -0.1848 -0.0816
 4454TIP3    H134997   6.644   6.646   8.116 -0.1768 -0.3613 -2.5863
 4454TIP3    H234998   6.642   6.502   8.068  2.4905 -0.5583 -2.2916
 4455TIP3   OH234999   5.593   4.729   2.508 -0.2762  0.3798  0.3998
 4455TIP3    H135000   5.526   4.696   2.568 -0.8498 -0.4618 -0.6819
 4455TIP3    H235001   5.656   4.658   2.502  0.3500  0.8817  0.8245
 4456TIP3   OH235002   4.590   3.781   6.464 -0.2060 -0.5186 -0.1208
 4456TIP3    H135003   4.506   3.735   6.460  0.2379 -1.4352  0.6280
 4456TIP3    H235004   4.653   3.717   6.431  0.7205 -1.2553  2.7865
 4457TIP3   OH235005   1.585   6.375   0.633 -0.3573 -0.2465 -0.4208
 4457TIP3    H135006   1.648   6.314   0.670  0.8236  1.5609  0.7309
 4457TIP3    H235007   1.587   6.357   0.539  1.0624 -0.9803 -0.2776
 4458TIP3   OH235008   1.907   3.690   1.219  0.0623  0.4137  0.4392
 4458TIP3    H135009   1.820   3.701   1.180  0.4965  0.4721 -0.5687
 4458TIP3    H235010   1.907   3.602   1.255  0.0707 -0.1678 -0.9198
 4459TIP3   OH235011   6.296   0.806   1.225 -0.4141  0.3806  0.0671
 4459TIP3    H135012   6.232   0.863   1.268 -0.5711  2.8789 -3.1543
 4459TIP3    H235013   6.243   0.741   1.179 -0.3504 -0.4416  1.1000
 4460TIP3   OH235014   4.414   1.182   1.610  0.6399 -0.1634  0.0492
 4460TIP3    H135015   4.501   1.221   1.624  0.6532 -0.0116 -0.4213
 4460TIP3    H235016   4.404   1.180   1.515  0.5740 -1.1888  0.0701
 4461TIP3   OH235017   1.932   4.508   7.846 -0.1477 -0.1746  0.0067
 4461TIP3    H135018   1.913   4.417   7.869 -0.1482  0.1177  1.2093
 4461TIP3    H235019   1.963   4.548   7.928 -0.4487  0.9869 -0.4269
 4462TIP3   OH235020   2.252   4.528   0.455  0.5861 -0.5969 -0.5873
 4462TIP3    H135021   2.214   4.508   0.540 -0.3605 -0.7098 -1.0304
 4462TIP3    H235022   2.346   4.534   0.472  0.5611 -2.0469  0.2037
 4463TIP3   OH235023   1.230   5.989   1.767  0.0694  0.3104 -0.1905
 4463TIP3    H135024   1.235   5.909   1.820 -0.2503  1.1002  1.0821
 4463TIP3    H235025   1.156   5.976   1.709 -0.8027  0.1822  0.9169
 4464TIP3   OH235026   5.895   0.773   1.429 -0.3127 -0.2301  0.5450
 4464TIP3    H135027   5.838   0.701   1.456 -0.0903 -0.0551  1.5195
 4464TIP3    H235028   5.976   0.759   1.480 -0.8683  1.6397  2.0412
 4465TIP3   OH235029   2.346   6.729   0.116 -0.2194 -0.0897  0.0081
 4465TIP3    H135030   2.346   6.693   0.205  0.4458 -1.8752 -0.6863
 4465TIP3    H235031   2.363   6.655   0.059  0.4490  1.1999 -1.5602
 4466TIP3   OH235032   2.695   6.403   8.876  0.3543  0.2205 -0.2923
 4466TIP3    H135033   2.764   6.359   8.926 -0.0087 -0.5609 -0.4692
 4466TIP3    H235034   2.743   6.457   8.813  0.8079  0.2414  0.0613
 4467TIP3   OH235035   0.712   4.552   7.286  0.5775  0.3429 -0.1181
 4467TIP3    H135036   0.757   4.498   7.351  1.3736 -0.9175 -1.6441
 4467TIP3    H235037   0.623   4.561   7.320  0.7171 -1.0748  0.7046
 4468TIP3   OH235038   2.320   4.157   7.355  0.0806  0.3537  0.1787
 4468TIP3    H135039   2.224   4.158   7.349 -0.0082 -0.0456  1.3115
 4468TIP3    H235040   2.340   4.208   7.434  1.0036  3.2092 -1.7293
 4469TIP3   OH235041   4.074   0.241   7.099 -0.4164 -0.2214  0.7182
 4469TIP3    H135042   3.994   0.280   7.063 -0.4442 -0.5807  0.3853
 4469TIP3    H235043   4.081   0.278   7.187  0.0299  1.2169  0.1082
 4470TIP3   OH235044   6.433   1.096   2.489 -0.2809  0.1580  0.9339
 4470TIP3    H135045   6.517   1.121   2.527  0.2549  0.8307 -0.5902
 4470TIP3    H235046   6.427   1.002   2.505  0.0909  0.3387  2.2731
 4471TIP3   OH235047   0.179   5.998   7.189 -0.1962  0.1124  0.0106
 4471TIP3    H135048   0.098   6.045   7.173  0.3715  1.4314  0.8823
 4471TIP3    H235049   0.241   6.034   7.126  0.0523  0.0101  0.1963
 4472TIP3   OH235050   5.139   6.484   0.522 -0.5067  0.3250  0.2697
 4472TIP3    H135051   5.146   6.432   0.602 -0.0554 -0.7476 -0.4537
 4472TIP3    H235052   5.087   6.430   0.463 -0.5599  0.9712 -0.2834
 4473TIP3   OH235053   4.972   1.894   2.211  0.2774 -0.0364  0.7166
 4473TIP3    H135054   5.018   1.848   2.141  0.6812 -0.4234  1.2339
 4473TIP3    H235055   4.957   1.828   2.278 -1.3469 -0.0198  0.4275
 4474TIP3   OH235056   1.481   6.481   7.816  0.2233  0.2750  0.4974
 4474TIP3    H135057   1.397   6.496   7.773  0.2160 -0.1432  0.3622
 4474TIP3    H235058   1.522   6.568   7.821 -0.4078  0.5469  0.9667
 4475TIP3   OH235059   1.837   2.553   0.363  0.1512  0.3183 -0.4586
 4475TIP3    H135060   1.834   2.636   0.316  0.8612  0.3445 -0.4705
 4475TIP3    H235061   1.854   2.576   0.454  0.9672  0.1690 -0.5625
 4476TIP3   OH235062   2.612   1.523   0.408 -0.2120 -0.1331 -0.2050
 4476TIP3    H135063   2.593   1.608   0.369 -2.0146  0.4835  1.7775
 4476TIP3    H235064   2.653   1.544   0.492  1.5575 -1.3215 -0.7303
 4477TIP3   OH235065   4.264   5.271   0.562  0.2898  0.5316 -0.0541
 4477TIP3    H135066   4.304   5.325   0.630 -1.7613 -0.6001  2.1850
 4477TIP3    H235067   4.194   5.325   0.526  1.4859  1.1970 -1.4774
 4478TIP3   OH235068   3.087   5.009   6.743 -0.2993 -0.0648  0.4959
 4478TIP3    H135069   3.144   5.081   6.771 -0.8859  0.3772  0.5764
 4478TIP3    H235070   3.140   4.959   6.681  0.6463 -0.4571  1.5937
 4479TIP3   OH235071   3.723   2.110   7.115 -0.6900  0.1981 -0.2163
 4479TIP3    H135072   3.715   2.103   7.020  2.5088 -5.1900 -0.5105
 4479TIP3    H235073   3.635   2.091   7.147 -1.2207 -0.9519 -2.1792
 4480TIP3   OH235074   6.357   0.800   6.638 -0.1974 -0.4355  0.5353
 4480TIP3    H135075   6.332   0.797   6.730 -0.9614  0.3394  0.3585
 4480TIP3    H235076   6.438   0.748   6.634  0.2543  0.1258  1.7697
 4481TIP3   OH235077   1.812   5.093   7.439 -0.5988 -0.3395  0.7120
 4481TIP3    H135078   1.742   5.054   7.388  1.0497 -0.3993 -1.6477
 4481TIP3    H235079   1.865   5.018   7.468  0.0915 -0.1337 -0.0027
 4482TIP3   OH235080   5.602   0.611   8.396 -0.1684  0.5544 -0.1675
 4482TIP3    H135081   5.514   0.579   8.415 -0.3353  0.5425 -0.9237
 4482TIP3    H235082   5.612   0.599   8.302  1.2522 -0.9762  0.1286
 4483TIP3   OH235083   3.323   0.249   2.423  0.0342 -0.1232  0.6748
 4483TIP3    H135084   3.400   0.192   2.420 -0.0127 -0.2227  1.2458
 4483TIP3    H235085   3.359   0.338   2.421  0.3343 -0.1084  3.0758
 4484TIP3   OH235086   2.782   3.310   0.520  0.0837 -0.0923  0.2815
 4484TIP3    H135087   2.874   3.285   0.517 -0.3861 -2.4845  2.3613
 4484TIP3    H235088   2.763   3.322   0.613 -1.9918 -0.9403  0.0162
 4485TIP3   OH235089   5.399   0.014   8.839 -0.0095  0.2757  0.1886
 4485TIP3    H135090   5.365   0.045   8.923 -0.4192  1.3982 -0.3761
 4485TIP3    H235091   5.407   0.093   8.785  1.0185 -0.3150 -0.5648
 4486TIP3   OH235092   0.434   1.799   1.077 -0.2671 -0.1211 -0.0592
 4486TIP3    H135093   0.380   1.729   1.114 -2.9960  1.4646 -0.7799
 4486TIP3    H235094   0.450   1.772   0.987  1.7541 -1.4216  0.6309
 4487TIP3   OH235095   4.379   1.449   8.246  0.0619  0.4091 -0.0135
 4487TIP3    H135096   4.288   1.436   8.272 -0.3426  0.4539 -1.3336
 4487TIP3    H235097   4.413   1.360   8.233  0.4933  0.3535  1.3404
 4488TIP3   OH235098   3.112   6.106   0.466 -0.0163  0.1046  0.0760
 4488TIP3    H135099   3.088   6.171   0.531  1.7931  0.3511  0.5458
 4488TIP3    H235100   3.100   6.150   0.382 -2.5256 -0.2681  0.1513
 4489TIP3   OH235101   2.178   1.016   1.608  0.0721 -0.3970 -0.1843
 4489TIP3    H135102   2.106   1.076   1.592  0.6615  0.2407 -0.4780
 4489TIP3    H235103   2.219   1.003   1.522  0.6053 -0.3632  0.0578
 4490TIP3   OH235104   4.111   6.364   8.040  0.3844  0.0059  0.1156
 4490TIP3    H135105   4.168   6.300   8.081  0.1711  1.1264  2.2923
 4490TIP3    H235106   4.168   6.414   7.982  0.5596 -2.0332 -1.5998
 4491TIP3   OH235107   6.075   1.471   1.227  0.1536 -0.5684  0.2190
 4491TIP3    H135108   6.096   1.535   1.295 -3.4311  1.5991 -0.4748
 4491TIP3    H235109   6.024   1.404   1.273 -1.8320  0.6357 -0.1173
 4492TIP3   OH235110   6.350   5.725   2.555  0.1888 -0.0795 -0.0506
 4492TIP3    H135111   6.391   5.810   2.570 -0.6217 -0.0923  3.0974
 4492TIP3    H235112   6.418   5.661   2.576 -0.0087 -0.1431  0.4223
 4493TIP3   OH235113   4.451   0.609   6.794 -0.4333  0.0158 -0.0370
 4493TIP3    H135114   4.384   0.551   6.830  0.3711 -0.5533  0.5914
 4493TIP3    H235115   4.522   0.550   6.767 -0.3149  0.5777 -0.9932
 4494TIP3   OH235116   2.076   3.058   7.261 -0.0659 -0.1268  0.2830
 4494TIP3    H135117   2.022   3.021   7.191 -0.5233  0.8281  0.1098
 4494TIP3    H235118   2.074   2.992   7.330 -3.1396  0.6330  1.1002
 4495TIP3   OH235119   5.512   4.037   2.070 -0.0489 -0.0506  0.5671
 4495TIP3    H135120   5.586   4.024   2.010  0.5253  0.5660  1.1225
 4495TIP3    H235121   5.461   3.956   2.063  0.0404 -0.0205 -0.6988
 4496TIP3   OH235122   1.767   4.941   1.468  0.7796 -0.2044 -0.5607
 4496TIP3    H135123   1.707   4.903   1.403 -0.0980 -1.0695  0.7141
 4496TIP3    H235124   1.849   4.894   1.453  0.9254  0.3897 -1.7655
 4497TIP3   OH235125   5.530   3.059   7.525  0.2229 -0.4253 -0.0153
 4497TIP3    H135126   5.574   3.020   7.449 -0.5083  0.1040 -0.7313
 4497TIP3    H235127   5.475   2.989   7.560 -0.0685 -0.4303 -0.4818
 4498TIP3   OH235128   4.427   3.833   2.458  0.9289 -0.0337  0.1614
 4498TIP3    H135129   4.506   3.794   2.422  0.1378 -0.0812 -1.6976
 4498TIP3    H235130   4.457   3.908   2.508  2.1753 -0.2228 -0.2759
 4499TIP3   OH235131   0.529   2.868   2.317 -0.5372 -0.0038 -0.5818
 4499TIP3    H135132   0.605   2.919   2.343 -0.6817 -0.0760 -0.0118
 4499TIP3    H235133   0.481   2.925   2.256  0.5720 -0.4030 -1.8797
 4500TIP3   OH235134   5.262   3.129   0.426  1.1238 -0.3822  0.3812
 4500TIP3    H135135   5.321   3.114   0.352  0.4279 -3.2617  0.3075
 4500TIP3    H235136   5.233   3.042   0.452 -2.1767  0.8112  1.1731
 4501TIP3   OH235137   2.263   0.264   7.860  0.1075  0.7590  0.0135
 4501TIP3    H135138   2.298   0.276   7.772 -0.5351  0.2001 -0.3272
 4501TIP3    H235139   2.308   0.330   7.913  1.9621 -0.1754 -0.3198
 4502TIP3   OH235140   6.406   5.430   8.576  0.3542  0.1827  0.2548
 4502TIP3    H135141   6.316   5.461   8.572 -0.1196 -0.7682  2.4081
 4502TIP3    H235142   6.407   5.351   8.522 -0.0698  0.2428  0.1576
 4503TIP3   OH235143   3.395   6.169   7.760  0.0421  0.2616 -0.2043
 4503TIP3    H135144   3.310   6.126   7.762  2.3266 -4.9300  0.6018
 4503TIP3    H235145   3.415   6.179   7.667 -0.7518  0.0004 -0.4070
 4504TIP3   OH235146   0.924   2.675   8.696 -0.7527 -0.3079  0.3287
 4504TIP3    H135147   0.834   2.699   8.675 -0.7070  1.5525  2.0172
 4504TIP3    H235148   0.977   2.745   8.658 -0.1291 -0.6591  0.5425
 4505TIP3   OH235149   1.113   3.468   8.171  0.4956 -0.0243 -0.3357
 4505TIP3    H135150   1.207   3.449   8.165  0.6069  0.3291  0.2181
 4505TIP3    H235151   1.082   3.463   8.080  0.5855 -2.3769 -0.2911
 4506TIP3   OH235152   0.282   2.489   0.474  0.3177 -0.7582  0.2621
 4506TIP3    H135153   0.199   2.536   0.467  0.3968 -0.7529 -0.9068
 4506TIP3    H235154   0.286   2.460   0.565 -0.2689  0.4973  0.7082
 4507TIP3   OH235155   2.996   6.307   0.611  0.2584 -0.1404 -0.1414
 4507TIP3    H135156   2.912   6.316   0.656  0.8780  0.6254  0.9220
 4507TIP3    H235157   3.011   6.393   0.571  1.0735  0.1097  0.6745
 4508TIP3   OH235158   4.311   1.336   0.289  0.0534  0.0683  0.4256
 4508TIP3    H135159   4.269   1.274   0.229  1.4382  1.2343 -1.8896
 4508TIP3    H235160   4.400   1.301   0.300  0.6312  1.2269 -0.3525
 4509TIP3   OH235161   4.494   2.243   0.835 -0.5964 -0.1464  0.3920
 4509TIP3    H135162   4.438   2.194   0.774 -1.2461  0.8974  0.1211
 4509TIP3    H235163   4.556   2.178   0.868 -0.6809 -0.8918 -0.8449
 4510TIP3   OH235164   2.305   5.865   0.144  0.0813  0.1203 -0.0905
 4510TIP3    H135165   2.313   5.889   0.237 -0.4154 -2.0698  0.5649
 4510TIP3    H235166   2.393   5.881   0.108  0.7454 -0.5703  1.1642
 4511TIP3   OH235167   6.614   1.461   6.929  0.1848  0.5659  0.2963
 4511TIP3    H135168   6.679   1.528   6.949  0.9028  0.5435 -1.7641
 4511TIP3    H235169   6.659   1.402   6.868 -1.2738 -0.3196  0.0487
 4512TIP3   OH235170   3.675   5.598   1.937 -0.2344 -0.3187  0.1568
 4512TIP3    H135171   3.739   5.544   1.982  0.3834  0.3683  0.1231
 4512TIP3    H235172   3.699   5.592   1.844 -0.2345 -0.0839  0.1411
 4513TIP3   OH235173   2.966   2.512   1.374 -0.0373 -0.1260 -0.8802
 4513TIP3    H135174   3.057   2.537   1.359  0.3323 -0.9022 -0.0280
 4513TIP3    H235175   2.970   2.451   1.447 -1.0428 -1.6251 -2.0245
 4514TIP3   OH235176   0.319   1.091   8.782 -0.9208 -0.5774 -0.1652
 4514TIP3    H135177   0.373   1.107   8.705 -0.4205 -3.2831 -0.4734
 4514TIP3    H235178   0.233   1.067   8.747 -0.5058 -2.4951  0.0135
 4515TIP3   OH235179   0.625   2.895   0.752 -0.4092  0.6958 -0.2900
 4515TIP3    H135180   0.561   2.857   0.692  0.0380 -0.2936 -0.1450
 4515TIP3    H235181   0.573   2.922   0.828 -0.6889  0.1352 -0.2815
 4516TIP3   OH235182   4.624   4.068   0.657  0.5979  0.4108  0.2747
 4516TIP3    H135183   4.611   4.036   0.747 -1.2651  0.4033  0.0301
 4516TIP3    H235184   4.684   4.005   0.618  1.4051  0.3874  1.4922
 4517TIP3   OH235185   6.630   1.751   7.316  0.2374 -0.2249 -0.2071
 4517TIP3    H135186   6.583   1.747   7.233 -1.2822  1.7554  0.4917
 4517TIP3    H235187   6.574   1.803   7.374  1.6318 -0.8397  1.8227
 4518TIP3   OH235188   4.470   6.275   1.234  0.2626  0.2989 -0.2993
 4518TIP3    H135189   4.395   6.335   1.239  0.8809  1.0644 -0.0127
 4518TIP3    H235190   4.499   6.281   1.143  0.8421  1.1069 -0.0786
 4519TIP3   OH235191   5.182   6.712   6.528  0.0416  0.2655  0.0448
 4519TIP3    H135192   5.101   6.757   6.504 -0.3865 -1.1755 -1.3598
 4519TIP3    H235193   5.174   6.625   6.488  1.1954 -0.7887  1.9834
 4520TIP3   OH235194   5.445   3.379   0.651 -0.6558  0.1094 -0.5120
 4520TIP3    H135195   5.447   3.463   0.697  4.9661  1.5395 -2.5011
 4520TIP3    H235196   5.471   3.315   0.717  1.1362  1.0946 -0.2017
 4521TIP3   OH235197   5.481   6.455   0.995  0.0808  0.5619 -0.1343
 4521TIP3    H135198   5.424   6.520   0.955 -1.4273 -1.0609 -0.7224
 4521TIP3    H235199   5.424   6.404   1.052  1.4584  0.4388  1.2208
 4522TIP3   OH235200   5.301   3.436   8.840  0.1020 -0.2893  0.6480
 4522TIP3    H135201   5.275   3.488   8.915  0.7976  0.0544  0.6526
 4522TIP3    H235202   5.373   3.484   8.800  0.8186 -1.2896  0.7023
 4523TIP3   OH235203   2.198   1.666   7.605 -0.1848 -0.1078 -0.6160
 4523TIP3    H135204   2.197   1.574   7.579 -0.4299  0.1763 -1.6768
 4523TIP3    H235205   2.124   1.705   7.558  0.7086  0.8945 -1.2354
 4524TIP3   OH235206   5.602   6.498   1.986  0.6182 -0.1294  0.0410
 4524TIP3    H135207   5.696   6.516   1.979  1.0925 -1.8278  1.4239
 4524TIP3    H235208   5.583   6.444   1.909  0.5289  0.9912 -0.7540
 4525TIP3   OH235209   5.232   3.818   0.456  0.3060  0.4813  0.3614
 4525TIP3    H135210   5.229   3.910   0.432 -3.1246 -0.3385 -3.6232
 4525TIP3    H235211   5.157   3.806   0.515  0.9420  0.2638  1.1407
 4526TIP3   OH235212   2.349   2.366   0.865 -0.0762  0.1852  0.2602
 4526TIP3    H135213   2.360   2.358   0.771 -0.2581  2.9203 -0.0680
 4526TIP3    H235214   2.423   2.418   0.894  0.0846 -0.7826  1.7024
 4527TIP3   OH235215   2.751   0.907   1.526 -0.5061 -0.1384 -0.4753
 4527TIP3    H135216   2.682   0.973   1.512 -0.1405  0.2466 -0.4822
 4527TIP3    H235217   2.759   0.901   1.621 -1.2912 -0.9701 -0.4506
 4528TIP3   OH235218   2.325   1.168   7.571 -0.2604 -0.5126  0.0886
 4528TIP3    H135219   2.375   1.111   7.512  0.8598 -0.8630  1.3237
 4528TIP3    H235220   2.241   1.123   7.582  0.5791 -1.9536  0.9954
 4529TIP3   OH235221   0.919   5.039   7.509  0.1610 -0.1265  0.0655
 4529TIP3    H135222   0.875   5.006   7.431  1.0549 -0.7259 -0.2022
 4529TIP3    H235223   1.013   5.031   7.489  0.3990  0.1129  1.0322
 4530TIP3   OH235224   6.657   0.232   1.666 -0.6447  0.1856 -0.5136
 4530TIP3    H135225   6.671   0.317   1.707  0.5240 -0.4917  0.5377
 4530TIP3    H235226   6.723   0.227   1.597 -1.0593  0.3374 -0.9279
 4531TIP3   OH235227   4.753   5.093   1.756  0.3247 -0.4766 -0.0812
 4531TIP3    H135228   4.744   5.113   1.663 -1.8487 -0.1894  0.1339
 4531TIP3    H235229   4.723   5.002   1.764 -0.5917 -0.1411  0.4704
 4532TIP3   OH235230   3.812   5.266   1.479  0.5532  0.1735  0.0810
 4532TIP3    H135231   3.802   5.355   1.446 -0.7087 -0.0119 -0.0929
 4532TIP3    H235232   3.756   5.213   1.423  0.4012 -0.5467  0.8870
 4533TIP3   OH235233   2.237   5.888   1.109  0.5547 -0.0477 -0.1297
 4533TIP3    H135234   2.239   5.847   1.023  0.0090  1.1701 -0.7512
 4533TIP3    H235235   2.292   5.832   1.164  0.2644 -1.2872 -1.0566
 4534TIP3   OH235236   2.423   4.074   7.997 -0.6109 -0.2084  0.1807
 4534TIP3    H135237   2.480   4.072   8.073 -2.5746 -0.6035  1.7207
 4534TIP3    H235238   2.437   4.161   7.958  1.7666 -0.6808 -0.1601
 4535TIP3   OH235239   4.306   2.754   1.172  0.0614 -0.4347 -0.2547
 4535TIP3    H135240   4.347   2.711   1.097 -1.2872  0.4281 -1.5342
 4535TIP3    H235241   4.235   2.695   1.198  2.1466 -2.1005  2.1784
 4536TIP3   OH235242   4.205   3.851   2.311 -0.4516  0.4081 -0.1660
 4536TIP3    H135243   4.279   3.847   2.373  0.1146  1.6049 -0.7299
 4536TIP3    H235244   4.146   3.781   2.339  0.8368 -0.5026  0.3849
 4537TIP3   OH235245   5.795   3.340   7.877  0.1130 -0.3564  0.3393
 4537TIP3    H135246   5.724   3.387   7.922  0.0405 -2.1436  2.2232
 4537TIP3    H235247   5.870   3.399   7.883 -0.7391  0.8178 -0.1163
 4538TIP3   OH235248   4.698   1.733   2.079  0.6188 -0.2881 -0.6711
 4538TIP3    H135249   4.780   1.755   2.035  0.3930  1.2209 -0.3848
 4538TIP3    H235250   4.725   1.679   2.153  1.2538 -0.6273 -1.1348
 4539TIP3   OH235251   4.765   0.177   7.903  0.1588 -0.7575  0.1017
 4539TIP3    H135252   4.773   0.207   7.994 -1.2164  0.5882 -0.1764
 4539TIP3    H235253   4.740   0.256   7.854  1.9547 -1.2006 -1.6622
 4540TIP3   OH235254   3.090   3.218   1.292  0.4266  0.0804  0.2310
 4540TIP3    H135255   3.079   3.292   1.233  1.1172 -0.2262 -0.2894
 4540TIP3    H235256   3.132   3.256   1.370 -0.6600  0.5178  0.6209
 4541TIP3   OH235257   3.291   0.506   0.321  0.0009  0.2004  0.2529
 4541TIP3    H135258   3.224   0.442   0.299 -1.7416  2.3816 -1.2421
 4541TIP3    H235259   3.249   0.591   0.306  2.5003  1.7147  1.1611
 4542TIP3   OH235260   0.874   0.791   7.235 -0.7051 -0.0070 -0.1177
 4542TIP3    H135261   0.893   0.699   7.249  0.4217  0.3658  1.0512
 4542TIP3    H235262   0.805   0.811   7.299 -0.2366  0.1766  0.3395
 4543TIP3   OH235263   6.434   0.695   1.471 -0.5181  0.2884 -0.4637
 4543TIP3    H135264   6.388   0.779   1.467 -0.0710  0.5531 -0.0578
 4543TIP3    H235265   6.521   0.713   1.436 -0.0644  0.2485  0.5970
 4544TIP3   OH235266   6.028   5.224   8.043 -0.3693 -0.2351  0.8072
 4544TIP3    H135267   5.933   5.225   8.032 -0.2584  1.0214 -0.4351
 4544TIP3    H235268   6.056   5.144   7.999 -0.7346  0.3148 -0.5033
 4545TIP3   OH235269   1.639   1.953   2.116  0.4570  0.7524 -0.1336
 4545TIP3    H135270   1.583   2.017   2.160  0.7576 -0.3399  1.9746
 4545TIP3    H235271   1.703   2.005   2.068  0.4450  2.0490  1.1988
 4546TIP3   OH235272   2.563   3.197   0.419  0.2281 -0.1360  1.0703
 4546TIP3    H135273   2.492   3.185   0.481  0.0613  1.7407  1.2965
 4546TIP3    H235274   2.641   3.213   0.473  0.0959  1.4292  0.8612
 4547TIP3   OH235275   0.681   0.726   1.176  0.2637  0.7297  0.2681
 4547TIP3    H135276   0.697   0.790   1.245  0.0849  1.9296 -0.7725
 4547TIP3    H235277   0.765   0.719   1.130  0.3343  0.0610  0.4820
 4548TIP3   OH235278   1.585   1.413   1.513 -0.1011 -0.1608  0.2213
 4548TIP3    H135279   1.499   1.392   1.477 -0.1444 -0.1048  0.2921
 4548TIP3    H235280   1.633   1.330   1.511 -0.3936 -0.3478  0.8399
 4549TIP3   OH235281   2.507   0.124   1.529  0.1249  0.3279 -0.0333
 4549TIP3    H135282   2.525   0.196   1.468  0.6707  0.1530 -0.0822
 4549TIP3    H235283   2.487   0.168   1.612  1.0766  0.5264  0.1000
 4550TIP3   OH235284   3.824   2.449   1.272 -0.2799 -0.0419 -0.0922
 4550TIP3    H135285   3.831   2.386   1.201  0.3009 -0.3123  0.1971
 4550TIP3    H235286   3.780   2.525   1.233 -0.6261 -0.4727 -0.5421
 4551TIP3   OH235287   6.355   0.666   7.658  0.0193  0.5539 -0.2548
 4551TIP3    H135288   6.338   0.706   7.743  3.1620  2.0713 -0.1921
 4551TIP3    H235289   6.391   0.580   7.678  2.0915  1.4374  0.1452
 4552TIP3   OH235290   0.386   3.575   8.898  0.1811 -0.1604  0.4480
 4552TIP3    H135291   0.355   3.639   8.833  1.1826  1.5265  1.5423
 4552TIP3    H235292   0.379   3.491   8.854  0.5068  0.8798 -1.7311
 4553TIP3   OH235293   2.871   6.394   0.165  0.1292 -0.5288  0.3238
 4553TIP3    H135294   2.920   6.475   0.154  3.1070 -2.3453 -1.1046
 4553TIP3    H235295   2.842   6.395   0.256  3.8117  0.2880  1.6443
 4554TIP3   OH235296   1.078   2.825   0.412  0.1089  0.8567  0.9458
 4554TIP3    H135297   1.022   2.875   0.471 -2.2226 -0.7930  0.3043
 4554TIP3    H235298   1.105   2.888   0.345 -2.6445  1.4030  0.1991
 4555TIP3   OH235299   6.428   0.942   1.611 -0.3904  0.0860 -0.1637
 4555TIP3    H135300   6.445   0.949   1.705 -1.2006  1.2892 -0.0879
 4555TIP3    H235301   6.510   0.908   1.575  0.4261  0.9716  0.7946
 4556TIP3   OH235302   2.283   4.894   8.755 -0.4312  0.0410 -0.7843
 4556TIP3    H135303   2.201   4.914   8.799  0.0956 -1.8266  1.1779
 4556TIP3    H235304   2.351   4.917   8.818  0.3693 -2.0091 -0.8169
 4557TIP3   OH235305   1.092   1.033   1.866 -0.1380  0.1554 -0.5192
 4557TIP3    H135306   1.144   0.953   1.871 -0.7500 -0.1808  1.5564
 4557TIP3    H235307   1.044   1.035   1.949 -1.4532  1.7905 -1.2742
 4558TIP3   OH235308   1.412   2.646   2.364  0.2924 -0.2030 -0.1180
 4558TIP3    H135309   1.356   2.709   2.408  0.2424  2.1258 -3.1946
 4558TIP3    H235310   1.501   2.682   2.374  0.0775  1.7463 -3.6013
 4559TIP3   OH235311   2.057   0.709   8.491  0.1131 -0.3283  0.0958
 4559TIP3    H135312   2.114   0.676   8.560  2.0344  1.1535 -0.7096
 4559TIP3    H235313   2.086   0.662   8.412 -2.8200 -2.8867  0.3264
 4560TIP3   OH235314   4.185   4.698   1.262  0.0700 -0.3509  0.0014
 4560TIP3    H135315   4.165   4.689   1.355 -1.8131  1.2610 -0.1916
 4560TIP3    H235316   4.280   4.691   1.257  0.1603 -1.2025  1.9263
 4561TIP3   OH235317   3.105   3.101   7.799 -0.4952 -0.0818  0.2052
 4561TIP3    H135318   3.147   3.111   7.714  0.8232  1.0223  0.9381
 4561TIP3    H235319   3.013   3.123   7.783 -0.3759 -0.4185 -1.0301
 4562TIP3   OH235320   3.618   3.743   1.523 -0.1737 -0.2996 -0.0534
 4562TIP3    H135321   3.621   3.769   1.431 -0.9425  0.2071  0.0511
 4562TIP3    H235322   3.691   3.789   1.564 -1.1053  1.2052 -0.0090
 4563TIP3   OH235323   3.735   0.105   0.203  0.3706 -0.1804  0.0900
 4563TIP3    H135324   3.688   0.022   0.191  0.3805 -0.4466  1.6328
 4563TIP3    H235325   3.678   0.157   0.259  0.4623  0.7834 -0.7041
 4564TIP3   OH235326   2.451   1.933   1.105 -0.0262  0.0030 -0.1716
 4564TIP3    H135327   2.513   1.977   1.163 -1.0222  0.8622  0.2803
 4564TIP3    H235328   2.505   1.899   1.034  0.9922  0.4730  0.3514
 4565TIP3   OH235329   5.907   1.014   0.718  0.0069  0.4284  0.0333
 4565TIP3    H135330   5.926   0.932   0.672 -1.6287  0.8635 -1.5091
 4565TIP3    H235331   5.891   0.987   0.808  1.0136 -0.7359 -0.0939
 4566TIP3   OH235332   0.613   5.543   6.943  0.0146  0.7441 -0.0399
 4566TIP3    H135333   0.594   5.578   6.856  1.4429  0.8840 -0.3230
 4566TIP3    H235334   0.532   5.500   6.970 -1.3883  3.0629 -0.2486
 4567TIP3   OH235335   1.639   2.681   6.359 -0.1742 -0.2295  0.3139
 4567TIP3    H135336   1.673   2.622   6.291 -0.9284  0.7525 -0.9668
 4567TIP3    H235337   1.550   2.702   6.330 -0.0704  1.1967  0.9706
 4568TIP3   OH235338   2.561   1.862   8.658  0.4725  0.9056  0.3172
 4568TIP3    H135339   2.653   1.841   8.671  0.6643  1.1563 -0.6169
 4568TIP3    H235340   2.548   1.945   8.703  0.5337  0.5558  1.0068
 4569TIP3   OH235341   2.671   0.538   8.801  0.3694 -0.0313 -0.8133
 4569TIP3    H135342   2.728   0.575   8.734  0.2790 -1.2426 -1.5891
 4569TIP3    H235343   2.730   0.507   8.869  0.5792 -0.4123 -1.1686
 4570TIP3   OH235344   6.396   4.602   8.354  0.1655  0.9372  0.6710
 4570TIP3    H135345   6.477   4.554   8.375 -0.2556  0.5617  1.4508
 4570TIP3    H235346   6.427   4.688   8.324  0.9565  0.0459 -1.2394
 4571TIP3   OH235347   4.427   1.980   6.405 -0.0662  0.0672  0.1002
 4571TIP3    H135348   4.496   2.036   6.441  1.3945 -1.4896 -0.1915
 4571TIP3    H235349   4.449   1.892   6.434 -2.4747 -0.3733  0.7654
 4572TIP3   OH235350   1.737   1.640   1.353  0.1613 -0.6263  0.1512
 4572TIP3    H135351   1.670   1.579   1.383  0.5454 -0.8930  0.4824
 4572TIP3    H235352   1.719   1.652   1.259 -2.7220  2.3069  0.8963
 4573TIP3   OH235353   6.498   2.683   6.742 -0.1255 -0.4180  0.0979
 4573TIP3    H135354   6.482   2.711   6.651 -2.3458 -1.0600  0.2309
 4573TIP3    H235355   6.415   2.645   6.770  0.0931  0.9366  2.8615
 4574TIP3   OH235356   6.340   3.026   8.295 -0.2491 -0.4193  0.0343
 4574TIP3    H135357   6.357   2.932   8.294 -0.9838 -0.5477 -0.4170
 4574TIP3    H235358   6.375   3.056   8.379  0.7460 -0.9499 -0.1787
 4575TIP3   OH235359   5.975   6.112   8.274  0.1478 -0.5196 -0.6389
 4575TIP3    H135360   6.018   6.099   8.359 -0.7198 -0.0451 -0.1156
 4575TIP3    H235361   5.882   6.121   8.295  0.0705  0.9882 -1.4847
 4576TIP3   OH235362   6.579   1.483   8.134  0.2603 -0.9955  0.1974
 4576TIP3    H135363   6.606   1.572   8.158 -2.0383 -0.2712  0.3319
 4576TIP3    H235364   6.573   1.484   8.039  0.7595 -1.1916  0.1591
 4577TIP3   OH235365   3.806   5.594   1.693  0.2554 -0.6336 -0.3266
 4577TIP3    H135366   3.857   5.556   1.621  0.5009  0.3038 -0.6734
 4577TIP3    H235367   3.810   5.688   1.677 -1.4808 -0.5145 -0.2787
 4578TIP3   OH235368   3.267   1.804   8.245  0.2312 -0.6442 -0.6516
 4578TIP3    H135369   3.321   1.753   8.306 -1.1130 -0.8320  0.4359
 4578TIP3    H235370   3.202   1.741   8.213  0.3737 -0.3207 -1.5912
 4579TIP3   OH235371   4.655   0.886   8.034 -0.1091  0.0276 -0.4419
 4579TIP3    H135372   4.625   0.952   7.972  0.6612 -0.0321 -0.8848
 4579TIP3    H235373   4.681   0.936   8.111 -0.7682  0.1256 -0.2713
 4580TIP3   OH235374   1.649   4.076   6.423 -0.3492 -0.7000  0.0475
 4580TIP3    H135375   1.614   4.164   6.417 -0.9338 -0.5515  3.4961
 4580TIP3    H235376   1.735   4.087   6.462 -0.6208 -1.6441  0.9577
 4581TIP3   OH235377   0.449   6.776   0.407 -0.1723  0.3772  0.7146
 4581TIP3    H135378   0.377   6.766   0.345  0.8402  0.1999 -0.4712
 4581TIP3    H235379   0.430   6.859   0.452  0.1551  1.6845 -1.3724
 4582TIP3   OH235380   2.157   4.644   0.197 -0.0753  0.2527 -0.2547
 4582TIP3    H135381   2.187   4.570   0.249 -2.9696 -0.6925  0.2670
 4582TIP3    H235382   2.232   4.668   0.143  2.0632 -0.7083  2.1217
 4583TIP3   OH235383   0.931   3.734   8.872 -0.4320  0.1367  0.5452
 4583TIP3    H135384   0.961   3.667   8.811  1.1555  2.6112 -1.6176
 4583TIP3    H235385   0.836   3.737   8.860 -0.3134 -0.4871 -0.6731
 4584TIP3   OH235386   6.393   5.819   0.805  0.1968  0.5217 -0.3536
 4584TIP3    H135387   6.480   5.856   0.794 -0.5533  2.5033 -0.0001
 4584TIP3    H235388   6.353   5.826   0.718 -0.0002  0.6998 -0.2502
 4585TIP3   OH235389   5.912   3.626   0.559 -0.2322 -0.7239  0.2097
 4585TIP3    H135390   6.007   3.626   0.541  0.3428 -0.5682  2.8959
 4585TIP3    H235391   5.885   3.716   0.541  0.7440 -0.0139  2.0017
 4586TIP3   OH235392   6.320   1.585   6.212 -0.4349 -0.2578  0.6256
 4586TIP3    H135393   6.274   1.503   6.194 -0.4020 -0.2061  0.3030
 4586TIP3    H235394   6.400   1.559   6.257 -0.1634 -0.4461  0.0443
 4587TIP3   OH235395   3.462   3.522   8.080 -0.1647 -0.4499  0.3159
 4587TIP3    H135396   3.434   3.606   8.114  2.1387  0.6659 -0.2762
 4587TIP3    H235397   3.426   3.519   7.991 -1.6666 -0.9162  0.9077
 4588TIP3   OH235398   1.808   2.831   0.351  0.1551 -0.2593 -0.1434
 4588TIP3    H135399   1.758   2.847   0.432 -3.0070 -0.7492 -1.8647
 4588TIP3    H235400   1.872   2.903   0.349 -1.4905  1.3811  1.4665
 4589TIP3   OH235401   6.382   0.119   8.553 -0.2530  0.2971  0.0201
 4589TIP3    H135402   6.468   0.162   8.556  0.0249 -0.2788  2.2156
 4589TIP3    H235403   6.396   0.044   8.496  0.2698  1.0663 -0.8876
 4590TIP3   OH235404   4.272   2.378   7.301 -0.1115 -0.4035  0.7089
 4590TIP3    H135405   4.200   2.363   7.363  0.0841  1.1369  1.3591
 4590TIP3    H235406   4.344   2.407   7.356  0.1382  0.7830 -0.2120
 4591TIP3   OH235407   6.353   1.821   7.847 -0.1001  0.0011  0.4787
 4591TIP3    H135408   6.272   1.771   7.835 -1.0134  1.6914 -1.0163
 4591TIP3    H235409   6.345   1.859   7.935 -1.8015  1.4624 -0.2288
 4592TIP3   OH235410   0.485   1.103   1.718  0.3347 -0.1182  0.2427
 4592TIP3    H135411   0.508   1.010   1.725 -0.1805 -0.1711  1.2619
 4592TIP3    H235412   0.527   1.144   1.793 -0.5905  0.2483  0.5629
 4593TIP3   OH235413   6.717   6.469   8.387  0.1647  0.3635 -0.1055
 4593TIP3    H135414   6.741   6.380   8.415 -1.9556 -0.2739 -0.0928
 4593TIP3    H235415   6.737   6.471   8.294  0.1462 -0.1771 -0.1238
 4594TIP3   OH235416   0.536   4.091   8.209 -0.1762  0.0746  0.3259
 4594TIP3    H135417   0.597   4.032   8.254  0.0721 -3.2546 -3.7363
 4594TIP3    H235418   0.450   4.064   8.238  0.0477  0.2196  1.1451
 4595TIP3   OH235419   1.755   4.902   6.379 -0.2518 -0.1434 -0.1072
 4595TIP3    H135420   1.699   4.955   6.324 -0.4221 -0.3306 -0.1166
 4595TIP3    H235421   1.830   4.958   6.399  0.3034 -0.4075 -1.3481
 4596TIP3   OH235422   2.290   0.266   7.281  0.2650 -0.0560  0.2943
 4596TIP3    H135423   2.240   0.263   7.200 -0.3095 -0.8972  0.6631
 4596TIP3    H235424   2.268   0.184   7.326  0.7234  0.3037  1.2031
 4597TIP3   OH235425   3.158   5.765   1.039  0.1415  1.4017 -0.0954
 4597TIP3    H135426   3.074   5.810   1.053 -0.0075  0.7177  1.3486
 4597TIP3    H235427   3.134   5.681   1.001  0.1429  1.0641  0.6467
 4598TIP3   OH235428   6.382   5.766   1.256 -0.3817 -0.0777  0.0532
 4598TIP3    H135429   6.382   5.826   1.331 -1.0039  0.0003 -0.0092
 4598TIP3    H235430   6.377   5.679   1.295  0.7106 -0.1199  0.1532
 4599TIP3   OH235431   0.563   1.437   1.293 -0.6163  0.3896 -0.2706
 4599TIP3    H135432   0.568   1.345   1.268  0.4522  0.4649 -0.3593
 4599TIP3    H235433   0.494   1.440   1.359  1.2538 -0.9722  1.8659
 4600TIP3   OH235434   5.733   1.337   1.188 -0.4373 -0.7071 -0.0868
 4600TIP3    H135435   5.789   1.261   1.177 -1.6923 -1.7094  0.1939
 4600TIP3    H235436   5.734   1.379   1.102 -1.0826 -2.0323 -0.7804
 4601TIP3   OH235437   5.250   6.246   1.039  0.2684 -0.2814  0.2399
 4601TIP3    H135438   5.201   6.169   1.012  0.8459 -0.2759 -0.8640
 4601TIP3    H235439   5.258   6.237   1.134  1.3355 -2.1834  0.0175
 4602TIP3   OH235440   2.685   2.705   8.295  1.0391 -0.0506  0.6714
 4602TIP3    H135441   2.630   2.722   8.218  3.0073  0.4789 -0.7036
 4602TIP3    H235442   2.624   2.701   8.368 -0.9177 -0.4573 -0.8911
 4603TIP3   OH235443   6.442   1.900   8.893  0.7096 -0.0577  0.2869
 4603TIP3    H135444   6.471   1.815   8.925  1.7349  0.4911  0.8769
 4603TIP3    H235445   6.518   1.958   8.906  0.6646  0.5464 -1.7522
 4604TIP3   OH235446   1.860   2.150   0.321  0.1122 -0.1408  0.2220
 4604TIP3    H135447   1.879   2.178   0.232  0.5565  1.6834  0.8518
 4604TIP3    H235448   1.816   2.224   0.361  0.6883 -0.5939  1.7751
 4605TIP3   OH235449   1.691   1.803   1.128 -0.6074  0.3642  0.6007
 4605TIP3    H135450   1.758   1.871   1.140 -2.4667  2.1333  1.5558
 4605TIP3    H235451   1.650   1.826   1.044 -1.0214  0.2080  0.7612
 4606TIP3   OH235452   6.077   4.391   7.854  0.4280  1.0970 -0.3324
 4606TIP3    H135453   6.042   4.466   7.904 -0.1832  0.0598  0.8530
 4606TIP3    H235454   6.006   4.367   7.795 -0.0228  0.4337  0.4577
 4607TIP3   OH235455   5.523   5.673   7.478  0.2790  0.1526 -0.9537
 4607TIP3    H135456   5.477   5.745   7.522  1.5759  0.1226  0.5421
 4607TIP3    H235457   5.456   5.632   7.424 -1.7752 -0.4619  1.8020
 4608TIP3   OH235458   1.687   4.114   1.282  0.1346  0.1847 -0.3245
 4608TIP3    H135459   1.758   4.080   1.228  0.5391  0.3029  0.1189
 4608TIP3    H235460   1.686   4.208   1.265 -1.3389 -0.0736 -1.9624
 4609TIP3   OH235461   0.857   2.993   1.107  0.1170 -0.5512  0.0805
 4609TIP3    H135462   0.796   3.058   1.073 -0.1577 -2.2537 -2.9648
 4609TIP3    H235463   0.944   3.027   1.083  0.2192  0.2088  1.4095
 4610TIP3   OH235464   2.056   1.702   6.814  0.4545 -0.3249  0.7153
 4610TIP3    H135465   2.042   1.795   6.832 -0.6334 -0.4240  0.4684
 4610TIP3    H235466   2.039   1.694   6.720  0.8465 -0.7304  0.6766
 4611TIP3   OH235467   4.157   5.962   8.762 -0.2971 -0.3234  0.0099
 4611TIP3    H135468   4.097   5.983   8.691 -0.1674 -1.9285 -0.6278
 4611TIP3    H235469   4.134   5.872   8.786 -0.6599  0.3365  2.3491
 4612TIP3   OH235470   2.262   5.803   8.068  0.0349 -0.1117 -0.0617
 4612TIP3    H135471   2.270   5.828   8.161 -0.1284 -0.9345  0.1785
 4612TIP3    H235472   2.325   5.733   8.057 -1.3898 -1.4365 -0.0554
 4613TIP3   OH235473   2.499   2.610   0.875  0.0931  0.4080 -0.2129
 4613TIP3    H135474   2.526   2.632   0.964  0.2560  1.4388 -0.5114
 4613TIP3    H235475   2.443   2.683   0.847  0.6557  0.4713 -1.2252
 4614TIP3   OH235476   2.809   3.185   0.135  0.1279 -0.5448 -0.5260
 4614TIP3    H135477   2.799   3.090   0.140  2.7159 -0.8592  0.4737
 4614TIP3    H235478   2.844   3.200   0.047  0.5242 -0.6135 -0.3800
 4615TIP3   OH235479   4.239   3.007   1.197 -0.0863 -0.5845  0.1583
 4615TIP3    H135480   4.181   3.039   1.128  1.6183  0.6040 -0.7917
 4615TIP3    H235481   4.261   2.917   1.171  1.7327  0.3407 -1.7244
 4616TIP3   OH235482   4.475   6.534   1.405 -0.4234  0.0273  0.2406
 4616TIP3    H135483   4.512   6.594   1.340  1.6668  0.1517  1.4461
 4616TIP3    H235484   4.537   6.461   1.408 -2.5052 -1.8836 -0.6281
 4617TIP3   OH235485   2.720   2.634   5.859  0.4346 -0.4339  0.4548
 4617TIP3    H135486   2.705   2.649   5.953  0.5255  0.1848  0.3744
 4617TIP3    H235487   2.814   2.648   5.848  0.3024  0.2371  0.1412
 4618TIP3   OH235488   2.314   5.976   0.417 -0.3569  0.0312  0.2666
 4618TIP3    H135489   2.321   5.928   0.500  1.8635 -2.2400 -1.0668
 4618TIP3    H235490   2.236   6.030   0.426 -2.7140 -3.3229  2.2722
 4619TIP3   OH235491   3.138   5.529   2.070  0.3626  0.5963  0.0081
 4619TIP3    H135492   3.126   5.583   2.149  1.3311  0.3135  0.3568
 4619TIP3    H235493   3.116   5.588   1.998 -2.0440  0.4306  0.5097
 4620TIP3   OH235494   0.485   4.294   8.808  0.4002  0.1661 -0.3014
 4620TIP3    H135495   0.453   4.336   8.888 -0.5646 -0.4037 -0.3837
 4620TIP3    H235496   0.573   4.262   8.831 -0.1769 -0.6847  0.7693
 4621TIP3   OH235497   0.744   0.681   8.704  0.2680  1.0721 -0.1339
 4621TIP3    H135498   0.687   0.685   8.782  0.4597 -0.7357  0.1340
 4621TIP3    H235499   0.691   0.720   8.635 -1.4993 -0.8034  0.0441
 4622TIP3   OH235500   1.905   5.525   1.281 -0.1007 -0.5382 -0.3350
 4622TIP3    H135501   1.846   5.564   1.216 -0.9445 -0.0086  0.7164
 4622TIP3    H235502   1.985   5.505   1.232  0.0244  1.6785 -1.1177
 4623TIP3   OH235503   2.462   2.937   1.440  0.3238 -0.0872 -0.6660
 4623TIP3    H135504   2.444   2.909   1.530  1.4138 -0.3806 -0.5210
 4623TIP3    H235505   2.551   2.907   1.423 -0.1549 -0.7400 -2.1395
 4624TIP3   OH235506   1.608   4.096   2.126  0.6843  0.7389  0.1862
 4624TIP3    H135507   1.643   4.051   2.203  1.0560  1.6556  0.5630
 4624TIP3    H235508   1.646   4.184   2.130  0.6670  0.8148 -1.0186
 4625TIP3   OH235509   3.167   2.453   8.132 -0.1098  0.6313 -0.6884
 4625TIP3    H135510   3.129   2.498   8.208 -1.2739  2.1197 -2.0970
 4625TIP3    H235511   3.139   2.362   8.142 -0.9706  0.9760  0.2126
 4626TIP3   OH235512   4.705   5.660   0.197  0.6761  0.1915 -1.2453
 4626TIP3    H135513   4.728   5.567   0.193  0.5653  0.0706  0.3575
 4626TIP3    H235514   4.619   5.661   0.239  1.2173  1.0749 -0.1148
 4627TIP3   OH235515   2.406   4.628   6.729  0.3187  0.4836  0.1397
 4627TIP3    H135516   2.365   4.676   6.801 -0.0921 -1.4385  1.2597
 4627TIP3    H235517   2.444   4.551   6.771 -0.4267 -0.9840 -1.7785
 4628TIP3   OH235518   3.408   3.915   6.172  0.1294  0.4682  0.2735
 4628TIP3    H135519   3.377   3.825   6.175 -0.7068  0.7418  0.1353
 4628TIP3    H235520   3.329   3.968   6.167  0.4841  1.3601  2.8355
 4629TIP3   OH235521   0.732   0.849   2.125  0.6340  0.1410  0.0643
 4629TIP3    H135522   0.717   0.758   2.100  1.2516  0.1179 -0.2348
 4629TIP3    H235523   0.690   0.858   2.211  0.0149 -0.2503 -0.1908
 4630TIP3   OH235524   1.428   2.553   0.091 -0.2102  0.5645 -0.1781
 4630TIP3    H135525   1.363   2.488   0.066  1.7470 -0.8411 -2.0293
 4630TIP3    H235526   1.491   2.553   0.018  1.6649  2.0846  1.3256
 4631TIP3   OH235527   1.668   2.226   7.102 -0.1438  0.2428  0.3092
 4631TIP3    H135528   1.619   2.223   7.019  1.6400 -1.4704 -0.7585
 4631TIP3    H235529   1.622   2.164   7.159 -1.3762  1.4234  0.6658
 4632TIP3   OH235530   5.945   4.468   8.398  0.0778  0.1653 -0.5726
 4632TIP3    H135531   5.916   4.505   8.481  0.6786 -0.5336 -0.0339
 4632TIP3    H235532   5.865   4.452   8.349 -0.3161  0.0761  0.0969
 4633TIP3   OH235533   4.532   0.212   7.104  0.5392 -0.3350 -0.4078
 4633TIP3    H135534   4.615   0.170   7.129  1.5617  1.1360 -1.1907
 4633TIP3    H235535   4.467   0.142   7.111  2.3541 -2.4699 -2.8304
 4634TIP3   OH235536   3.652   6.046   2.061 -0.5196  0.2071  0.0413
 4634TIP3    H135537   3.704   5.989   2.005  1.7261  1.6365  0.5400
 4634TIP3    H235538   3.713   6.075   2.129 -1.9872  1.9452  0.7000
 4635TIP3   OH235539   4.554   4.380   0.920 -0.5486 -0.1059  0.1284
 4635TIP3    H135540   4.570   4.459   0.972 -0.5134 -0.0114 -0.0235
 4635TIP3    H235541   4.527   4.414   0.834 -2.8853 -0.2428  0.7484
 4636TIP3   OH235542   0.348   3.476   7.111 -0.3918 -0.0242 -0.1288
 4636TIP3    H135543   0.378   3.426   7.035  0.4302  0.8296 -0.3893
 4636TIP3    H235544   0.401   3.443   7.184 -0.8281 -0.4897 -0.0130
 4637TIP3   OH235545   0.673   5.299   8.586 -0.3043 -0.1977  0.5066
 4637TIP3    H135546   0.723   5.328   8.509 -0.1117 -2.2511 -0.1959
 4637TIP3    H235547   0.709   5.350   8.658  0.9320  0.3019 -0.4257
 4638TIP3   OH235548   1.213   0.170   6.523 -0.0445 -0.3569 -0.0349
 4638TIP3    H135549   1.300   0.211   6.517 -1.2324  2.3585  0.0305
 4638TIP3    H235550   1.177   0.203   6.606 -1.0248 -1.7501  0.1207
 4639TIP3   OH235551   5.385   5.347   2.293 -0.1089 -0.5240 -0.4831
 4639TIP3    H135552   5.319   5.293   2.250 -0.1505 -1.2532  0.4982
 4639TIP3    H235553   5.364   5.436   2.263 -2.4388 -0.5166  0.9056
 4640TIP3   OH235554   1.335   0.176   0.433  0.7326  0.3653 -0.0606
 4640TIP3    H135555   1.372   0.125   0.505 -1.1419 -1.9399 -0.5998
 4640TIP3    H235556   1.303   0.256   0.474 -0.2695 -0.8682  1.7072
 4641TIP3   OH235557   4.076   2.198   6.814 -0.0091 -0.7371 -0.0649
 4641TIP3    H135558   4.108   2.139   6.882  0.6548 -0.8121 -0.4333
 4641TIP3    H235559   4.013   2.146   6.764  0.5358 -1.1230 -0.3591
 4642TIP3   OH235560   6.304   5.276   2.449  0.4044  0.3968  0.0945
 4642TIP3    H135561   6.263   5.227   2.520  0.1802  0.4765  0.0213
 4642TIP3    H235562   6.398   5.266   2.464  0.3655 -0.4154 -0.1636
 4643TIP3   OH235563   2.352   1.695   8.756 -0.0885  0.6093 -0.0318
 4643TIP3    H135564   2.353   1.612   8.708 -1.5200  0.9826 -0.7546
 4643TIP3    H235565   2.433   1.739   8.729 -0.2412  0.2543 -1.1249
 4644TIP3   OH235566   2.003   2.927   1.857 -0.5274 -0.0318 -0.2245
 4644TIP3    H135567   2.007   2.838   1.892 -0.6811 -0.1163 -0.4204
 4644TIP3    H235568   1.999   2.983   1.934 -0.6237 -0.2041 -0.1044
 4645TIP3   OH235569   5.728   4.038   8.333 -0.4067  0.1267  0.4784
 4645TIP3    H135570   5.810   4.080   8.360  0.5649 -0.9364 -0.6663
 4645TIP3    H235571   5.694   4.094   8.264 -1.3098  1.2104  1.7471
 4646TIP3   OH235572   3.016   0.010   1.371  1.0352 -0.3352 -0.0328
 4646TIP3    H135573   2.952  -0.025   1.308  0.2138  0.3159  0.4170
 4646TIP3    H235574   2.997  -0.037   1.452  0.5775  0.4338  0.3144
 4647TIP3   OH235575   0.389   3.574   1.033 -0.1671 -0.1631 -0.0168
 4647TIP3    H135576   0.484   3.562   1.023 -0.0981  0.5972 -0.3271
 4647TIP3    H235577   0.359   3.600   0.946 -0.9770 -2.2797 -0.4394
 4648TIP3   OH235578   2.598   1.173   7.639 -0.4383 -0.0519  0.0680
 4648TIP3    H135579   2.621   1.152   7.729  0.2479 -1.1462 -0.3524
 4648TIP3    H235580   2.502   1.166   7.636 -0.6050  1.3941  1.0375
 4649TIP3   OH235581   0.466   3.967   7.571  0.6465  0.5496 -0.2490
 4649TIP3    H135582   0.428   3.888   7.532  1.6527 -0.4317  0.6718
 4649TIP3    H235583   0.559   3.964   7.545  1.1740  0.2457  1.5522
 4650TIP3   OH235584   4.346   4.270   7.302  0.4778 -0.0572 -0.4237
 4650TIP3    H135585   4.384   4.207   7.364  3.9231  0.6331 -1.6154
 4650TIP3    H235586   4.311   4.215   7.231 -0.2598 -0.7093  0.4127
 4651TIP3   OH235587   5.848   4.056   6.883 -0.1697  0.0637  0.3171
 4651TIP3    H135588   5.756   4.034   6.896  0.2561 -2.2096 -0.1985
 4651TIP3    H235589   5.872   4.013   6.801  0.3727  3.9650 -1.8230
 4652TIP3   OH235590   5.464   5.481   7.750  0.3183  0.3506 -0.3119
 4652TIP3    H135591   5.449   5.491   7.843 -0.6572 -0.4307 -0.3749
 4652TIP3    H235592   5.541   5.423   7.744 -1.1966 -1.8155  0.0444
 4653TIP3   OH235593   3.431   6.120   1.613 -0.3220  0.3139  0.6595
 4653TIP3    H135594   3.418   6.086   1.702  1.2458  0.6706  1.0471
 4653TIP3    H235595   3.518   6.158   1.614  0.5954 -1.4697 -1.6048
 4654TIP3   OH235596   4.728   3.061   0.467 -0.2468  0.1932  0.5225
 4654TIP3    H135597   4.700   3.145   0.503 -0.6693 -0.1803  1.0847
 4654TIP3    H235598   4.688   2.996   0.525  2.3934 -0.3665  1.8590
 4655TIP3   OH235599   6.658   1.905   1.633 -0.1583 -0.5029 -0.2104
 4655TIP3    H135600   6.606   1.929   1.557  0.9923 -0.2047 -0.9297
 4655TIP3    H235601   6.714   1.833   1.602 -0.0379 -0.7281  0.5035
 4656TIP3   OH235602   3.213   3.736   0.070 -0.0052  0.4145 -0.0190
 4656TIP3    H135603   3.168   3.700   0.146 -0.9807  2.6941  0.5745
 4656TIP3    H235604   3.165   3.702  -0.005  1.2397 -2.2226  0.2741
 4657TIP3   OH235605   3.135   3.492   7.823 -0.1335  0.8502  0.5535
 4657TIP3    H135606   3.141   3.413   7.878 -1.0823  0.7101  0.4736
 4657TIP3    H235607   3.225   3.508   7.794  0.4057  0.9056  2.1163
 4658TIP3   OH235608   1.611   3.401   0.542 -0.3006 -0.8367  0.2674
 4658TIP3    H135609   1.661   3.482   0.550 -1.2849 -0.1228 -0.5563
 4658TIP3    H235610   1.676   3.331   0.550  0.7538  0.0591 -0.3324
 4659TIP3   OH235611   1.681   1.251   8.477  0.3763  0.4275  0.2965
 4659TIP3    H135612   1.621   1.182   8.505  1.7900 -0.9047  0.1416
 4659TIP3    H235613   1.766   1.209   8.471  1.0573  1.8733 -1.0827
 4660TIP3   OH235614   5.038   4.902   7.702 -0.0754  0.5816 -0.2278
 4660TIP3    H135615   5.036   4.846   7.780 -0.3363 -0.4158 -0.9338
 4660TIP3    H235616   4.977   4.973   7.722 -1.3630 -0.5106 -0.1347
 4661TIP3   OH235617   0.730   2.107   1.888  0.4690  0.1957 -0.7096
 4661TIP3    H135618   0.743   2.058   1.969 -0.0806  2.3445  0.7754
 4661TIP3    H235619   0.816   2.145   1.869  0.8882 -1.2076 -1.8447
 4662TIP3   OH235620   4.305   1.405   7.243  0.0579  0.3616 -0.0333
 4662TIP3    H135621   4.235   1.342   7.259 -0.7348  1.7083  2.1758
 4662TIP3    H235622   4.260   1.488   7.226  1.1064  0.7728 -0.9080
 4663TIP3   OH235623   5.386   6.520   1.370  0.4561 -0.1719 -0.0296
 4663TIP3    H135624   5.433   6.443   1.339  0.0313  0.0767 -1.3595
 4663TIP3    H235625   5.453   6.574   1.413  0.8787 -0.9644  0.3160
 4664TIP3   OH235626   4.357   4.477   8.775  0.4205 -0.1199 -0.0754
 4664TIP3    H135627   4.432   4.453   8.829  1.3790  0.4811 -1.1155
 4664TIP3    H235628   4.340   4.569   8.797  0.1020 -0.1926 -0.0003
 4665TIP3   OH235629   2.193   5.089   7.733 -0.3170  0.5445 -0.1110
 4665TIP3    H135630   2.115   5.144   7.731 -0.1391  0.8084  0.1363
 4665TIP3    H235631   2.161   5.001   7.713 -0.3025  1.0368 -2.5513
 4666TIP3   OH235632   3.166   0.492   7.077 -0.3575  0.1849 -0.3064
 4666TIP3    H135633   3.169   0.401   7.108  0.9794  0.8378  1.6339
 4666TIP3    H235634   3.118   0.487   6.994 -0.7499 -2.2116 -0.0072
 4667TIP3   OH235635   6.565   2.267   1.599 -0.2447 -0.1517 -0.3717
 4667TIP3    H135636   6.645   2.315   1.578  0.5700 -1.2311  0.1513
 4667TIP3    H235637   6.568   2.189   1.543 -1.1366  0.0005 -0.6342
 4668TIP3   OH235638   5.725   4.996   0.761 -0.4559  0.7866 -0.4776
 4668TIP3    H135639   5.693   4.964   0.845  2.5898 -0.0913  0.4896
 4668TIP3    H235640   5.694   4.931   0.697  1.3215 -1.4493  0.7510
 4669TIP3   OH235641   3.702   6.569   6.359 -0.0421  0.2724 -0.5120
 4669TIP3    H135642   3.784   6.539   6.321 -0.7211 -2.1500 -0.2264
 4669TIP3    H235643   3.636   6.546   6.293 -0.8262 -0.7214  0.5774
 4670TIP3   OH235644   5.027   5.485   7.585 -0.3092 -0.9669  0.4140
 4670TIP3    H135645   5.059   5.522   7.503 -0.0787 -0.7313  0.6062
 4670TIP3    H235646   4.995   5.398   7.561 -1.0963 -0.5545 -0.0876
 4671TIP3   OH235647   1.214   5.113   8.618 -0.6028  0.6871  0.8783
 4671TIP3    H135648   1.141   5.158   8.661  0.4801  1.5906  1.8434
 4671TIP3    H235649   1.186   5.103   8.528 -0.5811  4.2269  0.3135
 4672TIP3   OH235650   1.869   3.154   0.308  0.1290  0.4638  0.1627
 4672TIP3    H135651   1.874   3.248   0.292  0.6898  0.4839  0.4246
 4672TIP3    H235652   1.831   3.146   0.395  0.8419  0.4744  0.4778
 4673TIP3   OH235653   1.313   6.542   7.615  0.0238  0.3649 -0.5794
 4673TIP3    H135654   1.254   6.618   7.612 -0.5699 -0.1124 -1.4418
 4673TIP3    H235655   1.353   6.540   7.528 -0.2004 -0.4856 -0.6673
 4674TIP3   OH235656   0.126   5.973   2.114  0.0652  0.2764  0.0170
 4674TIP3    H135657   0.148   5.938   2.201 -0.3327  0.7624  0.3186
 4674TIP3    H235658   0.070   6.048   2.132  0.7177  0.9331 -0.6289
 4675TIP3   OH235659   3.542   4.393   8.975 -0.1165 -0.5527  0.1934
 4675TIP3    H135660   3.473   4.386   8.909  1.1011 -1.8595 -1.0080
 4675TIP3    H235661   3.611   4.444   8.933  0.4759 -0.9829  0.6211
 4676TIP3   OH235662   2.095   3.390   6.277 -0.1679  0.6464  0.3476
 4676TIP3    H135663   2.169   3.435   6.238 -0.4956 -0.0901 -1.1993
 4676TIP3    H235664   2.113   3.297   6.263 -3.4093  0.3456 -4.4630
 4677TIP3   OH235665   1.038   2.137   8.265 -0.1925  0.0647  0.5759
 4677TIP3    H135666   0.991   2.167   8.343  1.3436  2.5520  0.6659
 4677TIP3    H235667   1.094   2.211   8.241  1.8041 -1.8101 -0.9775
 4678TIP3   OH235668   6.322   3.200   0.602  0.0847 -0.3111 -0.5503
 4678TIP3    H135669   6.306   3.288   0.637 -0.9232 -0.5816 -0.3167
 4678TIP3    H235670   6.256   3.188   0.534  0.0961 -0.9644 -0.4544
 4679TIP3   OH235671   5.830   6.630   1.797  0.2587 -0.0886  0.5821
 4679TIP3    H135672   5.902   6.583   1.754  2.1913  1.9147  1.4092
 4679TIP3    H235673   5.829   6.593   1.886 -0.9881 -1.3529  0.0794
 4680TIP3   OH235674   0.971   6.625   0.728  0.1758 -0.3561 -0.0509
 4680TIP3    H135675   0.989   6.615   0.822  0.5146  0.7058  0.0179
 4680TIP3    H235676   0.967   6.536   0.694  3.3516 -0.7904  0.3598
 4681TIP3   OH235677   3.019   2.453   6.853  0.5156  0.2608  0.1115
 4681TIP3    H135678   2.970   2.415   6.926 -0.0463  0.8874  0.0685
 4681TIP3    H235679   3.102   2.405   6.852  1.0078  0.9771  1.8837
 4682TIP3   OH235680   1.862   5.986   7.621  0.1072 -0.1088  0.4098
 4682TIP3    H135681   1.858   5.899   7.661  1.2418 -0.1087  0.5720
 4682TIP3    H235682   1.928   5.979   7.553  0.3649  0.6703  0.5585
 4683TIP3   OH235683   3.702   6.497   7.254 -1.0541 -0.7297 -0.9022
 4683TIP3    H135684   3.753   6.450   7.187 -2.0226 -1.7820 -0.9334
 4683TIP3    H235685   3.748   6.580   7.265  1.2499 -1.9941 -0.2145
 4684TIP3   OH235686   4.434   5.797   7.949 -0.3042  0.5013  0.9181
 4684TIP3    H135687   4.457   5.868   8.009  1.1940  0.6373  0.2279
 4684TIP3    H235688   4.380   5.738   8.001  0.3854  0.9550  2.1930
 4685TIP3   OH235689   5.309   2.582   8.244  0.3471  0.0750  0.4299
 4685TIP3    H135690   5.229   2.532   8.231  0.0112  0.8497 -0.6280
 4685TIP3    H235691   5.285   2.672   8.223  1.6066  0.2365 -0.4477
 4686TIP3   OH235692   1.522   0.432   7.091  0.0547  0.6739 -0.0213
 4686TIP3    H135693   1.575   0.352   7.094 -1.8414 -0.6468  0.2973
 4686TIP3    H235694   1.550   0.477   7.012  0.1644 -1.0646 -1.0181
 4687TIP3   OH235695   1.327   3.601   8.979  0.3140  0.0258 -0.2053
 4687TIP3    H135696   1.354   3.527   9.033 -0.6641  0.0196  0.2748
 4687TIP3    H235697   1.346   3.572   8.889 -0.4510 -0.9864 -0.0615
 4688TIP3   OH235698   1.276   6.527   6.960  0.1686 -0.7001 -0.5753
 4688TIP3    H135699   1.323   6.466   6.902 -0.5305 -0.9569 -0.8792
 4688TIP3    H235700   1.307   6.614   6.934  0.6627 -0.8817 -0.6043
 4689TIP3   OH235701   3.033   3.204   5.942  0.1133  0.1286 -0.3259
 4689TIP3    H135702   3.039   3.215   6.036  0.0172 -1.4700 -0.1001
 4689TIP3    H235703   3.063   3.114   5.926 -1.1698 -0.1080 -1.6468
 4690TIP3   OH235704   2.293   5.083   8.001  0.1638 -0.7121  1.1198
 4690TIP3    H135705   2.280   5.135   7.921  0.8156 -1.6403  0.3809
 4690TIP3    H235706   2.242   5.003   7.986  0.2340 -0.8628  1.6636
 4691TIP3   OH235707   3.499   0.432   2.013 -0.4587 -0.0937 -0.1406
 4691TIP3    H135708   3.540   0.517   2.032  1.4554 -0.6778 -1.4242
 4691TIP3    H235709   3.421   0.431   2.068 -1.8617  3.4822 -1.7565
 4692TIP3   OH235710   2.013   0.830   1.815 -0.1295  0.4498 -0.6158
 4692TIP3    H135711   1.995   0.786   1.733 -2.3905  0.4014 -0.1601
 4692TIP3    H235712   2.023   0.922   1.792  3.8559 -0.0206 -1.4663
 4693TIP3   OH235713   6.068   2.441   1.562  0.4969  0.4489  0.2153
 4693TIP3    H135714   6.013   2.495   1.504 -1.4665 -1.1438  0.4842
 4693TIP3    H235715   6.114   2.382   1.503 -0.2825 -0.1020  0.1395
 4694TIP3   OH235716   4.575   4.415   8.941  0.1661  0.1301  0.0300
 4694TIP3    H135717   4.536   4.334   8.974  0.6348 -0.7022 -1.3493
 4694TIP3    H235718   4.666   4.412   8.971  0.0450  0.4254  0.4370
 4695TIP3   OH235719   5.277   2.980   6.595  0.3351 -0.2897  0.3942
 4695TIP3    H135720   5.266   3.060   6.646  2.4101 -0.0616  0.5699
 4695TIP3    H235721   5.325   3.008   6.517  2.0020 -1.4732  0.9369
 4696TIP3   OH235722   1.926   5.068   7.065 -0.0778  0.4006  0.2333
 4696TIP3    H135723   1.861   5.009   7.103 -0.4092  0.2370 -0.5611
 4696TIP3    H235724   2.010   5.033   7.091 -0.1775 -1.6151 -1.8461
 4697TIP3   OH235725   5.909   6.168   0.966 -0.6872 -0.2999 -0.1795
 4697TIP3    H135726   5.964   6.178   0.889 -1.0118 -0.4108 -0.4282
 4697TIP3    H235727   5.930   6.081   1.000  1.0870  0.5707  1.1590
 4698TIP3   OH235728   5.336   4.530   7.752  0.2910 -0.2426  0.0680
 4698TIP3    H135729   5.273   4.458   7.751  0.3162 -0.2631 -0.6938
 4698TIP3    H235730   5.381   4.524   7.668  1.8496 -0.6862  0.8931
 4699TIP3   OH235731   5.942   0.957   8.767  0.2294 -0.2502 -0.5055
 4699TIP3    H135732   6.017   0.898   8.764  0.3617 -0.0460 -1.8349
 4699TIP3    H235733   5.981   1.044   8.771  0.0352 -0.2198  1.5397
 4700TIP3   OH235734   0.007   5.444   6.566 -0.6478  0.4681 -0.4984
 4700TIP3    H135735   0.099   5.458   6.590 -1.3209  2.2982  1.3292
 4700TIP3    H235736  -0.008   5.507   6.496 -0.6686  0.6485 -0.3336
 4701TIP3   OH235737   0.742   4.027   6.510 -0.6203  0.1077 -0.7098
 4701TIP3    H135738   0.710   4.036   6.600 -0.1222 -0.0434 -0.5111
 4701TIP3    H235739   0.822   4.080   6.508 -0.2020 -0.5130 -0.8341
 4702TIP3   OH235740   4.368   4.069   8.297 -0.7370  0.4527 -0.2423
 4702TIP3    H135741   4.423   4.011   8.349  0.3984  0.2860 -1.5863
 4702TIP3    H235742   4.308   4.108   8.361 -0.2887 -0.7557  0.9701
 4703TIP3   OH235743   0.683   0.308   1.046 -0.0867  0.0412 -0.4531
 4703TIP3    H135744   0.720   0.340   0.964  0.8961  3.4167  1.1285
 4703TIP3    H235745   0.758   0.271   1.093 -0.9712 -3.6521 -1.6839
 4704TIP3   OH235746   2.721   2.899   7.141  0.3895  0.0634  0.2352
 4704TIP3    H135747   2.637   2.931   7.108  0.1878 -1.2427 -0.6349
 4704TIP3    H235748   2.774   2.977   7.152 -0.6543  0.8395 -0.0632
 4705TIP3   OH235749   2.825   0.950   8.507  0.7458  0.1846 -0.5179
 4705TIP3    H135750   2.869   0.906   8.435 -0.6245  0.6103 -1.6564
 4705TIP3    H235751   2.866   1.036   8.512  1.0112  0.0642 -0.6317
 4706TIP3   OH235752   2.198   2.728   8.890 -0.3051  0.0762 -0.2988
 4706TIP3    H135753   2.261   2.666   8.853  0.1538  1.2517 -1.5689
 4706TIP3    H235754   2.205   2.806   8.834 -1.0346  1.1911  1.0973
 4707TIP3   OH235755   5.244   1.087   0.763  0.1890  0.5227  0.1977
 4707TIP3    H135756   5.196   1.023   0.816  0.7768  1.9757  2.6501
 4707TIP3    H235757   5.336   1.069   0.781  0.3989  1.0978 -0.2648
 4708TIP3   OH235758   3.843   1.141   8.243 -0.0827 -0.2001  0.5423
 4708TIP3    H135759   3.894   1.164   8.165  1.2732 -0.9461  1.1778
 4708TIP3    H235760   3.751   1.148   8.214  0.3410 -2.5481 -1.7908
 4709TIP3   OH235761   6.257   4.528   1.242  0.1778 -0.3865  0.2397
 4709TIP3    H135762   6.287   4.525   1.333 -0.0865  1.8347  0.4564
 4709TIP3    H235763   6.334   4.556   1.193  0.4302 -1.9711 -0.3095
 4710TIP3   OH235764   4.366   0.835   7.988  0.4783 -0.1575 -0.0557
 4710TIP3    H135765   4.445   0.881   7.960  0.1721  0.9518  0.8769
 4710TIP3    H235766   4.376   0.824   8.082  0.3719 -1.6939 -0.1999
 4711TIP3   OH235767   0.660   1.976   6.482  0.7214 -0.1647 -0.1313
 4711TIP3    H135768   0.686   1.948   6.394  0.7936 -0.3056 -0.0660
 4711TIP3    H235769   0.732   1.948   6.538  0.6293 -0.1666 -0.0126
 4712TIP3   OH235770   5.500   2.284   0.959 -0.5620  0.4606  0.7636
 4712TIP3    H135771   5.533   2.374   0.950 -1.1649  0.6520  0.4366
 4712TIP3    H235772   5.564   2.230   0.913  0.3416  0.5983  1.8063
 4713TIP3   OH235773   5.296   5.313   0.115  0.8331 -0.2411  0.1470
 4713TIP3    H135774   5.302   5.220   0.137  2.4873 -0.1085  0.4228
 4713TIP3    H235775   5.250   5.315   0.032  0.4662 -1.2770  0.3081
 4714TIP3   OH235776   2.749   1.698   8.324 -0.6795  0.1384 -0.7003
 4714TIP3    H135777   2.660   1.724   8.299 -0.4696  1.9477  0.2343
 4714TIP3    H235778   2.794   1.684   8.241 -1.4474  0.6352 -1.2177
 4715TIP3   OH235779   0.553   3.857   2.653  0.2340 -0.5691  0.7420
 4715TIP3    H135780   0.637   3.831   2.614 -0.5036 -0.8858 -0.7041
 4715TIP3    H235781   0.539   3.794   2.724  1.2518 -0.4515  1.0675
 4716TIP3   OH235782   5.924   6.659   8.122  0.0423  0.1826  0.2490
 4716TIP3    H135783   5.867   6.658   8.045  1.1258  1.9700 -0.6159
 4716TIP3    H235784   5.866   6.683   8.194 -0.7171 -0.1606 -0.2330
 4717TIP3   OH235785   6.524   3.696   8.620 -0.4186  0.2323 -0.3702
 4717TIP3    H135786   6.467   3.764   8.584  0.0434 -0.1760 -1.9643
 4717TIP3    H235787   6.513   3.622   8.561  1.6015  0.0718 -0.5991
 4718TIP3   OH235788   3.535   5.078   6.097  0.3099  0.1841  0.7458
 4718TIP3    H135789   3.593   5.143   6.137 -0.0078  0.1640  1.2563
 4718TIP3    H235790   3.567   4.994   6.131 -0.0500  0.1777  1.0681
 4719TIP3   OH235791   6.541   6.490   0.285  0.0944 -0.1125 -0.1531
 4719TIP3    H135792   6.620   6.517   0.333 -1.0762  0.4056  1.5934
 4719TIP3    H235793   6.514   6.568   0.238  0.7379 -0.3590 -0.9502
 4720TIP3   OH235794   4.000   5.671   7.743  0.0176  0.0318  0.2255
 4720TIP3    H135795   3.918   5.716   7.765  1.3081  2.3043  0.5845
 4720TIP3    H235796   4.009   5.603   7.810 -1.0230  0.4651  0.8320
 4721TIP3   OH235797   6.531   0.116   6.783 -0.1684 -0.4962 -0.0623
 4721TIP3    H135798   6.483   0.193   6.812 -0.2566 -0.7193  0.3873
 4721TIP3    H235799   6.510   0.109   6.690  1.3176  1.0882 -0.5648
 4722TIP3   OH235800   5.155   2.202   6.270 -0.1521  0.2026  1.1119
 4722TIP3    H135801   5.189   2.225   6.183  1.1307  2.5381  2.1106
 4722TIP3    H235802   5.078   2.257   6.280 -0.5957 -0.4448  1.2668
 4723TIP3   OH235803   4.849   5.244   6.766  0.6684  0.0023 -0.3356
 4723TIP3    H135804   4.933   5.261   6.723  1.4700  0.2508  1.2719
 4723TIP3    H235805   4.827   5.154   6.740  2.0086 -0.4882  0.1174
 4724TIP3   OH235806   3.653   2.384   6.928 -0.5851 -0.0534 -0.2429
 4724TIP3    H135807   3.651   2.311   6.867 -1.9640 -0.1809 -0.0659
 4724TIP3    H235808   3.615   2.349   7.009  5.1523 -1.3487  2.4522
 4725TIP3   OH235809   6.180   1.884   8.985  0.1693 -0.1000  0.7211
 4725TIP3    H135810   6.168   1.963   9.038 -0.3339 -0.2592  0.8509
 4725TIP3    H235811   6.273   1.882   8.966  0.1618  0.6264  0.5633
 4726TIP3   OH235812   1.654   3.737   2.447  0.2492  0.2836  0.0803
 4726TIP3    H135813   1.734   3.686   2.429  1.8221  2.2679  1.0147
 4726TIP3    H235814   1.605   3.683   2.508  1.3794 -0.5537  0.2980
 4727TIP3   OH235815   4.194   5.459   7.292 -0.6694  0.1894  0.0942
 4727TIP3    H135816   4.234   5.488   7.210  1.2574 -0.5243  0.7131
 4727TIP3    H235817   4.155   5.538   7.329 -0.3697  0.7999 -0.8689
 4728TIP3   OH235818   6.731   0.106   0.857  0.9166  0.6399  0.2984
 4728TIP3    H135819   6.803   0.042   0.859  1.3773  1.1494  0.4058
 4728TIP3    H235820   6.653   0.056   0.881  0.4319 -0.9098 -3.6880
 4729TIP3   OH235821   6.228   3.200   1.370  0.0267 -0.3540 -0.0419
 4729TIP3    H135822   6.221   3.244   1.285  1.2283 -2.9725 -1.6341
 4729TIP3    H235823   6.322   3.196   1.388 -0.2497  1.9449  2.5346
 4730TIP3   OH235824   5.093   4.491   0.119  0.4669 -0.0222 -0.1670
 4730TIP3    H135825   5.081   4.397   0.112  0.9344 -0.1999  1.0786
 4730TIP3    H235826   5.157   4.513   0.052 -1.4376 -0.1692 -2.1305
 4731TIP3   OH235827   0.393   0.268   7.796 -0.3139  0.5387 -0.4194
 4731TIP3    H135828   0.411   0.360   7.814  1.9582  0.2332 -0.8873
 4731TIP3    H235829   0.314   0.269   7.742  0.1338  2.2691 -1.0933
 4732TIP3   OH235830   6.319   1.416   0.834 -0.1562  0.3493  0.4099
 4732TIP3    H135831   6.305   1.501   0.792  0.4138 -0.3574 -1.3366
 4732TIP3    H235832   6.381   1.433   0.904  0.0819  1.3540 -0.0260
 4733TIP3   OH235833   0.576   2.325   1.973  0.2035  0.0071 -0.0343
 4733TIP3    H135834   0.632   2.248   1.964  2.6397  1.6433  0.1115
 4733TIP3    H235835   0.565   2.336   2.068  2.0209  1.1758  0.1094
 4734TIP3   OH235836   5.551   1.993   1.942 -0.7849  0.7777  0.0869
 4734TIP3    H135837   5.510   1.967   2.024  0.3131 -0.4263  0.2812
 4734TIP3    H235838   5.599   2.073   1.963 -0.2706  0.3172  0.7006
 4735TIP3   OH235839   0.220   2.903   2.218  0.2424 -0.1573 -0.5431
 4735TIP3    H135840   0.275   2.981   2.209  0.5646  0.1772  2.9422
 4735TIP3    H235841   0.137   2.926   2.177  0.0949  2.3375  1.0086
 4736TIP3   OH235842   1.153   1.600   0.479 -0.0626  0.5999 -0.1354
 4736TIP3    H135843   1.222   1.666   0.482 -0.2444  0.8339 -0.9622
 4736TIP3    H235844   1.175   1.546   0.403  0.0709 -0.2862  0.5145
 4737TIP3   OH235845   1.790   0.848   7.290  0.2779 -0.3164 -0.0448
 4737TIP3    H135846   1.755   0.926   7.245 -0.5973  0.0993  1.3133
 4737TIP3    H235847   1.881   0.871   7.310  0.1346  0.2075  0.0161
 4738TIP3   OH235848   5.743   4.743   7.018  0.6923  0.0386  0.3094
 4738TIP3    H135849   5.762   4.771   6.929  0.9192 -0.4723  0.1954
 4738TIP3    H235850   5.693   4.816   7.056 -2.6223 -1.1648 -1.3411
 4739TIP3   OH235851   5.686   0.492   0.560  0.1987 -0.3200  0.2565
 4739TIP3    H135852   5.593   0.499   0.580  0.2176 -1.1733  0.6876
 4739TIP3    H235853   5.712   0.582   0.537 -0.8176 -0.1556 -0.3227
 4740TIP3   OH235854   4.471   6.307   8.714  0.4401  0.2015  0.5001
 4740TIP3    H135855   4.386   6.265   8.697  0.9854 -0.7145 -0.0444
 4740TIP3    H235856   4.464   6.338   8.804 -0.9374  1.2816  0.0660
 4741TIP3   OH235857   6.664   3.139   7.972  0.5707 -0.1480  0.0821
 4741TIP3    H135858   6.750   3.171   7.943 -0.2844  1.8799 -0.4330
 4741TIP3    H235859   6.655   3.174   8.060 -0.4664  1.3104 -0.5613
 4742TIP3   OH235860   6.299   3.823   8.483 -0.2189  0.0144  0.0580
 4742TIP3    H135861   6.323   3.862   8.399  0.4953  0.3601  0.4211
 4742TIP3    H235862   6.209   3.791   8.469 -0.4273  0.8360 -0.5718
 4743TIP3   OH235863   0.286   0.612   0.875 -0.3813 -0.1814 -0.6702
 4743TIP3    H135864   0.203   0.590   0.831 -1.7149  3.0875 -0.0874
 4743TIP3    H235865   0.273   0.583   0.965 -0.9630  0.4125 -0.5542
 4744TIP3   OH235866   5.061   0.221   7.766 -0.6256  0.0780 -0.1953
 4744TIP3    H135867   4.981   0.177   7.795  0.2011 -0.2472  1.7667
 4744TIP3    H235868   5.077   0.288   7.833  0.2870  0.6989 -1.0108
 4745TIP3   OH235869   5.143   1.952   1.711 -0.5769  0.0641 -0.0075
 4745TIP3    H135870   5.076   2.007   1.750 -0.6282  0.1201 -0.1737
 4745TIP3    H235871   5.178   1.900   1.784 -0.9594 -0.1308  0.0384
 4746TIP3   OH235872   2.217   6.176   0.591 -0.3362 -0.1430  0.3453
 4746TIP3    H135873   2.126   6.194   0.570 -0.7790 -0.2560  2.0154
 4746TIP3    H235874   2.231   6.218   0.676  1.2982  0.2352 -0.0722
 4747TIP3   OH235875   2.573   0.750   0.479  0.5424 -0.1992 -0.4688
 4747TIP3    H135876   2.602   0.813   0.545 -0.6540 -0.5332  0.4176
 4747TIP3    H235877   2.646   0.688   0.472  0.9213  0.1647  0.1087
 4748TIP3   OH235878   1.970   1.472   7.485 -0.1731 -0.5584  0.0589
 4748TIP3    H135879   1.922   1.418   7.548 -0.4034  0.4353  0.7760
 4748TIP3    H235880   2.059   1.436   7.486  0.4980  0.8726  2.8308
 4749TIP3   OH235881   1.930   2.437   8.767 -0.4460  0.0204  0.6935
 4749TIP3    H135882   1.855   2.393   8.727 -0.9762 -0.3109  1.9970
 4749TIP3    H235883   1.936   2.399   8.855  1.3861 -0.1100  0.5466
 4750TIP3   OH235884   6.218   2.126   0.117 -0.7690 -0.5719  0.0547
 4750TIP3    H135885   6.266   2.208   0.101 -0.3424 -1.0824 -1.4892
 4750TIP3    H235886   6.178   2.138   0.203  0.7278  0.5517  0.6393
 4751TIP3   OH235887   0.894   0.987   1.648  0.3265 -0.3109 -0.0720
 4751TIP3    H135888   0.820   1.033   1.686 -0.0278  0.6400 -1.8116
 4751TIP3    H235889   0.967   1.004   1.708 -0.0043  1.8384 -0.2290
 4752TIP3   OH235890   2.755   4.229   7.091 -0.3710 -0.1064 -0.2446
 4752TIP3    H135891   2.704   4.175   7.030 -0.5822 -0.0256 -0.1413
 4752TIP3    H235892   2.806   4.287   7.034  2.3942 -2.5883 -0.4908
 4753TIP3   OH235893   2.141   1.396   8.525 -0.3212 -0.3659  0.2121
 4753TIP3    H135894   2.067   1.403   8.586  0.4668  2.8100  0.9894
 4753TIP3    H235895   2.100   1.387   8.439 -1.5079 -2.0018  0.8981
 4754TIP3   OH235896   0.532   0.948   0.049 -0.0969 -0.0541 -0.3855
 4754TIP3    H135897   0.539   0.896   0.129 -1.0895  0.6925  0.2164
 4754TIP3    H235898   0.536   1.039   0.079  1.7331  0.2644 -1.4255
 4755TIP3   OH235899   1.805   3.589   0.808  0.3864 -0.3828 -0.6194
 4755TIP3    H135900   1.716   3.594   0.841 -0.2814  0.3724 -2.4224
 4755TIP3    H235901   1.804   3.640   0.727  2.8769  1.1621  0.1894
 4756TIP3   OH235902   1.335   0.156   2.227 -0.3990 -0.4288  0.1830
 4756TIP3    H135903   1.399   0.121   2.166  2.4659  3.4528  0.5808
 4756TIP3    H235904   1.378   0.150   2.313 -1.5307  0.1928  0.8174
 4757TIP3   OH235905   3.408   5.428   8.408  0.2676 -0.8869  0.2863
 4757TIP3    H135906   3.390   5.497   8.472 -0.4508 -0.0253 -0.7934
 4757TIP3    H235907   3.440   5.475   8.331 -0.8031 -1.6945 -0.6825
 4758TIP3   OH235908   3.985   2.897   6.773  0.3514 -0.0453 -0.4283
 4758TIP3    H135909   4.018   2.860   6.691  1.9396 -0.5151  0.3864
 4758TIP3    H235910   4.049   2.964   6.797 -2.2482  3.1239 -1.6704
 4759TIP3   OH235911   1.511   4.282   0.353  0.2314 -0.5836  0.2485
 4759TIP3    H135912   1.434   4.225   0.357 -0.4752  0.3681  0.8125
 4759TIP3    H235913   1.477   4.369   0.376  1.0519  0.3045 -1.6199
 4760TIP3   OH235914   0.011   4.516   2.298  0.2960  0.2755 -0.0217
 4760TIP3    H135915   0.029   4.595   2.349  0.6156 -0.6927  1.4096
 4760TIP3    H235916   0.085   4.458   2.316  1.0517  0.3077 -2.5454
 4761TIP3   OH235917   3.096   2.019   0.194  0.0127 -0.5102  0.6308
 4761TIP3    H135918   3.044   2.057   0.265 -1.6420 -2.6003  0.6357
 4761TIP3    H235919   3.047   1.941   0.168  1.9735 -1.2704 -1.0031
 4762TIP3   OH235920   1.692   0.146   0.410 -0.0929 -0.2226  0.3819
 4762TIP3    H135921   1.746   0.080   0.453  0.7913 -1.2934 -2.1528
 4762TIP3    H235922   1.639   0.096   0.347  0.9869  1.4083 -2.0052
 4763TIP3   OH235923   5.882   5.519   2.020  0.2131  0.6655  0.7323
 4763TIP3    H135924   5.803   5.574   2.026 -1.9533 -2.0739 -0.6256
 4763TIP3    H235925   5.883   5.470   2.102  1.7409  2.0947  1.6291
 4764TIP3   OH235926   4.019   1.716   0.600 -0.0800 -0.2552 -0.0261
 4764TIP3    H135927   3.969   1.724   0.518  0.5864  0.0131 -0.4133
 4764TIP3    H235928   3.972   1.770   0.663 -0.6068 -0.4759 -0.2277
 4765TIP3   OH235929   0.450   4.004   1.024  0.0536  0.3380  0.0862
 4765TIP3    H135930   0.420   3.965   1.106 -1.6572 -1.1852 -1.1794
 4765TIP3    H235931   0.387   4.073   1.006  0.9007  1.2272  0.4209
 4766TIP3   OH235932   5.312   2.641   2.405 -0.3466  0.1811 -0.4936
 4766TIP3    H135933   5.330   2.691   2.485 -1.4438  0.1817 -0.2171
 4766TIP3    H235934   5.338   2.552   2.427 -2.0084 -0.1292  0.4441
 4767TIP3   OH235935   1.230   1.435   1.776 -0.3595 -0.4246 -0.2208
 4767TIP3    H135936   1.188   1.502   1.721  0.3621  0.9055  0.7751
 4767TIP3    H235937   1.309   1.478   1.808 -0.8229 -1.0800  1.9558
 4768TIP3   OH235938   0.787   0.224   7.437 -0.4032  0.1725  0.0930
 4768TIP3    H135939   0.737   0.282   7.495  0.6053  0.6243  0.5290
 4768TIP3    H235940   0.743   0.140   7.444 -1.7959  0.8236 -0.4152
 4769TIP3   OH235941   3.210   3.002   1.212 -0.6298  0.6445  0.5715
 4769TIP3    H135942   3.146   3.068   1.240 -4.0917 -1.2455 -2.0583
 4769TIP3    H235943   3.257   3.045   1.141 -1.5928  0.9347  0.0806
 4770TIP3   OH235944   2.199   3.528   1.692  0.2855 -0.1146 -0.1682
 4770TIP3    H135945   2.159   3.558   1.774 -0.6812 -3.1501  0.5850
 4770TIP3    H235946   2.291   3.515   1.714  0.5193  1.2553 -0.2507
 4771TIP3   OH235947   0.017   4.016   1.449  0.3066 -0.1756 -0.4391
 4771TIP3    H135948  -0.076   4.005   1.431  0.1961 -0.3579  0.2318
 4771TIP3    H235949   0.059   3.941   1.406 -0.0740 -1.2518  0.9944
 4772TIP3   OH235950   4.400   2.046   6.743 -0.5345 -0.2248 -0.2877
 4772TIP3    H135951   4.483   2.092   6.757  0.0725 -1.0513 -0.9992
 4772TIP3    H235952   4.355   2.049   6.827  0.7810 -0.8266  0.4623
 4773TIP3   OH235953   0.986   0.659   8.573 -0.6642 -0.1794 -0.0480
 4773TIP3    H135954   0.905   0.650   8.624  1.0558 -0.9203  2.7415
 4773TIP3    H235955   1.018   0.747   8.594 -1.0028  0.3891 -1.6988
 4774TIP3   OH235956   5.818   4.065   0.126 -0.3213 -1.0046 -0.4297
 4774TIP3    H135957   5.731   4.104   0.133  0.8140  1.3578  2.6373
 4774TIP3    H235958   5.809   3.979   0.168 -1.1280 -0.6843  0.0887
 4775TIP3   OH235959   5.843   3.342   8.372 -0.1471  0.4110 -0.1732
 4775TIP3    H135960   5.915   3.371   8.317  0.1740 -1.5970 -0.9012
 4775TIP3    H235961   5.812   3.261   8.330 -2.0317  0.5767  0.7961
 4776TIP3   OH235962   1.123   2.924   7.547  0.4629  0.2666 -0.5553
 4776TIP3    H135963   1.124   2.853   7.482 -0.4101  0.5720 -0.9186
 4776TIP3    H235964   1.036   2.919   7.587  0.4507  1.0308 -0.4750
 4777TIP3   OH235965   3.973   6.025   8.568 -0.0740 -0.3646 -0.5119
 4777TIP3    H135966   3.940   5.944   8.527  0.7653 -1.2962  0.5758
 4777TIP3    H235967   3.899   6.057   8.619 -0.4285 -0.4265 -0.9769
 4778TIP3   OH235968   5.415   1.043   0.088  0.1455 -0.2009  0.3069
 4778TIP3    H135969   5.498   1.045   0.136 -0.8956 -3.0340  2.5307
 4778TIP3    H235970   5.349   1.067   0.154 -0.9778  0.2586 -0.9379
 4779TIP3   OH235971   1.684   1.542   8.068  0.0587 -0.0026  0.2732
 4779TIP3    H135972   1.757   1.537   8.129  1.1053  1.5414 -0.7982
 4779TIP3    H235973   1.722   1.574   7.987 -2.0184  2.2819  0.0802
 4780TIP3   OH235974   1.178   5.701   7.035  0.3084 -0.2833 -0.1417
 4780TIP3    H135975   1.154   5.618   6.994 -0.5411 -0.8644  1.4508
 4780TIP3    H235976   1.230   5.675   7.111  0.0573  0.6486  0.3537
 4781TIP3   OH235977   6.241   5.298   0.970  0.1050  0.2794 -0.1340
 4781TIP3    H135978   6.169   5.337   1.020 -1.2045  0.6628 -2.1968
 4781TIP3    H235979   6.320   5.328   1.015 -0.9788  0.1265  2.0010
 4782TIP3   OH235980   1.274   0.009   6.828 -0.1946  0.0595 -0.1567
 4782TIP3    H135981   1.192   0.010   6.778 -0.8479  3.1602  0.7681
 4782TIP3    H235982   1.339   0.042   6.767 -0.5548  1.7024  0.2887
 4783TIP3   OH235983   1.814   5.491   0.953  0.5723  0.6490  0.0062
 4783TIP3    H135984   1.899   5.516   0.916  0.4902  0.7864 -0.0886
 4783TIP3    H235985   1.786   5.567   1.003  1.8841 -0.4073  2.5444
 4784TIP3   OH235986   5.854   0.138   1.486  0.8933  0.0025  0.6529
 4784TIP3    H135987   5.847   0.048   1.454  1.6303  0.0967  0.2131
 4784TIP3    H235988   5.948   0.156   1.487  0.7052  1.9374 -2.5670
 4785TIP3   OH235989   6.381   0.513   0.971 -0.1782 -0.2896 -0.4034
 4785TIP3    H135990   6.409   0.550   0.887  0.4233 -2.4462 -1.2068
 4785TIP3    H235991   6.378   0.419   0.957 -1.8698 -0.5970  1.4972
 4786TIP3   OH235992   6.533   2.556   2.089 -0.0127  0.3909  0.1203
 4786TIP3    H135993   6.604   2.542   2.026  0.5553 -0.1809  0.8643
 4786TIP3    H235994   6.569   2.619   2.152  0.5394 -1.2142  1.5044
 4787TIP3   OH235995   0.258   4.431   1.336  0.1264 -0.1045  0.1714
 4787TIP3    H135996   0.269   4.450   1.429 -0.7076  0.4852  0.1634
 4787TIP3    H235997   0.176   4.474   1.313  0.9232  0.7750 -1.1241
 4788TIP3   OH235998   3.884   4.870   8.825 -0.3144 -0.2214 -0.3273
 4788TIP3    H135999   3.796   4.895   8.855 -0.1447 -0.7529  0.6751
 4788TIP3    H236000   3.880   4.878   8.730 -0.9550  1.3307 -0.1999
 4789TIP3   OH236001   1.794   3.237   0.007 -0.2549  0.5492  0.0753
 4789TIP3    H136002   1.828   3.326   0.019  0.1874  0.4172 -0.1732
 4789TIP3    H236003   1.732   3.226   0.079  0.3231  0.7565  0.6226
 4790TIP3   OH236004   0.136   0.968   2.377 -0.3126  0.3307 -0.4322
 4790TIP3    H136005   0.060   0.921   2.413 -0.1489 -0.8173 -1.5300
 4790TIP3    H236006   0.210   0.934   2.427 -0.2481 -0.2813 -0.9325
 4791TIP3   OH236007   2.855   5.270   8.902 -0.3514 -0.4812 -0.4852
 4791TIP3    H136008   2.816   5.314   8.826  0.5536 -0.0384 -0.7083
 4791TIP3    H236009   2.876   5.340   8.963  3.9238 -0.0315 -2.0809
 4792TIP3   OH236010   6.132   6.059   8.053 -0.3214 -0.2687  0.0745
 4792TIP3    H136011   6.058   6.028   8.001 -0.2821  0.0631 -0.1865
 4792TIP3    H236012   6.099   6.063   8.142 -0.3653 -0.9305  0.0965
 4793TIP3   OH236013   6.139   1.591   8.444  0.1414  0.2467 -0.3409
 4793TIP3    H136014   6.064   1.532   8.443  0.5959 -0.4240  1.5126
 4793TIP3    H236015   6.112   1.664   8.388 -0.9250 -1.0831 -1.6644
 4794TIP3   OH236016   5.345   4.091   0.041 -0.1465 -0.2499  0.5937
 4794TIP3    H136017   5.293   4.089   0.121  1.6660 -2.3426  1.8340
 4794TIP3    H236018   5.390   4.007   0.039 -0.0959 -0.2791 -2.6658
 4795TIP3   OH236019   5.450   5.287   8.841 -0.4010  0.2957 -0.0286
 4795TIP3    H136020   5.436   5.377   8.811  1.0238  0.4697 -0.2708
 4795TIP3    H236021   5.519   5.294   8.907 -0.6484 -0.5590  0.3380
 4796TIP3   OH236022   6.577   6.607   0.989  0.5854 -0.5225  0.1464
 4796TIP3    H136023   6.488   6.584   1.017 -0.6280  2.6740 -0.6575
 4796TIP3    H236024   6.607   6.530   0.940 -2.5494 -1.0421 -1.2405
 4797TIP3   OH236025   0.763   3.805   0.647  0.3694 -0.1992  0.7597
 4797TIP3    H136026   0.805   3.821   0.731  0.3584  0.1580  0.7000
 4797TIP3    H236027   0.834   3.772   0.591  0.3598 -0.5042  0.9285
 4798TIP3   OH236028   3.014   2.727   6.810 -0.0916 -0.1756  0.9374
 4798TIP3    H136029   3.005   2.633   6.826  0.4947 -0.1168  1.6356
 4798TIP3    H236030   3.070   2.732   6.732  0.1346 -0.3948  1.0847
 4799TIP3   OH236031   6.755   3.793   8.458 -0.0913  0.2454  0.1284
 4799TIP3    H136032   6.758   3.832   8.546  0.2534  0.0656  0.2000
 4799TIP3    H236033   6.766   3.699   8.473  2.8088  0.4203 -0.2528
 4800TIP3   OH236034   0.801   3.233   2.217  0.6134  0.4578  0.2018
 4800TIP3    H136035   0.713   3.262   2.195  0.2499  0.7414  1.9128
 4800TIP3    H236036   0.854   3.313   2.212  0.4138  0.6413  0.8975
 4801TIP3   OH236037   2.193   3.156   6.272  0.0618  0.0609  0.1887
 4801TIP3    H136038   2.287   3.162   6.252 -0.1399  0.1147 -0.8066
 4801TIP3    H236039   2.181   3.066   6.302  0.2145 -0.3462 -0.9362
 4802TIP3   OH236040   5.438   6.218   7.697 -0.9883 -0.2777 -0.1890
 4802TIP3    H136041   5.347   6.190   7.706 -0.5873 -1.3013  1.0799
 4802TIP3    H236042   5.433   6.309   7.667 -2.3953 -0.7245 -1.4274
 4803TIP3   OH236043   6.406   0.064   1.980  0.2089 -0.3585  0.3328
 4803TIP3    H136044   6.352   0.125   1.931  0.4671  1.4580  2.1962
 4803TIP3    H236045   6.344  -0.001   2.014 -0.5120  0.5466  0.7638
 4804TIP3   OH236046   2.925   2.689   2.134 -0.0997  0.6439 -0.1586
 4804TIP3    H136047   2.994   2.742   2.173 -1.2492  0.7782  1.8246
 4804TIP3    H236048   2.972   2.626   2.079  1.3967  2.4957 -1.1134
 4805TIP3   OH236049   5.010   2.041   8.937 -0.6239  0.1049 -0.1129
 4805TIP3    H136050   4.961   2.121   8.919  3.1305  2.3615 -1.6553
 4805TIP3    H236051   5.005   1.991   8.856  0.2343  0.7518 -0.5828
 4806TIP3   OH236052   0.776   2.241   0.504  0.5858  0.2355 -0.2523
 4806TIP3    H136053   0.782   2.162   0.450  0.6972  0.9823 -1.3883
 4806TIP3    H236054   0.867   2.264   0.523  0.6246  0.7861 -1.0262
 4807TIP3   OH236055   4.690   5.330   8.465  0.0650 -0.1554  0.3217
 4807TIP3    H136056   4.717   5.403   8.519 -0.7525 -0.2928  0.9374
 4807TIP3    H236057   4.684   5.366   8.376  0.7790  0.2289  0.4285
 4808TIP3   OH236058   4.927   2.911   6.404  0.5629  0.4720  0.5411
 4808TIP3    H136059   4.915   2.959   6.486 -1.5721  0.0104  0.5596
 4808TIP3    H236060   5.001   2.854   6.420  0.6884  0.9800  1.8727
 4809TIP3   OH236061   3.668   3.173   8.245  0.2074  0.6641 -0.5966
 4809TIP3    H136062   3.588   3.220   8.268  0.5571  0.4104  1.3875
 4809TIP3    H236063   3.715   3.165   8.328  1.5238 -0.6148 -1.4158
 4810TIP3   OH236064   5.877   6.498   7.064  0.4282  0.3866 -0.0079
 4810TIP3    H136065   5.841   6.585   7.083  1.2595  1.2317 -1.9631
 4810TIP3    H236066   5.972   6.510   7.067  0.5697 -0.1375 -1.4052
 4811TIP3   OH236067   5.740   5.155   7.571  0.1040  0.0610  0.0824
 4811TIP3    H136068   5.647   5.132   7.563  0.6965 -2.3561 -0.9861
 4811TIP3    H236069   5.743   5.223   7.638 -2.4267  0.1955  0.1526
 4812TIP3   OH236070   3.670   3.705   6.506 -0.0820 -0.2005 -0.0230
 4812TIP3    H136071   3.711   3.770   6.564  0.1133  0.0266 -0.4103
 4812TIP3    H236072   3.670   3.747   6.420 -3.1010  0.7573  0.3130
 4813TIP3   OH236073   6.427   4.896   1.846 -0.0058  0.0779 -0.2493
 4813TIP3    H136074   6.509   4.945   1.846 -0.2834  0.5916 -1.3716
 4813TIP3    H236075   6.451   4.810   1.880  0.5062  0.9412  1.6665
 4814TIP3   OH236076   0.395   3.276   8.853  0.2464  0.5104  0.3585
 4814TIP3    H136077   0.370   3.192   8.814 -0.7630 -0.7142  3.3294
 4814TIP3    H236078   0.491   3.275   8.851  0.2370 -0.3466 -0.3381
 4815TIP3   OH236079   2.027   3.645   7.943  0.1063  0.1778  0.4397
 4815TIP3    H136080   2.110   3.627   7.897 -0.3806  1.2868 -0.9303
 4815TIP3    H236081   2.047   3.721   7.998  0.5467 -0.8378  1.7360
 4816TIP3   OH236082   5.234   6.607   0.100  0.1001 -0.0602 -0.3432
 4816TIP3    H136083   5.264   6.676   0.160  0.1648  1.3216 -1.8755
 4816TIP3    H236084   5.154   6.574   0.139  0.4654  0.3794  0.8140
 4817TIP3   OH236085   4.258   1.875   1.010  0.7296  0.2536 -0.0443
 4817TIP3    H136086   4.267   1.917   1.095 -1.5988 -0.4646  0.6331
 4817TIP3    H236087   4.220   1.942   0.953  1.9219  0.6097 -0.4742
 4818TIP3   OH236088   1.064   1.480   7.581 -0.0011  0.3900  0.2456
 4818TIP3    H136089   0.974   1.448   7.573 -0.2960  1.2417  0.0122
 4818TIP3    H236090   1.092   1.451   7.668 -0.7941  0.7940  0.6512
 4819TIP3   OH236091   6.552   1.481   6.305  0.0943  0.3641  0.4574
 4819TIP3    H136092   6.646   1.476   6.324 -0.2643 -1.4306  2.0460
 4819TIP3    H236093   6.533   1.402   6.255 -0.6422  0.5123  0.4888
 4820TIP3   OH236094   5.279   6.225   8.840  0.2105 -0.1723 -0.4019
 4820TIP3    H136095   5.250   6.254   8.753  1.4819  1.3155 -0.3760
 4820TIP3    H236096   5.213   6.259   8.900  0.5156  0.8204 -0.5972
 4821TIP3   OH236097   1.864   0.434   6.962 -0.3063  0.0219  0.1226
 4821TIP3    H136098   1.850   0.345   6.996 -0.8072  0.5217  1.2726
 4821TIP3    H236099   1.793   0.447   6.898  0.9514 -1.1198 -1.6127
 4822TIP3   OH236100   0.314   5.018   0.744  0.0409 -0.2278  0.0353
 4822TIP3    H136101   0.321   4.929   0.778  0.4286 -0.1400  0.1826
 4822TIP3    H236102   0.219   5.035   0.742  0.0113 -0.1972  1.1693
 4823TIP3   OH236103   4.130   2.696   1.611  0.1543 -0.1083 -0.5734
 4823TIP3    H136104   4.090   2.644   1.541  0.1597  0.3201 -0.9018
 4823TIP3    H236105   4.213   2.652   1.629 -0.0211 -0.4417 -0.5657
 4824TIP3   OH236106   0.910   1.897   8.260 -0.1429 -0.2973 -0.1200
 4824TIP3    H136107   0.931   1.886   8.353  0.3764  1.0223 -0.0569
 4824TIP3    H236108   0.963   1.972   8.232 -2.6063  1.3650 -0.6948
 4825TIP3   OH236109   2.771   2.474   1.832  0.1432 -0.6947  0.3195
 4825TIP3    H136110   2.825   2.452   1.908  1.3660  0.0197 -0.3232
 4825TIP3    H236111   2.692   2.512   1.870  1.0151  0.2624  1.2343
 4826TIP3   OH236112   3.578   4.397   0.971 -0.3125 -0.5081  0.0170
 4826TIP3    H136113   3.635   4.333   0.929 -0.0940  0.1976 -0.8010
 4826TIP3    H236114   3.638   4.460   1.011 -0.4880  0.1102 -0.6521
 4827TIP3   OH236115   0.412   1.157   0.681  0.5685 -0.7988 -0.8687
 4827TIP3    H136116   0.507   1.157   0.669  0.6292  0.0206 -0.4119
 4827TIP3    H236117   0.398   1.119   0.768  0.5383 -0.0159 -0.5263
 4828TIP3   OH236118   3.198   0.114   0.571 -0.3315  0.4847 -0.3728
 4828TIP3    H136119   3.134   0.133   0.502 -0.0348 -0.3735 -0.9138
 4828TIP3    H236120   3.149   0.122   0.652 -0.8805  0.7878 -0.7254
 4829TIP3   OH236121   2.511   3.557   1.722  0.2534 -0.1197  0.1475
 4829TIP3    H136122   2.550   3.630   1.674 -0.0099  0.2192  0.4422
 4829TIP3    H236123   2.508   3.587   1.813  0.2365 -0.5375  0.2863
 4830TIP3   OH236124   6.627   1.570   8.537 -0.3160  0.6019  0.2517
 4830TIP3    H136125   6.702   1.628   8.522 -0.9683  0.9936 -1.8711
 4830TIP3    H236126   6.555   1.610   8.489 -1.0007 -1.5089 -0.6204
 4831TIP3   OH236127   0.600   5.900   1.848  0.4282  0.3725 -0.1848
 4831TIP3    H136128   0.686   5.887   1.809  0.0063  0.0589 -1.0472
 4831TIP3    H236129   0.609   5.980   1.899  1.1475  0.5154 -0.5181
 4832TIP3   OH236130   3.040   3.734   7.244 -0.3439 -0.3561  0.5382
 4832TIP3    H136131   3.055   3.826   7.224 -2.1007 -0.3589 -1.0254
 4832TIP3    H236132   3.127   3.700   7.265  0.3050  1.6910  1.4286
 4833TIP3   OH236133   3.300   0.640   8.105  0.1357  0.2378 -0.2949
 4833TIP3    H136134   3.349   0.586   8.043  0.1205  0.8892 -0.8805
 4833TIP3    H236135   3.360   0.651   8.179  0.5544  0.3277 -0.6426
 4834TIP3   OH236136   5.409   1.452   7.518 -0.0561  0.1122 -0.5957
 4834TIP3    H136137   5.360   1.379   7.480  1.2750 -1.8849  1.1978
 4834TIP3    H236138   5.498   1.442   7.483  0.3009  0.4530  0.1844
 4835TIP3   OH236139   6.368   5.644   8.876  0.1190 -0.0284 -0.3402
 4835TIP3    H136140   6.281   5.632   8.913 -0.1347  1.3899 -0.4052
 4835TIP3    H236141   6.403   5.555   8.866 -0.6162 -0.5517  1.3401
 4836TIP3   OH236142   5.094   0.689   7.892 -0.1226 -0.1591 -0.3346
 4836TIP3    H136143   5.037   0.739   7.951 -0.8570 -1.0083 -0.2886
 4836TIP3    H236144   5.066   0.598   7.905 -1.1243 -0.2838 -2.8305
 4837TIP3   OH236145   2.356   4.645   2.013 -0.1187  0.2771 -0.5681
 4837TIP3    H136146   2.295   4.701   2.061 -1.8789 -0.4058 -1.8867
 4837TIP3    H236147   2.300   4.580   1.970  1.7128 -1.4544 -0.4602
 4838TIP3   OH236148   4.242   5.198   1.058 -0.3055 -0.4060 -0.7827
 4838TIP3    H136149   4.156   5.181   1.098  0.1312  0.0499  0.3907
 4838TIP3    H236150   4.227   5.274   1.002 -0.4856  0.2670  0.1370
 4839TIP3   OH236151   6.727   2.114   0.542 -0.1859 -0.0519 -0.2693
 4839TIP3    H136152   6.795   2.148   0.483  0.8563 -0.0548  0.8869
 4839TIP3    H236153   6.667   2.188   0.555  1.2090  0.9279  0.9923
 4840TIP3   OH236154   2.581   3.322   7.236 -0.6969  0.6704 -0.9505
 4840TIP3    H136155   2.508   3.261   7.235 -0.0040 -0.1805 -0.6734
 4840TIP3    H236156   2.648   3.280   7.290  0.3114  1.0606 -1.8418
 4841TIP3   OH236157   3.282   3.202   6.467 -0.0303  0.6175  0.4308
 4841TIP3    H136158   3.328   3.166   6.543  0.4161 -0.4993 -0.3427
 4841TIP3    H236159   3.351   3.234   6.409 -0.0225 -2.0468 -1.2321
 4842TIP3   OH236160   1.875   2.595   1.145  0.4774 -0.1190 -0.6391
 4842TIP3    H136161   1.797   2.566   1.193  0.6681 -1.2734 -0.9951
 4842TIP3    H236162   1.946   2.544   1.183  0.7881 -0.3098 -1.4649
 4843TIP3   OH236163   2.939   0.808   8.293 -0.1296  0.7200  0.5798
 4843TIP3    H136164   3.020   0.780   8.336 -0.8479 -0.8401  0.9663
 4843TIP3    H236165   2.954   0.793   8.200 -0.3838 -0.6958  0.7534
 4844TIP3   OH236166   4.601   0.477   7.525  0.2954  0.0527  0.0302
 4844TIP3    H136167   4.679   0.451   7.573  0.9220  2.9905  0.7681
 4844TIP3    H236168   4.625   0.465   7.433  2.1520  2.0991  0.1812
 4845TIP3   OH236169   5.782   6.607   7.877  0.5421 -0.4366  0.5024
 4845TIP3    H136170   5.748   6.559   7.801  2.5327  1.2524 -1.5672
 4845TIP3    H236171   5.706   6.653   7.912 -0.6569 -2.1938  0.3625
 4846TIP3   OH236172   1.978   4.604   0.490 -0.3961  1.1145 -0.4145
 4846TIP3    H136173   1.984   4.696   0.515  1.0383  0.5536  1.6125
 4846TIP3    H236174   2.062   4.585   0.449 -0.9314  0.8416 -1.4149
 4847TIP3   OH236175   1.359   0.208   8.833  0.2181 -0.0713  0.7366
 4847TIP3    H136176   1.276   0.253   8.846  0.5260  0.1663  1.9690
 4847TIP3    H236177   1.363   0.191   8.738  0.3510  2.9891  0.0952
 4848TIP3   OH236178   4.691   1.776   6.870  0.5603  0.2410  0.0503
 4848TIP3    H136179   4.701   1.838   6.798 -0.5036  1.6072  1.0171
 4848TIP3    H236180   4.779   1.771   6.909  1.3473 -1.1140 -1.7329
 4849TIP3   OH236181   4.992   0.995   7.407  0.3806  0.4359 -0.1692
 4849TIP3    H136182   5.013   1.019   7.317  0.9997  0.7895  0.0619
 4849TIP3    H236183   4.957   0.907   7.401 -0.5608  0.8417 -0.8746
 4850TIP3   OH236184   0.178   6.731   0.857  0.4056  0.5374  0.0958
 4850TIP3    H136185   0.236   6.784   0.912 -0.2823  1.3462  0.0686
 4850TIP3    H236186   0.237   6.671   0.811  1.1778  1.0794  0.3557
 4851TIP3   OH236187   5.572   4.959   8.614 -0.6982  0.4629 -0.1235
 4851TIP3    H136188   5.514   4.957   8.538 -1.0847 -0.3136  0.1846
 4851TIP3    H236189   5.514   4.947   8.689 -0.1292 -0.6074  0.1677
 4852TIP3   OH236190   1.197   3.123   1.350 -0.2666  0.3054 -0.5131
 4852TIP3    H136191   1.214   3.208   1.392 -0.0444  0.6452 -1.2734
 4852TIP3    H236192   1.274   3.108   1.295  0.0501 -0.7522  0.1751
 4853TIP3   OH236193   4.403   5.068   1.826  0.1612 -0.2335  0.6895
 4853TIP3    H136194   4.487   5.111   1.844  0.0155 -0.6800  2.6091
 4853TIP3    H236195   4.416   4.977   1.854  0.3056 -1.4615 -2.8226
 4854TIP3   OH236196   6.492   6.123   8.143  0.4894 -0.5769  0.0247
 4854TIP3    H136197   6.515   6.031   8.130  0.0386 -0.6074 -0.5574
 4854TIP3    H236198   6.454   6.126   8.231  0.0442 -1.0326 -0.1486
 4855TIP3   OH236199   2.086   4.882   0.335  0.1633 -0.9932  0.2944
 4855TIP3    H136200   2.175   4.889   0.368 -0.2098  0.7614  1.0069
 4855TIP3    H236201   2.088   4.804   0.278  1.8382 -1.6464  1.1748
 4856TIP3   OH236202   6.103   0.669   1.830 -0.1134 -0.1752  0.5190
 4856TIP3    H136203   6.076   0.579   1.845  0.9263 -0.6738 -0.5090
 4856TIP3    H236204   6.081   0.714   1.912 -4.6776 -0.3006 -0.3832
 4857TIP3   OH236205   4.326   4.142   0.321  0.0711 -0.4595 -0.1337
 4857TIP3    H136206   4.355   4.190   0.243 -0.9199 -1.8839 -1.4430
 4857TIP3    H236207   4.379   4.063   0.322  0.3137 -0.2974  0.8570
 4858TIP3   OH236208   3.742   2.344   7.284  0.0641 -0.3577  0.3007
 4858TIP3    H136209   3.683   2.334   7.359 -0.5395 -2.7079 -0.3864
 4858TIP3    H236210   3.734   2.261   7.237  1.2853  0.6241 -1.7562
 4859TIP3   OH236211   1.184   5.726   1.385  0.3670  0.1553 -0.3167
 4859TIP3    H136212   1.261   5.674   1.361  0.4293 -0.4866  1.1784
 4859TIP3    H236213   1.162   5.697   1.473 -0.0410  2.1703  0.3032
 4860TIP3   OH236214   6.159   2.990   8.100  0.1247 -0.0584 -0.0275
 4860TIP3    H136215   6.227   3.006   8.164  2.3193 -2.5490 -1.5413
 4860TIP3    H236216   6.202   3.002   8.015 -1.2806 -1.7614 -1.0480
 4861TIP3   OH236217   3.556   4.235   0.512 -0.0684 -0.4590  0.2566
 4861TIP3    H136218   3.527   4.306   0.454  0.9930  0.1944  0.5019
 4861TIP3    H236219   3.575   4.163   0.453  0.4134 -0.0003 -0.1575
 4862TIP3   OH236220   4.144   0.876   1.381  0.0722 -0.3579 -0.0779
 4862TIP3    H136221   4.162   0.916   1.466 -0.3893 -1.5705  0.6261
 4862TIP3    H236222   4.082   0.805   1.401  0.8289 -1.3964 -1.2588
 4863TIP3   OH236223   5.181   5.671   0.171  0.4056 -0.5126  0.5333
 4863TIP3    H136224   5.259   5.623   0.197 -1.0158 -2.8713  0.7822
 4863TIP3    H236225   5.138   5.693   0.253 -0.2179 -1.1021  0.3755
 4864TIP3   OH236226   4.633   5.892   7.115 -0.4713  0.1721 -0.4524
 4864TIP3    H136227   4.573   5.906   7.042  0.5152 -0.2055 -1.3603
 4864TIP3    H236228   4.719   5.918   7.081 -0.0004  0.0221  0.5854
 4865TIP3   OH236229   6.123   5.890   0.138  0.1948 -0.3148  0.4852
 4865TIP3    H136230   6.179   5.965   0.114 -1.8994  0.6803 -1.7111
 4865TIP3    H236231   6.101   5.906   0.229  2.2580  0.0373  0.9867
 4866TIP3   OH236232   5.268   3.989   1.022 -0.0744  0.4030 -0.0335
 4866TIP3    H136233   5.257   4.042   0.943 -1.0189 -0.0674 -0.2348
 4866TIP3    H236234   5.319   4.045   1.081 -2.0080  2.0617  0.2147
 4867TIP3   OH236235   4.415   4.429   6.458 -0.0503 -0.1604  0.2156
 4867TIP3    H136236   4.488   4.367   6.447  0.0321  0.3195 -3.0919
 4867TIP3    H236237   4.455   4.506   6.497  0.5373 -1.0037  1.3355
 4868TIP3   OH236238   5.354   2.018   6.342 -0.1875 -0.3347 -0.7048
 4868TIP3    H136239   5.313   1.935   6.319 -0.2319 -0.4711 -0.1381
 4868TIP3    H236240   5.283   2.082   6.340 -0.1924 -0.3471 -0.9349
 4869TIP3   OH236241   6.396   6.270   7.476  0.5314 -0.7380  0.1213
 4869TIP3    H136242   6.366   6.243   7.389 -1.1075  0.1161  0.3728
 4869TIP3    H236243   6.409   6.188   7.524 -0.7347 -1.1823 -0.2595
 4870TIP3   OH236244   5.557   0.253   0.210  0.3907 -0.0812  0.7543
 4870TIP3    H136245   5.636   0.270   0.262  0.5780 -0.4639  0.5924
 4870TIP3    H236246   5.587   0.196   0.140 -0.3180 -1.3907  1.4968
 4871TIP3   OH236247   2.115   1.912   8.582  0.2171  0.0503 -0.2497
 4871TIP3    H136248   2.176   1.984   8.565  0.7258 -0.6414 -1.4851
 4871TIP3    H236249   2.037   1.954   8.618 -0.1120  1.4344 -2.3844
 4872TIP3   OH236250   0.942   1.345   0.900 -0.2402 -0.3200  0.3368
 4872TIP3    H136251   0.936   1.251   0.883 -1.3038 -0.4008  1.0849
 4872TIP3    H236252   0.929   1.386   0.815  1.7044 -0.8606 -0.2762
 4873TIP3   OH236253   5.993   3.355   8.140  0.0017 -0.3066 -0.8709
 4873TIP3    H136254   6.014   3.404   8.061  0.4388 -1.4821 -1.5194
 4873TIP3    H236255   5.929   3.289   8.111  1.1189 -1.5808 -0.5562
 4874TIP3   OH236256   2.704   6.295   6.070 -0.1681 -0.1669 -0.1569
 4874TIP3    H136257   2.774   6.230   6.061 -0.5305 -0.9653  2.1392
 4874TIP3    H236258   2.746   6.370   6.113  0.2913  1.3280 -2.9456
 4875TIP3   OH236259   0.864   3.592   6.978 -0.0120  0.0006 -0.5281
 4875TIP3    H136260   0.913   3.623   6.902  1.3956  0.5825  0.5756
 4875TIP3    H236261   0.790   3.544   6.940  0.7960  0.0229 -2.2555
 4876TIP3   OH236262   1.899   1.045   7.733  0.1206  0.3699  0.0425
 4876TIP3    H136263   1.865   0.956   7.744  2.7635 -0.7440  0.1137
 4876TIP3    H236264   1.842   1.100   7.787 -1.3711 -1.3146  0.2705
 4877TIP3   OH236265   1.184   1.952   7.611 -0.2260  0.4132 -0.1214
 4877TIP3    H136266   1.093   1.968   7.636 -0.2660 -0.2345  0.1849
 4877TIP3    H236267   1.235   1.979   7.687 -0.1858  0.5069 -0.1820
 4878TIP3   OH236268   3.181   4.653   1.104 -0.1371 -0.1841  0.0412
 4878TIP3    H136269   3.118   4.609   1.161  1.0615 -2.8045 -0.4794
 4878TIP3    H236270   3.223   4.719   1.159 -0.9302 -0.7513  1.3565
 4879TIP3   OH236271   5.004   5.558   1.731  0.2111  0.2896  0.1144
 4879TIP3    H136272   4.995   5.475   1.778  2.9510 -0.1876 -0.0579
 4879TIP3    H236273   5.098   5.576   1.732 -0.1434  2.5704 -1.2870
 4880TIP3   OH236274   4.524   3.604   1.828 -0.3183 -0.2409  0.0243
 4880TIP3    H136275   4.504   3.697   1.841 -0.0848 -0.2637  0.5304
 4880TIP3    H236276   4.589   3.603   1.757 -0.8307 -0.0649 -0.4600
 4881TIP3   OH236277   3.490   2.610   1.318 -0.5540 -0.1632  0.4582
 4881TIP3    H136278   3.570   2.608   1.266 -0.9959  0.1105 -0.2413
 4881TIP3    H236279   3.521   2.619   1.409  0.2468 -1.5444  0.3516
 4882TIP3   OH236280   5.167   5.282   8.816  0.8504  0.5077  0.5409
 4882TIP3    H136281   5.139   5.262   8.727  1.2011  0.9833  0.3181
 4882TIP3    H236282   5.251   5.237   8.826  0.5107 -0.0695  0.8549
 4883TIP3   OH236283   2.034   3.691   0.968  0.3228 -0.0514  0.4786
 4883TIP3    H136284   1.957   3.658   0.922  1.0105 -2.0642  0.6369
 4883TIP3    H236285   2.007   3.696   1.060  0.1672 -0.0802  0.4337
 4884TIP3   OH236286   2.065   5.894   7.412  0.2037  0.1188  0.1198
 4884TIP3    H136287   2.007   5.954   7.365 -0.0499  1.1801  1.6903
 4884TIP3    H236288   2.153   5.918   7.381 -0.1278 -2.5705 -3.4700
 4885TIP3   OH236289   5.692   3.417   1.060 -0.2742  0.2247 -0.1711
 4885TIP3    H136290   5.731   3.482   1.119 -0.2861  1.6585 -1.6918
 4885TIP3    H236291   5.598   3.428   1.071 -0.2868 -0.3579  0.4064
 4886TIP3   OH236292   2.055   1.725   7.128 -0.1916 -0.3778 -0.0742
 4886TIP3    H136293   2.066   1.656   7.063 -1.6733 -0.8401  0.1291
 4886TIP3    H236294   2.079   1.805   7.082  0.4612 -0.8827 -0.6487
 4887TIP3   OH236295   5.385   5.526   0.275 -0.3739  0.3442 -0.4049
 4887TIP3    H136296   5.473   5.537   0.239  0.1638 -1.9930 -0.0005
 4887TIP3    H236297   5.352   5.446   0.233 -2.3348  1.1999 -0.5625
 4888TIP3   OH236298   4.990   5.883   6.408 -0.0760  0.2396  0.3045
 4888TIP3    H136299   4.954   5.964   6.443  0.8542  0.6975  0.2365
 4888TIP3    H236300   5.047   5.849   6.477 -0.6836 -0.5327  0.4526
 4889TIP3   OH236301   4.144   2.584   8.653  0.0816 -0.2249 -0.0737
 4889TIP3    H136302   4.054   2.592   8.623  0.1376 -0.8894 -0.4304
 4889TIP3    H236303   4.140   2.518   8.722  0.1293  0.5141  0.6557
 4890TIP3   OH236304   5.177   2.603   8.755 -0.6101 -0.5399  0.4995
 4890TIP3    H136305   5.271   2.585   8.759 -0.3100  0.5904 -0.8293
 4890TIP3    H236306   5.139   2.544   8.820  0.9809 -1.2175  0.8670
 4891TIP3   OH236307   4.120   5.616   6.934  0.2887 -0.0465  0.0263
 4891TIP3    H136308   4.116   5.630   6.840 -0.1688  0.2373  0.0837
 4891TIP3    H236309   4.208   5.581   6.950  1.0831  1.7506 -0.2415
 4892TIP3   OH236310   6.693   2.173   7.950  0.5672  0.0043  0.5113
 4892TIP3    H136311   6.736   2.167   8.035 -1.5553  2.0165  1.8699
 4892TIP3    H236312   6.599   2.168   7.970 -0.0009 -2.1158 -2.0424
 4893TIP3   OH236313   4.832   2.273   1.979  0.2451 -0.0429  0.0289
 4893TIP3    H136314   4.841   2.338   1.909  3.5624  0.5284  0.8194
 4893TIP3    H236315   4.820   2.324   2.059 -0.2239 -0.5683  0.3071
 4894TIP3   OH236316   6.384   1.294   6.164  0.0969 -0.3081 -0.1309
 4894TIP3    H136317   6.438   1.217   6.183  0.0161 -0.4510 -0.4636
 4894TIP3    H236318   6.297   1.258   6.146 -0.9343  0.0943  3.2770
 4895TIP3   OH236319   1.827   6.778   0.032  0.1079 -0.3072 -0.1650
 4895TIP3    H136320   1.779   6.744   0.108  0.4304 -1.6420 -0.5290
 4895TIP3    H236321   1.759   6.808  -0.028 -0.1667  0.2486  0.4114
 4896TIP3   OH236322   0.111   3.170   1.624 -0.3061  0.1578 -0.2253
 4896TIP3    H136323   0.118   3.195   1.532  0.7669 -0.3761 -0.3067
 4896TIP3    H236324   0.121   3.253   1.671  1.5064  0.1638 -0.5436
 4897TIP3   OH236325   2.684   5.645   6.277 -0.4884  0.0387 -0.3054
 4897TIP3    H136326   2.773   5.626   6.247 -0.8229  0.5113 -1.6414
 4897TIP3    H236327   2.690   5.640   6.372  0.9598  0.0341 -0.3712
 4898TIP3   OH236328   4.093   5.002   2.433 -0.1450 -0.2992 -0.5646
 4898TIP3    H136329   3.997   4.997   2.434 -0.1831  0.4656 -0.4379
 4898TIP3    H236330   4.121   4.911   2.421 -0.8469 -0.7826  1.2376
 4899TIP3   OH236331   3.192   3.834   6.946 -0.2067  0.1031 -0.4233
 4899TIP3    H136332   3.127   3.765   6.948 -0.1479  0.0299 -1.0571
 4899TIP3    H236333   3.142   3.915   6.956 -0.2379 -0.0420  0.7606
 4900TIP3   OH236334   1.439   4.496   8.359 -0.7262 -0.3140  0.5080
 4900TIP3    H136335   1.423   4.406   8.330 -1.1481  0.3989 -1.7193
 4900TIP3    H236336   1.532   4.498   8.382 -1.3373 -2.0148  3.6716
 4901TIP3   OH236337   3.025   1.519   0.284 -0.1001  0.0410  0.1415
 4901TIP3    H136338   3.075   1.439   0.268 -0.3978 -0.1235  0.0167
 4901TIP3    H236339   2.950   1.512   0.224 -0.4448  0.1250  0.5597
 4902TIP3   OH236340   1.641   1.892   0.450  0.0522 -0.3891  0.2930
 4902TIP3    H136341   1.676   1.805   0.432 -0.8159 -1.5772  3.6194
 4902TIP3    H236342   1.670   1.945   0.376  0.7934 -3.4148 -1.7770
 4903TIP3   OH236343   4.765   2.909   1.528  1.2190 -0.5431  0.0027
 4903TIP3    H136344   4.670   2.899   1.520  1.3222 -1.1096 -0.6254
 4903TIP3    H236345   4.777   2.979   1.592  0.3756 -0.0106 -0.4110
 4904TIP3   OH236346   6.724   3.010   7.542  0.1734 -0.4891 -0.0645
 4904TIP3    H136347   6.675   2.983   7.620  0.7029  0.5621  0.6538
 4904TIP3    H236348   6.763   2.929   7.509 -1.0180 -1.1359  0.0617
 4905TIP3   OH236349   4.732   0.689   7.287  0.4687 -0.3704  0.2973
 4905TIP3    H136350   4.774   0.603   7.279  1.7785  0.1950  0.8212
 4905TIP3    H236351   4.685   0.701   7.205  2.2548 -0.5641 -0.8033
 4906TIP3   OH236352   6.593   3.641   0.825  0.5115 -1.1182 -0.0846
 4906TIP3    H136353   6.672   3.589   0.839  0.0092 -1.3351  2.4391
 4906TIP3    H236354   6.568   3.624   0.734  1.1373 -4.1724  0.2286
 4907TIP3   OH236355   0.151   0.145   2.420  0.3446  0.1378  0.5659
 4907TIP3    H136356   0.246   0.147   2.412  0.3262 -1.5072 -0.5745
 4907TIP3    H236357   0.134   0.075   2.483 -0.1181 -0.7768 -0.5265
 4908TIP3   OH236358   3.965   3.031   8.698  0.1480 -0.1019 -0.4453
 4908TIP3    H136359   3.948   3.125   8.709  0.4908 -0.1111  0.1871
 4908TIP3    H236360   4.043   3.028   8.644  1.1047  0.0132  0.8833
 4909TIP3   OH236361   4.665   1.232   8.482 -0.0594  0.1427 -0.3749
 4909TIP3    H136362   4.692   1.166   8.546  1.3125 -0.4105 -1.4740
 4909TIP3    H236363   4.589   1.194   8.438 -1.0878  0.5753  0.9438
 4910TIP3   OH236364   1.695   3.792   8.636  0.8296 -0.5399 -0.3318
 4910TIP3    H136365   1.751   3.867   8.654 -0.2258  0.1276  0.2864
 4910TIP3    H236366   1.690   3.745   8.720  0.7342 -0.7762 -0.4677
 4911TIP3   OH236367   4.761   1.206   7.350  0.1502  0.1812 -0.1133
 4911TIP3    H136368   4.801   1.152   7.418  0.8052  0.3308 -0.3744
 4911TIP3    H236369   4.759   1.294   7.387  1.0130  0.3706 -0.4801
 4912TIP3   OH236370   2.337   3.399   6.474  0.2362 -0.1702 -0.2496
 4912TIP3    H136371   2.273   3.400   6.545 -1.2943 -0.7113 -1.5599
 4912TIP3    H236372   2.379   3.485   6.479 -0.2703  0.0305  0.9176
 4913TIP3   OH236373   5.933   3.043   1.054 -0.8307 -0.0719  0.3218
 4913TIP3    H136374   5.907   3.129   1.089 -1.0880  0.5773 -1.3771
 4913TIP3    H236375   5.851   2.996   1.043 -0.9183  0.3354 -0.8922
 4914TIP3   OH236376   0.385   4.135   1.926 -0.0918  0.1316 -0.0378
 4914TIP3    H136377   0.370   4.220   1.884  1.3871  0.9127  0.9434
 4914TIP3    H236378   0.450   4.092   1.871  0.6130  0.4632  0.5255
 4915TIP3   OH236379   4.012   4.289   1.988  0.0918 -0.3293 -1.0269
 4915TIP3    H136380   4.034   4.208   1.942  1.4327 -0.4308 -0.2519
 4915TIP3    H236381   4.003   4.263   2.080 -0.0587  0.3118 -0.8549
 4916TIP3   OH236382   3.689   6.336   1.073 -0.1449 -0.3954 -0.2665
 4916TIP3    H136383   3.655   6.307   1.158 -0.5344  0.7178 -0.0214
 4916TIP3    H236384   3.773   6.378   1.094 -0.2413 -0.1173 -0.4205
 4917TIP3   OH236385   0.192   6.411   0.896  0.1204  0.2828 -0.0510
 4917TIP3    H136386   0.194   6.492   0.946 -3.0294  0.4024  0.1038
 4917TIP3    H236387   0.259   6.355   0.936  0.0271  1.5941  2.0493
 4918TIP3   OH236388   6.467   3.278   7.868 -0.1023  0.0905 -0.1511
 4918TIP3    H136389   6.469   3.258   7.775  0.0762 -0.0228 -0.1223
 4918TIP3    H236390   6.521   3.211   7.909  0.3957  0.5484 -0.0444
 4919TIP3   OH236391   5.552   0.682   1.660  0.5039  0.0742 -0.2907
 4919TIP3    H136392   5.508   0.612   1.708  2.7712 -0.4177  1.1997
 4919TIP3    H236393   5.623   0.638   1.613  1.1317  1.1909 -0.4231
 4920TIP3   OH236394   1.368   3.324   8.987  0.3499  0.4290  0.7931
 4920TIP3    H136395   1.417   3.249   9.020  0.3082  1.1422  2.5803
 4920TIP3    H236396   1.426   3.364   8.923  0.6858 -0.6836  0.3809
 4921TIP3   OH236397   1.903   6.708   7.898 -0.4850  0.1407 -0.1511
 4921TIP3    H136398   1.988   6.744   7.872 -0.7019  1.0322  0.3241
 4921TIP3    H236399   1.888   6.635   7.838  1.0304 -0.6212  0.3547
 4922TIP3   OH236400   0.977   5.938   1.545 -0.3772 -0.1144 -0.4822
 4922TIP3    H136401   0.992   6.032   1.533  0.8908 -0.1821  0.3095
 4922TIP3    H236402   0.996   5.900   1.459  1.6694  0.1218 -0.1990
 4923TIP3   OH236403   6.629   5.497   6.781 -0.2702 -0.1346  0.1016
 4923TIP3    H136404   6.708   5.444   6.777 -0.4295 -0.3054 -1.3019
 4923TIP3    H236405   6.610   5.518   6.689 -1.4685  0.4707  0.4731
 4924TIP3   OH236406   3.932   2.749   7.255 -0.0647 -0.5809  0.0383
 4924TIP3    H136407   3.894   2.698   7.183  0.4796 -1.0922  0.1073
 4924TIP3    H236408   4.013   2.703   7.276  2.3761  2.2488 -2.3069
 4925TIP3   OH236409   6.690   5.197   0.993 -0.0728  0.3528  0.1359
 4925TIP3    H136410   6.668   5.286   1.020 -1.3615 -0.1437  0.7656
 4925TIP3    H236411   6.725   5.207   0.905 -0.7928  1.4161 -0.0433
 4926TIP3   OH236412   5.148   1.348   8.561  0.1112 -0.2622 -0.3225
 4926TIP3    H136413   5.153   1.260   8.523  0.3609 -0.7521  0.7891
 4926TIP3    H236414   5.059   1.377   8.544 -0.9727 -1.9972  1.9080
 4927TIP3   OH236415   5.435   6.383   7.284  0.4802 -0.3121 -0.2776
 4927TIP3    H136416   5.453   6.468   7.243 -1.2149  0.2498  0.0700
 4927TIP3    H236417   5.344   6.364   7.261  0.1897 -1.0619  1.3513
 4928TIP3   OH236418   2.865   4.416   8.221 -0.0994  0.3680  0.4732
 4928TIP3    H136419   2.912   4.362   8.285  1.2229 -0.5797 -1.1934
 4928TIP3    H236420   2.817   4.353   8.167  0.2829  0.9543 -0.5889
 4929TIP3   OH236421   6.215   3.688   8.184 -0.3438 -0.4483 -0.5645
 4929TIP3    H136422   6.281   3.717   8.122 -0.3882  1.6678  0.3090
 4929TIP3    H236423   6.140   3.746   8.170 -0.5694 -0.2903  1.0350
 4930TIP3   OH236424   2.227   6.151   7.701 -0.6057  0.6055  0.2105
 4930TIP3    H136425   2.223   6.065   7.742  0.7006 -0.0322 -0.9088
 4930TIP3    H236426   2.143   6.191   7.720 -1.3059 -0.9926  0.6127
 4931TIP3   OH236427   2.125   5.132   7.384 -0.5020 -0.3050  0.1559
 4931TIP3    H136428   2.156   5.086   7.306 -2.3166 -1.3043 -0.0351
 4931TIP3    H236429   2.043   5.089   7.406 -1.7979  2.1948  0.5948
 4932TIP3   OH236430   2.022   1.304   8.264 -0.2759  0.5002 -0.5272
 4932TIP3    H136431   1.967   1.230   8.290  1.1046 -0.8256 -1.1960
 4932TIP3    H236432   2.020   1.302   8.168 -0.0204  1.1968 -0.5515
 4933TIP3   OH236433   2.198   0.389   2.255 -0.1931 -0.4147 -0.2532
 4933TIP3    H136434   2.291   0.401   2.274  0.1831 -1.2570 -1.4517
 4933TIP3    H236435   2.195   0.372   2.161 -1.6035 -0.0725 -0.2877
 4934TIP3   OH236436   0.776   0.930   7.031  0.5537  1.1911 -0.0786
 4934TIP3    H136437   0.813   0.878   7.102  0.9195 -0.1229 -1.1769
 4934TIP3    H236438   0.837   1.003   7.021  2.4340 -0.3921 -1.1868
 4935TIP3   OH236439   5.736   2.868   0.485 -0.2230 -0.3866 -0.2131
 4935TIP3    H136440   5.668   2.936   0.486  0.1027 -0.0375  1.2438
 4935TIP3    H236441   5.796   2.896   0.415 -2.0322 -1.2362 -2.2127
 4936TIP3   OH236442   4.362   6.675   1.610 -0.4678  0.8367  0.0041
 4936TIP3    H136443   4.387   6.629   1.531 -0.6573  1.6547 -0.5458
 4936TIP3    H236444   4.388   6.766   1.595 -0.2109  0.9496  1.0123
 4937TIP3   OH236445   4.444   1.642   8.783 -0.4710  0.2713 -0.2095
 4937TIP3    H136446   4.405   1.720   8.744 -1.4282 -0.2074 -0.2325
 4937TIP3    H236447   4.452   1.664   8.876 -1.0373  0.2918 -0.1592
 4938TIP3   OH236448   5.695   2.030   6.916  0.5743  0.1266  0.5347
 4938TIP3    H136449   5.654   2.116   6.902  0.8904  0.4689  1.6164
 4938TIP3    H236450   5.630   1.981   6.967  0.5598 -0.1409  0.2598
 4939TIP3   OH236451   3.026   5.531   8.699 -0.3720 -0.2539  0.2764
 4939TIP3    H136452   2.943   5.575   8.678 -0.3200  0.0705  0.7549
 4939TIP3    H236453   3.060   5.503   8.614 -0.8884 -0.2413  0.0609
 4940TIP3   OH236454   5.011   2.059   7.537 -0.3272  0.4257  0.2851
 4940TIP3    H136455   5.000   2.007   7.457 -2.9464  1.4400 -0.1237
 4940TIP3    H236456   5.024   2.148   7.505 -0.0139  0.6424  1.0098
 4941TIP3   OH236457   1.785   1.638   0.443  0.1652  0.1018  0.0056
 4941TIP3    H136458   1.709   1.580   0.456 -0.2816  0.6852  0.0150
 4941TIP3    H236459   1.844   1.586   0.388 -1.0735  0.3436 -1.6622
 4942TIP3   OH236460   0.589   1.471   0.230 -0.0793 -0.3909  0.2870
 4942TIP3    H136461   0.628   1.384   0.239  0.4929 -0.2996 -1.0325
 4942TIP3    H236462   0.642   1.527   0.287 -0.4693 -0.8853  1.1670
 4943TIP3   OH236463   0.253   6.631   7.557 -0.4810 -0.3919 -0.3142
 4943TIP3    H136464   0.197   6.655   7.630  0.0415 -0.9965  0.3051
 4943TIP3    H236465   0.330   6.687   7.566 -0.0255 -1.0776  0.1247
 4944TIP3   OH236466   6.734   3.477   1.495  0.4582  0.0915  0.1372
 4944TIP3    H136467   6.771   3.392   1.470 -2.7352 -0.8985 -1.8529
 4944TIP3    H236468   6.667   3.456   1.559  0.8295  1.3758  0.9852
 4945TIP3   OH236469   2.275   3.373   8.592 -0.3153  0.4886 -0.3549
 4945TIP3    H136470   2.365   3.407   8.592 -0.2523  0.3491 -1.3312
 4945TIP3    H236471   2.222   3.447   8.563 -0.2929  0.0469 -1.5507
 4946TIP3   OH236472   0.019   3.868   6.478  0.3020  0.0250 -0.6080
 4946TIP3    H136473  -0.036   3.822   6.542 -0.0459  0.7644 -0.3696
 4946TIP3    H236474  -0.040   3.885   6.404  0.5502 -0.3004 -0.8869
 4947TIP3   OH236475   1.102   6.464   8.774 -0.1913 -0.0366 -0.2465
 4947TIP3    H136476   1.019   6.512   8.766 -1.3592 -1.8817  0.0887
 4947TIP3    H236477   1.169   6.530   8.758 -1.7393  1.3359 -1.4833
 4948TIP3   OH236478   2.459   0.416   0.470 -0.0030  0.2421  0.2384
 4948TIP3    H136479   2.431   0.341   0.416  0.9853 -0.3850  0.5747
 4948TIP3    H236480   2.431   0.393   0.559  1.6090 -0.4522  0.6043
 4949TIP3   OH236481   5.373   1.842   1.514 -0.4894 -0.1209  0.2281
 4949TIP3    H136482   5.309   1.914   1.506  0.5879  0.8658  0.1860
 4949TIP3    H236483   5.319   1.764   1.525 -1.7196  0.6123 -0.3034
 4950TIP3   OH236484   2.121   3.019   0.473  0.3741 -0.4493  0.6405
 4950TIP3    H136485   2.182   3.000   0.544  1.0377 -1.4007 -0.1575
 4950TIP3    H236486   2.121   2.940   0.419 -1.2249 -0.2928  0.3574
 4951TIP3   OH236487   4.968   1.687   2.376  0.0890 -0.8558 -0.0102
 4951TIP3    H136488   5.025   1.636   2.435  0.6700  1.6016  1.7033
 4951TIP3    H236489   4.880   1.651   2.391  0.4538 -1.2701  1.2614
 4952TIP3   OH236490   3.702   5.681   7.287 -0.2962 -0.0463 -0.4161
 4952TIP3    H136491   3.785   5.719   7.316 -0.0331  0.1076 -1.3220
 4952TIP3    H236492   3.725   5.627   7.211 -0.9773 -0.2703 -0.4759
 4953TIP3   OH236493   5.754   2.902   0.860 -0.0248  0.4847 -0.1094
 4953TIP3    H136494   5.766   2.827   0.918  0.7008  1.5627  1.1876
 4953TIP3    H236495   5.664   2.931   0.876 -0.2669 -0.0103 -0.5265
 4954TIP3   OH236496   6.212   3.893   6.988  0.6713  0.2950  0.3183
 4954TIP3    H136497   6.175   3.893   6.900 -1.0768 -1.2846  0.9734
 4954TIP3    H236498   6.273   3.820   6.989  0.0666 -0.2173  0.6244
 4955TIP3   OH236499   4.915   4.558   8.757  0.3526 -0.3321  0.3887
 4955TIP3    H136500   4.931   4.621   8.828  1.1187 -0.3100  0.2080
 4955TIP3    H236501   4.931   4.473   8.797 -0.7591 -0.4238  0.6534
 4956TIP3   OH236502   6.035   6.340   8.631  0.1872 -0.2114  0.0776
 4956TIP3    H136503   5.940   6.339   8.625  0.2354 -0.1712 -0.7990
 4956TIP3    H236504   6.062   6.250   8.614  0.1869 -0.9001  3.1399
 4957TIP3   OH236505   0.847   5.820   1.740 -0.0852 -0.6571  0.0780
 4957TIP3    H136506   0.801   5.743   1.709 -0.7155  0.5083 -2.0645
 4957TIP3    H236507   0.900   5.849   1.665  3.9459 -1.6523  2.2237
 4958TIP3   OH236508   2.006   6.064   7.020 -0.2498 -0.1246 -0.2784
 4958TIP3    H136509   1.968   6.052   6.933 -1.2495 -1.0902  0.2546
 4958TIP3    H236510   2.033   5.976   7.046  1.7543  0.4330 -0.3337
 4959TIP3   OH236511   1.458   6.269   2.001  0.1939  0.5467 -0.0473
 4959TIP3    H136512   1.389   6.241   2.061  0.4739 -0.5411 -0.2112
 4959TIP3    H236513   1.428   6.354   1.967 -0.5694  0.5667  0.6481
 4960TIP3   OH236514   4.727   3.017   0.780 -0.3134  0.0979  0.8811
 4960TIP3    H136515   4.794   3.073   0.741 -0.0698  0.1547  1.3731
 4960TIP3    H236516   4.760   2.928   0.769 -2.0358 -0.2696 -2.5595
 4961TIP3   OH236517   2.283   4.419   8.901  0.1752  0.3652  0.4443
 4961TIP3    H136518   2.228   4.355   8.946  0.6721 -0.2892  0.1351
 4961TIP3    H236519   2.278   4.497   8.956  0.2595 -0.2141  1.2970
 4962TIP3   OH236520   3.815   1.317   0.978  0.8166 -0.2204 -0.3885
 4962TIP3    H136521   3.719   1.318   0.971  0.8003  0.3685 -0.1706
 4962TIP3    H236522   3.833   1.351   1.066  1.2198 -0.4418 -0.3851
 4963TIP3   OH236523   3.415   1.110   7.845 -0.4746 -0.5021  0.0093
 4963TIP3    H136524   3.505   1.103   7.876 -0.6989 -2.8459  0.3179
 4963TIP3    H236525   3.367   1.042   7.893 -2.6722  1.3339  0.6180
 4964TIP3   OH236526   5.145   5.788   1.582 -0.5018 -0.7308 -0.1785
 4964TIP3    H136527   5.099   5.851   1.637 -1.1833 -0.6913 -0.7689
 4964TIP3    H236528   5.237   5.801   1.601 -0.5382  1.1786 -1.0487
 4965TIP3   OH236529   0.281   5.993   1.273 -0.0600 -0.3285  0.5007
 4965TIP3    H136530   0.313   5.905   1.290  2.6600  0.3343 -0.6535
 4965TIP3    H236531   0.213   5.982   1.206  1.5949 -1.4401 -1.0763
 4966TIP3   OH236532   0.896   2.542   7.955 -0.0695 -0.1306  0.0942
 4966TIP3    H136533   0.892   2.448   7.973 -0.9169 -0.1967 -0.3747
 4966TIP3    H236534   0.865   2.550   7.864 -2.1382  0.7944  0.8155
 4967TIP3   OH236535   6.092   5.879   2.074  0.5095  0.2391 -0.6711
 4967TIP3    H136536   6.130   5.791   2.071  0.0043 -0.0671  1.0066
 4967TIP3    H236537   6.069   5.892   2.166 -1.7024  1.1580 -1.2947
 4968TIP3   OH236538   0.354   2.639   2.773  0.0599  0.1156 -0.1638
 4968TIP3    H136539   0.409   2.661   2.698  1.2710  0.1770  0.7107
 4968TIP3    H236540   0.310   2.721   2.795  2.6904  1.2120  1.5565
 4969TIP3   OH236541   2.795   3.823   0.248 -0.5328 -0.2974 -0.0428
 4969TIP3    H136542   2.788   3.754   0.182  0.4622 -1.2441  0.7811
 4969TIP3    H236543   2.890   3.837   0.258 -0.5726 -1.1154  2.0499
 4970TIP3   OH236544   0.856   0.057   7.735  0.3930  0.2779 -0.3517
 4970TIP3    H136545   0.774   0.101   7.714  0.2961  0.5753  0.5800
 4970TIP3    H236546   0.918   0.128   7.751  0.7496  0.0582 -0.7373
 4971TIP3   OH236547   0.589   3.621   8.293 -0.3197 -0.1726 -0.1867
 4971TIP3    H136548   0.513   3.648   8.345  0.4528  1.6534  0.0854
 4971TIP3    H236549   0.650   3.584   8.357 -0.3081 -0.0778 -0.1423
 4972TIP3   OH236550   2.971   5.949   8.661  0.3594 -0.5478 -0.9401
 4972TIP3    H136551   2.883   5.934   8.696  0.3517 -0.6341 -0.9957
 4972TIP3    H236552   3.027   5.893   8.714  0.0748 -2.3281 -2.4413
 4973TIP3   OH236553   4.707   1.291   1.679 -0.5815  0.5367  0.0969
 4973TIP3    H136554   4.771   1.362   1.669 -1.4487  1.3473  0.1803
 4973TIP3    H236555   4.760   1.215   1.703  0.7200  0.4231 -2.7558
 4974TIP3   OH236556   6.610   0.585   0.184  0.3486 -0.5596  0.1515
 4974TIP3    H136557   6.705   0.597   0.190  0.1085  1.3094  0.8342
 4974TIP3    H236558   6.599   0.512   0.123  2.1902 -0.2473 -0.6112
 4975TIP3   OH236559   5.483   4.064   1.425 -0.4672  0.2625  0.2328
 4975TIP3    H136560   5.551   4.065   1.358 -0.6786  2.3514 -0.0240
 4975TIP3    H236561   5.401   4.055   1.376 -0.6345  1.9583  0.1252
 4976TIP3   OH236562   5.133   5.896   0.041  0.5267 -0.5085  0.4698
 4976TIP3    H136563   5.183   5.879  -0.039 -1.1141 -1.1606 -0.4715
 4976TIP3    H236564   5.151   5.820   0.097  2.0065  0.1465  0.9385
 4977TIP3   OH236565   0.589   4.333   8.452 -0.0127  0.1657 -0.0579
 4977TIP3    H136566   0.647   4.406   8.432 -0.4866  0.5090 -0.1960
 4977TIP3    H236567   0.578   4.287   8.369  0.1440  0.0419 -0.0101
 4978TIP3   OH236568   3.195   5.790   8.767  0.0587 -0.6661 -0.4866
 4978TIP3    H136569   3.122   5.747   8.811 -0.8162  0.6063 -0.6583
 4978TIP3    H236570   3.243   5.834   8.837 -0.5753  0.2659 -0.6313
 4979TIP3   OH236571   3.194   2.599   7.702 -0.4275 -0.1639 -0.2142
 4979TIP3    H136572   3.158   2.576   7.787 -0.1857  0.5164  0.0762
 4979TIP3    H236573   3.119   2.629   7.651 -0.5076 -0.1891 -0.1104
 4980TIP3   OH236574   4.914   6.776   7.599 -0.1418 -0.1525 -0.5682
 4980TIP3    H136575   4.974   6.832   7.550 -0.7379  0.1167 -1.0013
 4980TIP3    H236576   4.827   6.803   7.570 -0.4909 -0.2684  0.3415
 4981TIP3   OH236577   1.878   6.469   1.729  0.1263 -0.6205  0.6624
 4981TIP3    H136578   1.838   6.447   1.814 -0.7129  0.6802  0.6306
 4981TIP3    H236579   1.965   6.430   1.733  1.6099  2.4914  3.6953
 4982TIP3   OH236580   3.190   1.075   0.975 -0.4263  0.1910 -0.4870
 4982TIP3    H136581   3.254   1.009   0.948 -1.0664 -0.6004 -0.1090
 4982TIP3    H236582   3.111   1.024   0.995 -0.2119  0.8139  2.1802
 4983TIP3   OH236583   2.555   4.635   1.792  0.8986 -0.6342 -0.4023
 4983TIP3    H136584   2.626   4.688   1.829  1.0255 -1.0926  0.0252
 4983TIP3    H236585   2.487   4.635   1.859  0.7236 -0.6599 -0.5774
 4984TIP3   OH236586   6.026   2.729   0.441 -0.0828  0.4332  0.3677
 4984TIP3    H136587   5.964   2.742   0.369  1.0013  1.2699 -0.4531
 4984TIP3    H236588   5.971   2.727   0.519 -1.2364  0.0938 -0.4104
 4985TIP3   OH236589   3.783   4.581   2.328 -0.2768 -0.1810  0.0620
 4985TIP3    H136590   3.820   4.494   2.343  3.5360  1.4262  1.0123
 4985TIP3    H236591   3.726   4.596   2.403 -0.9838 -1.7822 -0.1024
 4986TIP3   OH236592   4.348   1.733   8.086 -0.1486  0.0982 -0.1794
 4986TIP3    H136593   4.361   1.664   8.151 -0.6840 -0.4470 -0.6319
 4986TIP3    H236594   4.391   1.699   8.007 -1.0942 -0.0757 -0.6269
 4987TIP3   OH236595   4.596   4.581   0.268 -0.0335 -0.9335  0.5667
 4987TIP3    H136596   4.649   4.604   0.345 -0.0502 -1.2402  0.6733
 4987TIP3    H236597   4.655   4.528   0.214  0.1586 -0.2372  0.0924
 4988TIP3   OH236598   2.608   3.944   7.757 -0.1308 -0.0182  0.0768
 4988TIP3    H136599   2.569   3.976   7.839 -0.3457 -0.7795  0.2808
 4988TIP3    H236600   2.556   3.987   7.688  0.5349  1.2203  0.3081
 4989TIP3   OH236601   4.292   4.845   7.723  0.2868 -0.0793  0.2994
 4989TIP3    H136602   4.280   4.793   7.643  0.3263  0.7363 -0.2479
 4989TIP3    H236603   4.365   4.802   7.768  0.2590 -0.5543 -0.0930
 4990TIP3   OH236604   6.256   5.258   8.176 -0.2704 -0.1335  0.0507
 4990TIP3    H136605   6.174   5.228   8.137 -0.6863 -0.3203  1.0322
 4990TIP3    H236606   6.315   5.183   8.167 -0.3195 -0.1244 -0.3504
 4991TIP3   OH236607   5.625   0.514   2.197 -0.4185 -0.0505 -0.1406
 4991TIP3    H136608   5.682   0.589   2.212  1.4128 -1.4554  0.2277
 4991TIP3    H236609   5.683   0.444   2.167 -1.8149 -1.7733  0.9438
 4992TIP3   OH236610   3.174   6.090   8.100  0.2594  0.1591  0.6246
 4992TIP3    H136611   3.227   6.093   8.179  1.9567 -0.8523 -0.4156
 4992TIP3    H236612   3.135   6.003   8.101 -0.5885  0.5250  0.8504
 4993TIP3   OH236613   4.600   0.108   0.986  0.5481 -0.0721  0.4285
 4993TIP3    H136614   4.690   0.105   0.952  0.1083  1.1631 -0.9465
 4993TIP3    H236615   4.553   0.041   0.937 -0.2705  2.2206 -2.1551
 4994TIP3   OH236616   0.125   0.377   7.155 -0.1537  0.1908  0.3066
 4994TIP3    H136617   0.184   0.444   7.190  0.3585 -0.9995  1.8838
 4994TIP3    H236618   0.103   0.407   7.067  1.6632  1.3941  0.2138
 4995TIP3   OH236619   3.470   0.897   1.363 -0.1812  0.1884  0.4399
 4995TIP3    H136620   3.466   0.980   1.316  0.3710  1.2095  2.0987
 4995TIP3    H236621   3.556   0.899   1.406  0.3348 -1.7717 -0.3598
 4996TIP3   OH236622   2.114   0.598   6.676 -0.1617 -0.0455  0.3599
 4996TIP3    H136623   2.198   0.640   6.694 -0.6805  1.3651 -0.3823
 4996TIP3    H236624   2.102   0.606   6.581 -1.4454  0.3932  0.5360
 4997TIP3   OH236625   4.126   4.562   6.388  0.1647  0.0676  0.4033
 4997TIP3    H136626   4.125   4.615   6.308  0.3980  0.0280  0.3741
 4997TIP3    H236627   4.214   4.525   6.391 -0.6579 -2.1505 -0.7690
 4998TIP3   OH236628   3.198   3.824   7.665  0.5497 -0.2039  0.3205
 4998TIP3    H136629   3.214   3.752   7.727 -0.0572 -1.3841 -0.8549
 4998TIP3    H236630   3.126   3.793   7.611 -1.1345  2.1399  1.0755
 4999TIP3   OH236631   4.034   6.673   0.179  0.3925  0.0087 -0.2222
 4999TIP3    H136632   4.016   6.580   0.192 -0.2023  0.0526 -0.7330
 4999TIP3    H236633   4.014   6.689   0.087  0.6624  0.6083 -0.1813
 5000TIP3   OH236634   0.707   4.590   8.522 -0.4779 -0.7579 -0.4966
 5000TIP3    H136635   0.636   4.650   8.498  0.4371  0.7064  0.2816
 5000TIP3    H236636   0.721   4.606   8.615 -0.6332 -2.6890 -0.1107
 5001TIP3   OH236637   1.910   0.188   8.552  0.0459 -0.6036  0.4052
 5001TIP3    H136638   1.896   0.194   8.457  0.8490 -0.9528  0.2541
 5001TIP3    H236639   1.833   0.141   8.584 -1.1404  1.0859  0.1939
 5002TIP3   OH236640   4.662   5.578   1.968  0.0617 -0.2554  0.4359
 5002TIP3    H136641   4.701   5.600   2.053  4.1637  2.2424 -1.8024
 5002TIP3    H236642   4.710   5.501   1.939 -0.8215 -0.6664  0.0112
 5003TIP3   OH236643   0.513   3.978   0.752 -0.2186  0.0909  0.2241
 5003TIP3    H136644   0.598   4.021   0.756 -1.5911  2.9496  1.3626
 5003TIP3    H236645   0.486   3.971   0.843 -0.5318 -2.3641 -0.0036
 5004TIP3   OH236646   5.705   2.334   6.915  0.1389  0.9445  0.4370
 5004TIP3    H136647   5.611   2.316   6.913  0.5015 -1.0314 -0.6043
 5004TIP3    H236648   5.734   2.306   7.002  0.0534 -0.1020  0.1331
 5005TIP3   OH236649   2.716   5.916   8.728 -0.2707  0.2851 -0.0791
 5005TIP3    H136650   2.680   5.974   8.795 -1.1191  0.1420 -0.3987
 5005TIP3    H236651   2.674   5.831   8.744  2.0618 -0.6950  1.3200
 5006TIP3   OH236652   0.936   2.981   1.755  0.9426  0.3059 -0.4607
 5006TIP3    H136653   0.843   2.960   1.740  0.8036  0.8566 -0.4196
 5006TIP3    H236654   0.933   3.055   1.817  1.3198  1.7912 -2.1358
 5007TIP3   OH236655   5.852   5.763   0.555 -0.0741 -0.0072  0.1045
 5007TIP3    H136656   5.784   5.721   0.503  0.1730  1.0525 -1.1277
 5007TIP3    H236657   5.916   5.694   0.571 -0.5706 -0.5616 -0.2650
 5008TIP3   OH236658   5.781   4.496   0.698 -0.1315  0.4900 -0.0008
 5008TIP3    H136659   5.851   4.511   0.762  0.0967  1.4696 -0.4641
 5008TIP3    H236660   5.738   4.581   0.689 -0.7293  0.1453 -0.4896
 5009TIP3   OH236661   6.738   1.964   0.246 -0.7979 -0.1608 -0.4943
 5009TIP3    H136662   6.803   1.894   0.251 -1.6218 -0.9444 -0.4404
 5009TIP3    H236663   6.675   1.943   0.316  0.4758  2.2772  1.5705
 5010TIP3   OH236664   4.137   1.274   8.402  0.5972 -0.4807  0.1261
 5010TIP3    H136665   4.087   1.335   8.346 -0.0178 -2.2474 -1.3316
 5010TIP3    H236666   4.076   1.202   8.419  1.7323 -1.3214  0.7219
 5011TIP3   OH236667   2.041   0.354   1.890 -0.1943 -0.2275  0.3501
 5011TIP3    H136668   2.127   0.345   1.930  0.1659  1.3369  0.0307
 5011TIP3    H236669   1.981   0.305   1.947  0.8384 -1.0095  0.7832
 5012TIP3   OH236670   3.253   4.150   6.043 -0.2068 -0.5135  0.4615
 5012TIP3    H136671   3.272   4.243   6.052  0.5680 -0.6690  0.4674
 5012TIP3    H236672   3.159   4.143   6.061 -0.5535  0.4391 -0.8398
 5013TIP3   OH236673   0.769   4.554   8.811 -0.2656 -0.0725 -0.5371
 5013TIP3    H136674   0.699   4.537   8.874 -1.9225  2.2703 -1.6132
 5013TIP3    H236675   0.822   4.623   8.852 -0.1936  0.0689 -0.8632
 5014TIP3   OH236676   0.776   4.647   2.634  0.1537  0.6362 -0.4698
 5014TIP3    H136677   0.870   4.659   2.645  0.3319 -0.1204 -1.1263
 5014TIP3    H236678   0.768   4.580   2.566 -0.8690  2.4293 -2.2160
 5015TIP3   OH236679   1.745   0.380   1.469  0.0563  0.3030  0.1418
 5015TIP3    H136680   1.798   0.330   1.532  0.2059 -1.2829 -1.1630
 5015TIP3    H236681   1.791   0.369   1.385 -1.8593 -0.4682 -0.8781
 5016TIP3   OH236682   2.411   3.101   8.635 -0.9699  0.5644 -0.1875
 5016TIP3    H136683   2.495   3.132   8.670 -0.3633 -1.1020 -0.0733
 5016TIP3    H236684   2.399   3.151   8.554 -0.0394  1.0592 -0.0450
 5017TIP3   OH236685   5.015   4.944   6.301 -0.1537  0.1332 -0.1259
 5017TIP3    H136686   5.086   4.964   6.240  0.5876 -0.7701  0.4255
 5017TIP3    H236687   5.024   5.009   6.370  0.7849 -0.5934  0.4578
 5018TIP3   OH236688   5.902   6.409   1.568  0.3336  0.2455 -0.3534
 5018TIP3    H136689   5.954   6.425   1.648  0.4286 -2.0062  0.0842
 5018TIP3    H236690   5.947   6.337   1.524 -0.9013  0.0696 -1.3768
 5019TIP3   OH236691   0.348   1.381   0.307  0.1859 -0.1842 -0.2583
 5019TIP3    H136692   0.348   1.383   0.402 -0.7445  0.6732 -0.2561
 5019TIP3    H236693   0.420   1.439   0.282 -0.9872  1.4490 -0.0444
 5020TIP3   OH236694   1.520   3.568   1.357 -0.3534 -0.2221  0.2165
 5020TIP3    H136695   1.490   3.479   1.336  0.9008 -0.6825  0.3073
 5020TIP3    H236696   1.587   3.555   1.424  1.0600  0.6417 -0.9759
 5021TIP3   OH236697   5.421   1.194   8.836  0.2608 -0.2092 -0.1341
 5021TIP3    H136698   5.332   1.215   8.864 -0.3083 -1.6894 -0.7495
 5021TIP3    H236699   5.459   1.146   8.909 -0.0338 -1.0336 -0.5099
 5022TIP3   OH236700   0.499   2.485   8.835 -0.1819  0.3429 -0.4773
 5022TIP3    H136701   0.536   2.571   8.854 -0.4034  0.3870 -0.2560
 5022TIP3    H236702   0.420   2.503   8.784  1.2170  0.1953 -2.8755
 5023TIP3   OH236703   4.899   1.403   8.503  0.5432 -0.1390  0.1834
 5023TIP3    H136704   4.813   1.362   8.508  0.9724 -1.1709 -0.5663
 5023TIP3    H236705   4.892   1.466   8.432 -0.0618  1.0028  1.2133
 5024TIP3   OH236706   2.312   2.134   7.529  0.2512 -0.6124  0.0873
 5024TIP3    H136707   2.324   2.218   7.485  1.5229 -0.9855 -0.3216
 5024TIP3    H236708   2.363   2.142   7.610 -1.8885 -0.0100  1.4598
 5025TIP3   OH236709   3.967   1.116   6.574  0.3872  0.3864 -0.0501
 5025TIP3    H136710   3.900   1.058   6.538  0.8423 -1.0971  1.3834
 5025TIP3    H236711   3.933   1.142   6.659  0.9118  0.9479 -0.0051
 5026TIP3   OH236712   1.266   2.024   0.460 -0.5037 -0.0437  0.6502
 5026TIP3    H136713   1.319   2.097   0.427  1.5601 -2.4334 -1.7471
 5026TIP3    H236714   1.181   2.036   0.418  0.5407 -0.2292 -1.6777
 5027TIP3   OH236715   6.062   0.485   8.899  0.1866 -0.1594  0.3603
 5027TIP3    H136716   6.095   0.457   8.814 -0.9291  0.7483 -0.3885
 5027TIP3    H236717   5.981   0.533   8.880 -0.4504 -0.5160  1.9790
 5028TIP3   OH236718   4.280   0.881   1.119  0.0806 -0.6151  0.3359
 5028TIP3    H136719   4.360   0.933   1.112 -0.3922 -0.0416 -1.4667
 5028TIP3    H236720   4.245   0.903   1.206  0.9838  0.4579  0.4583
 5029TIP3   OH236721   1.626   5.696   0.360  0.0134  0.1927 -0.0002
 5029TIP3    H136722   1.619   5.602   0.373  1.0352  0.0358 -0.4827
 5029TIP3    H236723   1.713   5.709   0.321  0.1640  1.3979  0.6672
 5030TIP3   OH236724   2.306   1.656   7.857  0.0536 -0.2209  0.2328
 5030TIP3    H136725   2.243   1.631   7.925  0.0083  0.5442  0.4948
 5030TIP3    H236726   2.253   1.695   7.788  0.3105  1.8779  1.1303
 5031TIP3   OH236727   3.068   5.889   7.122  0.4200  0.1240 -0.1382
 5031TIP3    H136728   2.997   5.882   7.187  0.4993 -0.3939 -0.1035
 5031TIP3    H236729   3.030   5.941   7.051  0.8040  1.9788  0.9534
 5032TIP3   OH236730   5.387   0.277   7.675 -0.1202  0.5205 -0.4359
 5032TIP3    H136731   5.462   0.222   7.651  1.1263  1.3763  1.2693
 5032TIP3    H236732   5.396   0.354   7.619 -0.5304  0.0456 -1.1773
 5033TIP3   OH236733   1.844   5.198   8.356  0.4209 -0.4062  0.1469
 5033TIP3    H136734   1.758   5.240   8.366  1.1606  1.1040  0.3776
 5033TIP3    H236735   1.856   5.149   8.438 -0.2451 -0.7093  0.0742
 5034TIP3   OH236736   3.338   2.958   0.688  0.0794  0.3430 -0.6411
 5034TIP3    H136737   3.278   2.923   0.754  2.6315 -0.8270  1.2450
 5034TIP3    H236738   3.357   3.047   0.717  0.2279  0.2726 -0.5233
 5035TIP3   OH236739   3.632   3.399   7.119  0.7532  0.1463 -0.1806
 5035TIP3    H136740   3.588   3.334   7.174  0.0526  0.6156 -0.1816
 5035TIP3    H236741   3.719   3.361   7.103  1.4945  0.6034  2.3446
 5036TIP3   OH236742   2.091   0.869   8.032 -0.0035 -0.4927 -0.4210
 5036TIP3    H136743   1.999   0.878   8.060  0.1841 -0.4005  0.1738
 5036TIP3    H236744   2.138   0.848   8.112  0.5653 -0.0978 -0.6512
 5037TIP3   OH236745   1.349   4.705   0.682 -0.3315 -0.2524  0.4056
 5037TIP3    H136746   1.422   4.647   0.662  0.3608  1.1358 -1.4317
 5037TIP3    H236747   1.365   4.733   0.772  1.3850 -0.0614  0.0821
 5038TIP3   OH236748   1.672   5.981   7.886  0.0991 -0.0604 -0.0098
 5038TIP3    H136749   1.660   6.073   7.863 -2.2376 -1.0062 -3.2072
 5038TIP3    H236750   1.695   5.939   7.804  2.0517 -2.2947  1.5456
 5039TIP3   OH236751   4.555   6.406   0.784  0.0529 -0.0775  0.2833
 5039TIP3    H136752   4.565   6.498   0.760 -0.6570  0.2435  1.1568
 5039TIP3    H236753   4.478   6.376   0.737  0.3883 -0.2847 -0.1424
 5040TIP3   OH236754   6.386   4.683   7.906 -0.1352  0.2404  0.1593
 5040TIP3    H136755   6.356   4.602   7.864 -0.0688 -0.1821  0.9149
 5040TIP3    H236756   6.481   4.672   7.915 -0.2399  0.0389  1.0304
 5041TIP3   OH236757   5.462   0.510   0.180 -0.1645  0.0671  0.4621
 5041TIP3    H136758   5.515   0.568   0.126 -0.9021  0.3656  0.0422
 5041TIP3    H236759   5.499   0.423   0.166 -1.6748 -0.2544 -2.3171
 5042TIP3   OH236760   3.435   3.222   6.813  0.0667 -0.2101 -0.1074
 5042TIP3    H136761   3.356   3.241   6.864 -0.1337 -1.5330  0.1233
 5042TIP3    H236762   3.424   3.130   6.786  2.7219 -1.3237  2.1217
 5043TIP3   OH236763   0.615   2.432   7.188  0.8000 -0.3930 -0.0823
 5043TIP3    H136764   0.526   2.454   7.216  0.0969  1.1613 -3.0658
 5043TIP3    H236765   0.604   2.355   7.133  1.2672 -0.1360 -0.5396
 5044TIP3   OH236766   5.165   2.177   7.797 -0.0377 -0.6771  0.1423
 5044TIP3    H136767   5.204   2.090   7.798 -1.5135 -1.3801 -0.1707
 5044TIP3    H236768   5.133   2.188   7.707  0.1782  0.1995  0.1722
 5045TIP3   OH236769   3.656   0.299   7.246 -0.1087 -0.0218 -0.2126
 5045TIP3    H136770   3.610   0.371   7.204  0.6269 -0.6688 -2.2269
 5045TIP3    H236771   3.606   0.221   7.222 -0.7652 -0.2644  1.7569
 5046TIP3   OH236772   3.095   0.562   7.689 -0.4284 -0.1773  0.2719
 5046TIP3    H136773   3.050   0.524   7.765 -0.3863 -1.8819 -0.5015
 5046TIP3    H236774   3.025   0.599   7.635 -0.3183  2.6426  1.9164
 5047TIP3   OH236775   2.004   6.165   1.288 -0.3395  0.2056  0.2522
 5047TIP3    H136776   2.016   6.134   1.378  3.0532  1.0121  0.1992
 5047TIP3    H236777   1.980   6.086   1.239  0.6299 -0.8400  1.3871
 5048TIP3   OH236778   5.243   1.697   8.466 -0.5575  0.1462 -0.2626
 5048TIP3    H136779   5.248   1.613   8.420 -0.0297  1.0520 -1.9325
 5048TIP3    H236780   5.327   1.739   8.449 -0.8595  1.0769  0.4589
 5049TIP3   OH236781   4.234   1.690   1.951 -0.6698 -0.2633  0.2694
 5049TIP3    H136782   4.150   1.679   1.994  0.0380  1.1464  2.1220
 5049TIP3    H236783   4.293   1.632   1.999 -0.0726  0.5912  0.5875
 5050TIP3   OH236784   6.358   3.834   7.989  0.5698 -0.1279 -0.0745
 5050TIP3    H136785   6.351   3.887   7.910  0.8987  0.2475  0.1377
 5050TIP3    H236786   6.390   3.896   8.056 -0.8686 -0.1361  0.6551
 5051TIP3   OH236787   3.836   4.501   2.044  0.3099  0.7033  0.5814
 5051TIP3    H136788   3.896   4.427   2.032  0.1130  0.5435  0.5726
 5051TIP3    H236789   3.819   4.503   2.138 -0.0319  0.4609  0.5263
 5052TIP3   OH236790   6.513   3.231   1.421  0.3243 -0.2090 -0.7856
 5052TIP3    H136791   6.566   3.302   1.385  0.2801 -0.1557 -0.7461
 5052TIP3    H236792   6.573   3.157   1.426  1.2912  0.6343  2.0934
 5053TIP3   OH236793   6.631   1.021   8.613  0.2220  0.6896  0.2008
 5053TIP3    H136794   6.678   1.089   8.564 -0.5544  0.3945 -0.9909
 5053TIP3    H236795   6.544   1.059   8.627 -0.4858 -0.3508 -1.1901
 5054TIP3   OH236796   3.528   3.901   0.783 -0.2554 -0.1900 -0.1535
 5054TIP3    H136797   3.542   3.809   0.808  0.9813  0.0434  0.0713
 5054TIP3    H236798   3.610   3.927   0.741 -1.2118  0.3083 -1.8004
 5055TIP3   OH236799   4.823   3.782   6.220  0.5910 -0.4503  0.5076
 5055TIP3    H136800   4.797   3.709   6.275  1.2687 -0.5675  0.6727
 5055TIP3    H236801   4.918   3.788   6.229  0.5762  0.2866  0.2944
 5056TIP3   OH236802   4.841   2.828   2.308 -0.0060  0.1245  0.1680
 5056TIP3    H136803   4.858   2.919   2.331  0.4541  0.1543 -0.2769
 5056TIP3    H236804   4.928   2.787   2.305  0.0654  0.3300 -2.3635
 5057TIP3   OH236805   5.397   1.556   0.061  0.3864 -0.1325 -0.3076
 5057TIP3    H136806   5.313   1.567   0.017 -0.4799 -1.1290  0.9925
 5057TIP3    H236807   5.439   1.642   0.056 -0.2494  0.1138 -1.8505
 5058TIP3   OH236808   0.639   4.613   1.208  0.1537  0.3085  0.5871
 5058TIP3    H136809   0.693   4.541   1.241 -1.6900 -0.8547  1.2409
 5058TIP3    H236810   0.597   4.648   1.287  1.2777  2.3822  0.3279
 5059TIP3   OH236811   6.124   0.242   8.427  0.8129  0.3664  0.0477
 5059TIP3    H136812   6.115   0.204   8.340 -0.0035  0.1231  0.2345
 5059TIP3    H236813   6.201   0.199   8.465  1.3913  0.7387 -0.6809
 5060TIP3   OH236814   2.280   6.411   7.612  0.0509  0.5215 -0.2742
 5060TIP3    H136815   2.268   6.318   7.633 -1.3496  0.8031  0.2713
 5060TIP3    H236816   2.283   6.413   7.516 -0.9785  0.0185 -0.3282
 5061TIP3   OH236817   2.983   5.088   7.461 -0.2880 -0.0355  0.3096
 5061TIP3    H136818   2.984   5.012   7.403 -0.3161  0.8537 -0.9041
 5061TIP3    H236819   3.031   5.060   7.539  1.4267 -0.6813 -0.9132
 5062TIP3   OH236820   2.577   3.961   2.267 -0.2320  0.0286  0.5165
 5062TIP3    H136821   2.637   4.002   2.329 -0.3613 -1.7345  1.8910
 5062TIP3    H236822   2.591   3.867   2.278  0.0863 -0.3897 -2.5190
 5063TIP3   OH236823   1.806   3.373   2.210 -1.0003  0.1057 -0.0398
 5063TIP3    H136824   1.886   3.357   2.160 -0.8563  1.8719 -0.4572
 5063TIP3    H236825   1.766   3.287   2.221  0.7905 -0.7806 -0.0993
 5064TIP3   OH236826   4.893   5.161   1.251 -0.5833  0.0871  0.4221
 5064TIP3    H136827   4.942   5.187   1.329 -0.6248  1.0119  0.1532
 5064TIP3    H236828   4.846   5.240   1.224 -0.6702 -0.2493 -0.4612
 5065TIP3   OH236829   1.919   0.697   1.550  0.4148  0.3347 -0.0269
 5065TIP3    H136830   1.885   0.621   1.598  0.7977  0.1672 -0.0135
 5065TIP3    H236831   1.992   0.662   1.499  1.1245  0.8476  0.6090
 5066TIP3   OH236832   0.067   1.117   2.165 -0.1317 -0.0248 -0.5859
 5066TIP3    H136833   0.090   1.076   2.248 -0.3679  0.0376 -0.4870
 5066TIP3    H236834   0.138   1.093   2.105 -0.8466 -1.5868 -0.8619
 5067TIP3   OH236835   1.287   0.289   7.220 -0.2357 -0.0549 -0.0777
 5067TIP3    H136836   1.329   0.360   7.171 -0.4242  1.2305  1.5113
 5067TIP3    H236837   1.283   0.322   7.310  0.5378 -2.5044  0.9267
 5068TIP3   OH236838   0.506   0.110   1.820  0.9390 -0.3067 -0.0579
 5068TIP3    H136839   0.505   0.167   1.897  0.4935  1.6269 -1.4390
 5068TIP3    H236840   0.565   0.039   1.844  1.5280  0.7298  1.7325
 5069TIP3   OH236841   1.213   6.443   1.568 -0.7751  0.2898  0.3285
 5069TIP3    H136842   1.185   6.387   1.496  0.3872  0.2077 -0.0758
 5069TIP3    H236843   1.251   6.383   1.632 -1.3183  0.4216  0.7871
 5070TIP3   OH236844   0.027   0.620   8.494 -0.8204  0.4816 -1.1624
 5070TIP3    H136845  -0.056   0.668   8.485 -0.3023  1.7247  0.2650
 5070TIP3    H236846   0.086   0.662   8.431 -1.0070  0.2344 -1.5013
 5071TIP3   OH236847   2.863   0.649   7.584 -0.6230 -0.2757 -0.8755
 5071TIP3    H136848   2.849   0.710   7.511  2.5726  2.0273  0.1863
 5071TIP3    H236849   2.842   0.700   7.662  2.7031 -0.1220  0.0815
 5072TIP3   OH236850   1.399   0.980   7.134 -0.5447  0.2329 -0.0430
 5072TIP3    H136851   1.416   1.004   7.225 -2.5406 -1.0041  0.7188
 5072TIP3    H236852   1.312   0.940   7.136 -0.4723 -0.1594 -2.4466
 5073TIP3   OH236853   0.892   6.423   8.549 -0.8310  0.1398  0.5224
 5073TIP3    H136854   0.972   6.474   8.540 -0.6983 -0.2280 -0.5910
 5073TIP3    H236855   0.833   6.479   8.598 -1.2080  2.0407 -1.9026
 5074TIP3   OH236856   0.892   2.465   7.103 -0.1543  0.2093 -0.2815
 5074TIP3    H136857   0.811   2.480   7.150 -1.0376 -0.3065 -1.5842
 5074TIP3    H236858   0.891   2.372   7.082  0.0727  0.4748 -1.5531
 5075TIP3   OH236859   3.538   1.384   0.077  0.4307  0.0540  0.3503
 5075TIP3    H136860   3.591   1.455   0.043  1.6864 -1.1274 -0.2534
 5075TIP3    H236861   3.500   1.419   0.158 -0.0413  1.8190 -0.5894
 5076TIP3   OH236862   1.908   1.089   8.390  0.0998  0.4562  0.5522
 5076TIP3    H136863   1.884   0.996   8.382 -1.5799  0.9943 -1.5976
 5076TIP3    H236864   2.000   1.088   8.418  0.7524 -1.8894 -1.3809
 5077TIP3   OH236865   1.390   5.199   6.683 -0.2471  0.1585  0.3424
 5077TIP3    H136866   1.371   5.132   6.749  1.8458 -1.1344 -0.2708
 5077TIP3    H236867   1.485   5.199   6.675 -0.2099  2.8318 -0.1486
 5078TIP3   OH236868   1.699   5.572   0.721  0.5307 -0.0198  0.1689
 5078TIP3    H136869   1.745   5.653   0.743  1.1795  0.0207 -1.2296
 5078TIP3    H236870   1.736   5.507   0.781  0.3112  0.6039  1.0118
 5079TIP3   OH236871   3.253   3.362   6.958  0.4981 -0.1062 -0.0242
 5079TIP3    H136872   3.237   3.348   7.051  0.2084  1.2894  0.1698
 5079TIP3    H236873   3.299   3.446   6.954  0.0948  0.0876 -1.1513
 5080TIP3   OH236874   2.483   5.006   7.812  0.2876  0.2918  0.2891
 5080TIP3    H136875   2.441   5.040   7.733  0.7067  2.0792  0.8067
 5080TIP3    H236876   2.410   4.983   7.870 -0.0087 -0.3922 -0.3401
 5081TIP3   OH236877   1.299   6.448   0.594  0.2594  0.0076  0.1095
 5081TIP3    H136878   1.383   6.414   0.625  1.6855  2.7077 -0.4965
 5081TIP3    H236879   1.271   6.511   0.661 -0.1935  0.6989 -0.7042
 5082TIP3   OH236880   4.398   0.400   8.363 -0.2172 -0.3831  0.2478
 5082TIP3    H136881   4.320   0.406   8.308  0.0458  0.0384 -0.0763
 5082TIP3    H236882   4.436   0.315   8.341 -1.0997 -1.0311  1.0986
 5083TIP3   OH236883   4.798   0.757   0.449  0.3464  0.6784  0.3441
 5083TIP3    H136884   4.796   0.837   0.502 -1.1900  0.7159  0.2674
 5083TIP3    H236885   4.888   0.725   0.457  0.0697  0.4038  3.3595
 5084TIP3   OH236886   3.744   6.559   0.427  0.0775  0.4796  0.1446
 5084TIP3    H136887   3.808   6.560   0.356 -0.0887 -1.1602 -0.0743
 5084TIP3    H236888   3.766   6.635   0.481  2.4097 -0.2065  0.2602
 5085TIP3   OH236889   3.451   6.520   6.636 -0.4542 -0.5600  0.3311
 5085TIP3    H136890   3.362   6.484   6.637 -0.6368 -0.1058  0.6877
 5085TIP3    H236891   3.504   6.453   6.679 -0.3108 -1.5855 -1.3300
 5086TIP3   OH236892   5.670   4.611   2.200  0.1056  0.2646  0.0614
 5086TIP3    H136893   5.719   4.693   2.206  0.9482 -0.2869  1.1068
 5086TIP3    H236894   5.613   4.612   2.277 -0.1880  0.0608 -0.1533
 5087TIP3   OH236895   1.325   0.850   8.817 -0.0263  0.6503  0.3408
 5087TIP3    H136896   1.328   0.768   8.867  0.6601  0.2992 -0.2588
 5087TIP3    H236897   1.409   0.893   8.835  0.4088  0.3261 -0.8069
 5088TIP3   OH236898   2.157   2.681   8.314 -0.0091  0.4455  0.2225
 5088TIP3    H136899   2.223   2.748   8.332 -0.2152  0.5043  0.7673
 5088TIP3    H236900   2.095   2.688   8.386 -0.8596  0.6972 -0.5103
 5089TIP3   OH236901   0.441   4.545   2.315 -0.0947  0.3844 -0.0210
 5089TIP3    H136902   0.365   4.495   2.345 -0.3033  0.3983 -0.5182
 5089TIP3    H236903   0.404   4.617   2.264  0.2710  0.1310 -0.6442
 5090TIP3   OH236904   2.174   5.080   1.888  0.2303  0.0409 -0.4623
 5090TIP3    H136905   2.199   5.167   1.918  1.7642 -0.5601  0.1088
 5090TIP3    H236906   2.161   5.030   1.969  0.5045 -0.5450 -0.7723
 5091TIP3   OH236907   1.219   3.500   6.747  0.1062  0.3319  0.2980
 5091TIP3    H136908   1.150   3.433   6.749 -1.4825  1.8735  2.5986
 5091TIP3    H236909   1.192   3.561   6.679  0.4658 -0.2607 -0.3882
 5092TIP3   OH236910   4.822   5.273   6.331 -0.0223 -0.0616 -0.5384
 5092TIP3    H136911   4.884   5.212   6.370  1.5786  0.4581 -2.1177
 5092TIP3    H236912   4.738   5.228   6.336  0.0172  0.0176  3.4200
 5093TIP3   OH236913   0.434   1.369   8.008 -0.2477 -0.1500  0.1050
 5093TIP3    H136914   0.348   1.398   8.039 -1.3407 -3.6299  0.6686
 5093TIP3    H236915   0.465   1.443   7.955 -3.8588  1.0329 -0.7045
 5094TIP3   OH236916   2.441   1.584   1.184  0.4319 -0.4007 -0.4960
 5094TIP3    H136917   2.432   1.665   1.134 -1.0206  0.1876  0.6450
 5094TIP3    H236918   2.353   1.548   1.188  1.0505 -2.0349 -0.9325
 5095TIP3   OH236919   6.222   2.466   1.789 -0.4280  0.0409 -0.5369
 5095TIP3    H136920   6.156   2.473   1.721 -0.3151 -2.5169 -0.9927
 5095TIP3    H236921   6.174   2.482   1.871 -1.3339 -0.5209 -0.9521
 5096TIP3   OH236922   2.748   2.858   1.704  0.0608 -0.6325  0.0265
 5096TIP3    H136923   2.783   2.944   1.681  0.0280 -1.0050 -1.5163
 5096TIP3    H236924   2.743   2.859   1.800  0.0521  1.0735  0.0382
 5097TIP3   OH236925   3.683   1.531   8.706  0.1403  0.0924  0.0128
 5097TIP3    H136926   3.639   1.453   8.672 -1.6919  0.4334  1.4423
 5097TIP3    H236927   3.720   1.573   8.629 -1.1336 -0.8106 -1.1404
 5098TIP3   OH236928   0.823   4.802   8.914 -0.0689  0.0520  0.5852
 5098TIP3    H136929   0.881   4.873   8.885  0.3612  0.6250  2.6597
 5098TIP3    H236930   0.739   4.845   8.930 -0.3074 -0.2573  0.1738
 5099TIP3   OH236931   4.202   0.458   8.162  0.2458  0.8707 -0.5378
 5099TIP3    H136932   4.141   0.507   8.106 -1.3171 -0.9510 -0.5384
 5099TIP3    H236933   4.219   0.378   8.113  1.1155  0.4987  0.3584
 5100TIP3   OH236934   1.196   1.404   2.082  0.1637  0.4791 -0.8291
 5100TIP3    H136935   1.186   1.396   2.177 -1.8679  0.5944 -0.9901
 5100TIP3    H236936   1.172   1.318   2.047 -4.1123  1.7004 -1.4595
 5101TIP3   OH236937   1.605   0.293   7.338 -0.0005 -0.0965 -0.4685
 5101TIP3    H136938   1.513   0.316   7.339  0.1242  0.3927 -0.2568
 5101TIP3    H236939   1.606   0.198   7.352 -0.3604  0.2124  1.9725
 5102TIP3   OH236940   1.011   4.592   1.738  0.3029 -0.4701  0.1133
 5102TIP3    H136941   0.964   4.545   1.807  1.1379  1.0754  1.8145
 5102TIP3    H236942   0.963   4.674   1.728  1.2732  0.1283  0.2285
 5103TIP3   OH236943   5.590   2.214   7.388  0.1385  0.2881 -0.2486
 5103TIP3    H136944   5.615   2.276   7.457  1.3342 -1.1771  0.6989
 5103TIP3    H236945   5.495   2.210   7.393  0.2105 -0.1304  1.6978
 5104TIP3   OH236946   0.760   2.112   0.240  0.2380 -0.1859 -0.7851
 5104TIP3    H136947   0.757   2.194   0.190  0.1348 -0.5895 -1.4541
 5104TIP3    H236948   0.669   2.083   0.244  0.1279  0.2668  0.3725
 5105TIP3   OH236949   2.051   1.501   7.936 -0.3560  0.1391  0.3116
 5105TIP3    H136950   2.059   1.406   7.933  0.3499  0.2112 -0.6254
 5105TIP3    H236951   1.966   1.520   7.897  0.8778  0.0328 -2.6740
 5106TIP3   OH236952   4.242   6.528   7.860 -0.6128 -0.5064 -0.2013
 5106TIP3    H136953   4.203   6.615   7.866  0.4882 -0.0843  1.7113
 5106TIP3    H236954   4.275   6.522   7.770 -2.7671  0.0898 -1.0821
 5107TIP3   OH236955   0.587   4.887   1.157 -0.3737  0.1456  0.3572
 5107TIP3    H136956   0.552   4.945   1.225 -0.6147 -0.0458  0.3996
 5107TIP3    H236957   0.646   4.828   1.203  0.0946  0.5387  0.2681
 5108TIP3   OH236958   6.762   0.426   1.291  0.0929 -0.3812 -0.0056
 5108TIP3    H136959   6.707   0.352   1.268 -0.5990  0.5113 -1.4191
 5108TIP3    H236960   6.777   0.418   1.385 -1.9806 -0.9871  0.3200
 5109TIP3   OH236961   1.646   6.761   1.425 -0.6459 -0.1923 -0.0560
 5109TIP3    H136962   1.669   6.739   1.334 -0.3180 -0.8220  0.1697
 5109TIP3    H236963   1.689   6.693   1.477 -2.7621 -1.2493  0.4195
 5110TIP3   OH236964   4.238   0.910   0.602 -0.4415 -0.0451  0.1971
 5110TIP3    H136965   4.170   0.977   0.609  0.5656  1.1401 -0.7840
 5110TIP3    H236966   4.201   0.844   0.543 -0.5770  0.8481 -0.7543
 5111TIP3   OH236967   4.425   2.461   7.070 -0.5084  0.0404 -0.2140
 5111TIP3    H136968   4.373   2.426   7.142 -1.5396  1.1244 -0.4081
 5111TIP3    H236969   4.436   2.554   7.090  1.0825 -0.0788 -0.3545
 5112TIP3   OH236970   5.458   6.154   7.131  0.3984  0.0060  0.7652
 5112TIP3    H136971   5.419   6.241   7.130 -0.8602 -0.5196  1.5076
 5112TIP3    H236972   5.499   6.147   7.217 -0.0036 -0.3295  0.9359
 5113TIP3   OH236973   4.851   3.512   0.631 -0.3246  0.0220 -0.6821
 5113TIP3    H136974   4.842   3.482   0.540  2.6310 -0.3736 -0.9458
 5113TIP3    H236975   4.766   3.495   0.670 -0.4734 -4.0277 -2.2255
 5114TIP3   OH236976   0.744   3.010   2.410 -0.0604  0.1002  0.1456
 5114TIP3    H136977   0.738   3.095   2.367 -0.1149  0.1957  0.3375
 5114TIP3    H236978   0.838   2.993   2.416 -0.0461 -1.1954 -2.4726
 5115TIP3   OH236979   0.241   0.869   0.004  0.8492 -0.2516 -0.2927
 5115TIP3    H136980   0.160   0.876  -0.047  0.1579 -0.9507  0.6658
 5115TIP3    H236981   0.303   0.925  -0.042  0.1300 -0.5125 -1.6413
 5116TIP3   OH236982   1.931   2.735   6.383 -0.0729 -0.6111 -0.4210
 5116TIP3    H136983   1.838   2.757   6.382 -0.1707 -0.9977  0.0187
 5116TIP3    H236984   1.934   2.640   6.372  0.2821 -0.5647 -0.7437
 5117TIP3   OH236985   0.254   4.719   0.779  0.5523  0.1273 -0.3357
 5117TIP3    H136986   0.322   4.693   0.716  0.6259 -1.3210  0.3102
 5117TIP3    H236987   0.295   4.707   0.865  0.3758  1.8567  0.0281
 5118TIP3   OH236988   6.136   0.656   1.076  0.0623 -0.0820 -0.9935
 5118TIP3    H136989   6.213   0.599   1.079 -0.5547 -0.9116 -0.5901
 5118TIP3    H236990   6.082   0.620   1.006 -1.6336 -1.7720  1.0210
 5119TIP3   OH236991   3.949   1.618   1.598  0.1883  0.4509 -0.9296
 5119TIP3    H136992   3.873   1.676   1.605 -0.2181 -0.1222 -0.6106
 5119TIP3    H236993   3.975   1.601   1.688  1.6168  1.8309 -1.0438
 5120TIP3   OH236994   5.735   3.564   8.505 -0.1458 -0.1061 -0.2132
 5120TIP3    H136995   5.762   3.498   8.441  0.0005  1.5663 -1.9723
 5120TIP3    H236996   5.785   3.543   8.583  0.1535 -1.8528 -0.8173
 5121TIP3   OH236997   3.086   6.744   8.540 -0.3359  0.7221  0.5601
 5121TIP3    H136998   3.085   6.651   8.519 -1.3090  0.5485  1.3200
 5121TIP3    H236999   3.094   6.787   8.455  0.7826 -0.0458  0.2476
 5122TIP3   OH237000   4.105   0.750   0.412 -0.0497  0.2639 -0.1247
 5122TIP3    H137001   4.129   0.664   0.377  0.9420  0.2873  0.4523
 5122TIP3    H237002   4.142   0.812   0.350 -0.7394  0.2839 -0.5249
 5123TIP3   OH237003   2.472   4.806   8.125  0.5209  0.4176 -0.3447
 5123TIP3    H137004   2.470   4.896   8.160  2.4519  0.2162  0.3888
 5123TIP3    H237005   2.499   4.817   8.034 -0.1934  0.6313 -0.5394
 5124TIP3   OH237006   4.611   1.940   0.356 -0.1922  1.0656  0.2048
 5124TIP3    H137007   4.644   1.978   0.437  1.9621 -0.5281  0.1610
 5124TIP3    H237008   4.684   1.947   0.294  0.1101 -2.3436 -0.0094
 5125TIP3   OH237009   5.443   5.399   6.908  0.4982 -0.4073  0.4586
 5125TIP3    H137010   5.429   5.448   6.827 -0.2308  0.5389  1.1409
 5125TIP3    H237011   5.538   5.401   6.921  0.6490 -0.7961 -0.4978
 5126TIP3   OH237012   3.404   3.430   8.937  0.2781  0.0744 -0.5281
 5126TIP3    H137013   3.421   3.339   8.911 -0.9047 -0.2139 -0.3719
 5126TIP3    H237014   3.350   3.422   9.016 -0.6557  0.9040 -1.0631
 5127TIP3   OH237015   6.570   0.564   1.682  0.0404 -0.0997  0.3377
 5127TIP3    H137016   6.494   0.576   1.739 -1.8625  0.4905 -2.1692
 5127TIP3    H237017   6.546   0.605   1.599  2.1626 -1.9847 -1.3667
 5128TIP3   OH237018   3.815   5.039   2.378  0.0166 -0.6075  0.3011
 5128TIP3    H137019   3.736   5.092   2.367 -0.2962 -1.1012  0.1535
 5128TIP3    H237020   3.803   4.965   2.318  0.4647 -0.8329  0.4859
 5129TIP3   OH237021   2.190   2.732   1.599  0.0406  0.0232 -0.2976
 5129TIP3    H137022   2.127   2.711   1.530  0.3571 -1.3761 -0.1883
 5129TIP3    H237023   2.188   2.656   1.657  1.7614 -0.0344 -0.2639
 5130TIP3   OH237024   5.121   1.627   0.555 -0.4332 -0.6057 -0.0050
 5130TIP3    H137025   5.062   1.568   0.602 -1.4302  0.1823 -0.2177
 5130TIP3    H237026   5.078   1.713   0.561  0.4551 -0.0997 -0.5951
 5131TIP3   OH237027   4.020   2.174   1.790  0.3385 -0.0185 -0.4854
 5131TIP3    H137028   3.925   2.164   1.787  0.2209  0.2787  1.3045
 5131TIP3    H237029   4.049   2.104   1.848  1.1022  0.5607 -0.1627
 5132TIP3   OH237030   0.245   6.233   6.730 -0.5822  0.0002 -0.2835
 5132TIP3    H137031   0.323   6.284   6.705  0.7356 -1.3688  0.8075
 5132TIP3    H237032   0.235   6.250   6.823 -0.9582 -0.6640 -0.2019
 5133TIP3   OH237033   3.190   5.067   0.412  0.3918  0.4296  0.0869
 5133TIP3    H137034   3.136   5.144   0.395  0.3355  0.4299  0.2742
 5133TIP3    H237035   3.171   5.009   0.338 -1.0042 -0.1967  0.9099
 5134TIP3   OH237036   6.084   6.321   8.026 -0.1373 -0.3024 -0.3610
 5134TIP3    H137037   6.103   6.304   7.934 -1.9157  1.6134 -1.1639
 5134TIP3    H237038   6.085   6.234   8.067 -0.2123 -1.3183 -2.3621
 5135TIP3   OH237039   4.051   5.093   0.209 -0.0927  0.2328 -0.2636
 5135TIP3    H137040   3.994   5.037   0.262 -0.8579  0.3965 -0.8964
 5135TIP3    H237041   3.992   5.160   0.174  0.5041  0.4407 -0.8762
 5136TIP3   OH237042   4.623   1.668   0.341 -0.0761 -0.4881 -0.2633
 5136TIP3    H137043   4.608   1.634   0.429 -2.3353  0.2146 -0.3118
 5136TIP3    H237044   4.596   1.760   0.346  0.4675 -0.2395 -1.5172
 5137TIP3   OH237045   1.106   5.345   0.193 -0.4052  0.8333  0.4387
 5137TIP3    H137046   1.165   5.308   0.258  0.8725 -0.5434 -1.4086
 5137TIP3    H237047   1.057   5.412   0.241  1.0860  0.5052  2.5684
 5138TIP3   OH237048   5.918   6.393   0.567 -0.0517 -0.0077  0.3044
 5138TIP3    H137049   5.940   6.375   0.475 -1.8165  1.3076 -0.4285
 5138TIP3    H237050   5.855   6.326   0.591 -1.0003  0.7378 -0.0593
 5139TIP3   OH237051   0.930   6.037   7.569  0.1356  0.5427 -0.6094
 5139TIP3    H137052   0.986   6.042   7.492  0.6876 -0.3351 -0.2739
 5139TIP3    H237053   0.876   6.116   7.564  1.6013  1.5690 -0.7629
 5140TIP3   OH237054   4.327   3.015   0.362  0.1306  0.0498  0.0527
 5140TIP3    H137055   4.380   3.088   0.394  1.1908 -0.6258 -0.1392
 5140TIP3    H237056   4.344   3.011   0.268 -0.2076 -0.2157 -0.0007
 5141TIP3   OH237057   5.647   6.288   0.285  0.0939 -0.2890 -0.3124
 5141TIP3    H137058   5.678   6.334   0.363 -2.2902  0.4319  0.2939
 5141TIP3    H237059   5.616   6.357   0.227 -0.5731 -0.9597 -0.7737
 5142TIP3   OH237060   0.040   5.575   8.662 -0.4515  0.3178  0.0589
 5142TIP3    H137061  -0.038   5.626   8.639 -0.3857  0.3331 -0.1370
 5142TIP3    H237062   0.011   5.484   8.660 -0.6314  0.3604  0.6581
 5143TIP3   OH237063   5.044   5.222   8.553 -0.3082 -0.1322  0.9381
 5143TIP3    H137064   4.954   5.243   8.577 -0.5879 -0.0587 -0.1312
 5143TIP3    H237065   5.062   5.278   8.477  0.2461 -0.9763  0.4410
 5144TIP3   OH237066   5.013   6.726   7.273  0.3634 -0.1242  0.5552
 5144TIP3    H137067   5.104   6.717   7.244  0.5897  0.7390  0.9632
 5144TIP3    H237068   4.991   6.639   7.308  1.1229 -0.2606  0.7211
 5145TIP3   OH237069   3.705   5.091   6.786  0.0591  0.0428 -0.2564
 5145TIP3    H137070   3.657   5.174   6.787 -1.2415 -0.6208 -2.1044
 5145TIP3    H237071   3.778   5.106   6.727  0.8170  0.3366  0.7213
 5146TIP3   OH237072   6.080   1.489   0.274 -0.3594 -0.3523  0.0559
 5146TIP3    H137073   5.990   1.472   0.245 -0.2033 -0.3760 -0.4178
 5146TIP3    H237074   6.114   1.553   0.211  0.4347 -1.4236 -0.6347
 5147TIP3   OH237075   2.635   4.477   0.867 -0.0751 -0.4383  0.2583
 5147TIP3    H137076   2.712   4.533   0.866  1.4293 -2.3770  1.4659
 5147TIP3    H237077   2.655   4.408   0.804 -2.1472  0.5670 -1.6609
 5148TIP3   OH237078   2.968   3.426   8.228 -0.0656 -0.7641 -0.1789
 5148TIP3    H137079   3.043   3.377   8.195  0.4411 -1.1862  1.4872
 5148TIP3    H237080   2.983   3.433   8.322  0.4523  3.5617 -0.3755
 5149TIP3   OH237081   2.036   2.387   1.240  0.3439 -0.2309  0.3656
 5149TIP3    H137082   2.091   2.346   1.306  0.4842 -0.6829 -0.0216
 5149TIP3    H237083   2.096   2.408   1.168 -0.2082 -2.3707 -0.8403
 5150TIP3   OH237084   4.278   4.641   8.019  0.6386 -0.2174 -0.1634
 5150TIP3    H137085   4.278   4.588   8.098 -0.2510  1.4932  1.0575
 5150TIP3    H237086   4.239   4.585   7.952  0.9451 -1.5284  0.7194
 5151TIP3   OH237087   1.658   1.154   1.256  0.3109  0.4957 -0.4031
 5151TIP3    H137088   1.691   1.109   1.334 -0.1115  0.8706  0.0024
 5151TIP3    H237089   1.663   1.088   1.186  3.4853  1.0219 -0.7959
 5152TIP3   OH237090   5.355   4.371   0.944  0.3811  0.7961 -0.3652
 5152TIP3    H137091   5.330   4.463   0.949 -2.0886  0.1688  0.4413
 5152TIP3    H237092   5.321   4.333   1.025  2.0387 -0.7142 -0.3034
 5153TIP3   OH237093   1.657   4.633   0.406  0.4449 -0.1494  0.6209
 5153TIP3    H137094   1.642   4.698   0.337 -2.6114 -0.5837  0.7573
 5153TIP3    H237095   1.705   4.562   0.363  0.9939  0.7759 -0.3300
 5154TIP3   OH237096   1.073   2.620   1.471 -0.0602 -0.0444  0.8485
 5154TIP3    H137097   0.978   2.623   1.461 -0.0969 -0.4817  1.0627
 5154TIP3    H237098   1.094   2.701   1.518 -0.3632 -0.1054  1.0915
 5155TIP3   OH237099   5.006   2.196   0.463 -0.0220 -0.3428 -0.2148
 5155TIP3    H137100   5.045   2.128   0.518 -0.3175 -1.7899 -1.7299
 5155TIP3    H237101   5.081   2.250   0.436  0.1350  0.3722  1.5099
 5156TIP3   OH237102   3.697   5.129   8.078 -0.6202  0.2362  0.0828
 5156TIP3    H137103   3.773   5.165   8.123 -2.4092  2.6146  1.4547
 5156TIP3    H237104   3.716   5.142   7.985  1.0701 -0.2201  0.3274
 5157TIP3   OH237105   3.109   1.839   1.382 -0.8549 -0.0714  0.5232
 5157TIP3    H137106   3.060   1.818   1.461  1.4324  0.8785  2.3066
 5157TIP3    H237107   3.150   1.923   1.401  2.1392 -1.1997 -0.4459
 5158TIP3   OH237108   3.378   1.459   0.583 -0.1978  0.0631 -0.3582
 5158TIP3    H137109   3.303   1.516   0.564 -0.4349  0.6105  1.8954
 5158TIP3    H237110   3.340   1.386   0.633  0.8517  1.0374  2.0334
 5159TIP3   OH237111   5.331   5.151   0.982  0.1090 -0.7230 -0.2197
 5159TIP3    H137112   5.308   5.182   0.894 -2.4810 -0.7162  0.3846
 5159TIP3    H237113   5.426   5.163   0.987  0.1317  0.7187 -2.4561
 5160TIP3   OH237114   6.146   5.870   7.186  0.0941 -0.5176  0.0650
 5160TIP3    H137115   6.131   5.852   7.278 -2.6108 -0.1054 -0.2096
 5160TIP3    H237116   6.146   5.784   7.144  0.2802 -0.6423  0.3178
 5161TIP3   OH237117   3.055   4.030   7.395 -0.0168  0.3639  0.1963
 5161TIP3    H137118   3.053   4.039   7.490 -0.6032 -0.2436  0.2488
 5161TIP3    H237119   2.963   4.031   7.369  0.1703  1.3835 -0.4556
 5162TIP3   OH237120   3.432   5.130   0.534 -0.0315  0.3780 -0.3153
 5162TIP3    H137121   3.352   5.117   0.483  0.2678 -0.3630 -0.6061
 5162TIP3    H237122   3.502   5.097   0.477  0.4580  0.7928  0.0370
 5163TIP3   OH237123   4.798   1.359   0.449 -0.1306  0.3755  0.5274
 5163TIP3    H137124   4.775   1.414   0.374 -0.8724 -0.0962  0.3968
 5163TIP3    H237125   4.724   1.298   0.457  1.4049 -1.7497 -0.4097
 5164TIP3   OH237126   5.086   3.734   6.264 -0.1591 -0.3944 -0.1409
 5164TIP3    H137127   5.114   3.648   6.297  1.6592  0.5782  1.0746
 5164TIP3    H237128   5.127   3.797   6.324 -2.8290  1.3254  0.0574
 5165TIP3   OH237129   6.609   0.711   8.845  0.2017 -0.6254 -0.3093
 5165TIP3    H137130   6.574   0.795   8.817 -0.0389 -0.6017  0.0491
 5165TIP3    H237131   6.701   0.713   8.819  0.1561 -0.3208 -0.4496
 5166TIP3   OH237132   3.454   3.325   8.274 -0.5478  0.6604  0.1950
 5166TIP3    H137133   3.441   3.368   8.189 -2.0163  0.3769  0.2412
 5166TIP3    H237134   3.470   3.397   8.335 -2.1118  1.1149  0.1167
 5167TIP3   OH237135   5.591   2.558   0.057 -0.0175 -0.2463  0.1638
 5167TIP3    H137136   5.532   2.483   0.061 -0.1581 -0.1923 -0.7184
 5167TIP3    H237137   5.584   2.590  -0.033  0.8170  0.2044  0.2454
 5168TIP3   OH237138   2.552   3.292   1.670  0.1079 -0.0166  0.3912
 5168TIP3    H137139   2.533   3.384   1.689 -0.0263 -0.3150  1.8196
 5168TIP3    H237140   2.646   3.284   1.681  0.3832  0.2830 -1.3911
 5169TIP3   OH237141   0.047   0.181   6.607 -0.1295  0.0332  0.1878
 5169TIP3    H137142  -0.014   0.176   6.533  0.5959 -0.0555 -0.4168
 5169TIP3    H237143   0.059   0.090   6.633 -1.8116  0.1737  1.6356
 5170TIP3   OH237144   6.115   0.370   7.653 -0.8831 -0.0923  0.3503
 5170TIP3    H137145   6.092   0.287   7.610 -0.2728 -0.0706 -0.0377
 5170TIP3    H237146   6.172   0.344   7.725  0.4123  0.0692 -0.5785
 5171TIP3   OH237147   2.710   6.326   0.693  0.1445  0.4318 -0.0560
 5171TIP3    H137148   2.646   6.257   0.713  0.4964  0.6696  2.1425
 5171TIP3    H237149   2.662   6.408   0.703  0.6721  0.6033  1.3785
 5172TIP3   OH237150   4.335   5.063   0.785 -0.2739 -0.3084  0.1253
 5172TIP3    H137151   4.301   5.145   0.748  0.0176 -0.2156  0.0655
 5172TIP3    H237152   4.359   5.085   0.875  1.3860  0.1064 -0.3840
 5173TIP3   OH237153   4.461   3.765   0.711  0.0199  0.0228 -0.1334
 5173TIP3    H137154   4.435   3.771   0.803  0.8672  0.2213  0.1024
 5173TIP3    H237155   4.423   3.842   0.669  0.2626  0.3298  0.2108
 5174TIP3   OH237156   1.361   3.057   1.066  0.3142 -0.2157  0.1032
 5174TIP3    H137157   1.410   3.032   0.988 -0.7144  0.3619 -0.7599
 5174TIP3    H237158   1.271   3.032   1.047 -0.0805  0.6157  0.7992
 5175TIP3   OH237159   3.463   4.091   2.621 -0.0468  0.0503  0.3137
 5175TIP3    H137160   3.551   4.086   2.583  0.5544  2.5072  1.1572
 5175TIP3    H237161   3.407   4.121   2.550  0.3492  1.0138  0.3884
 5176TIP3   OH237162   1.063   6.665   1.665  0.4084 -0.4379  0.4885
 5176TIP3    H137163   1.141   6.715   1.690  0.3981 -0.3180  0.2847
 5176TIP3    H237164   1.097   6.591   1.615  0.4344 -0.7192  0.9167
 5177TIP3   OH237165   5.537   1.693   0.728  0.8639 -0.1181  0.2212
 5177TIP3    H137166   5.509   1.601   0.724 -0.8119  0.4225 -1.9633
 5177TIP3    H237167   5.481   1.732   0.795 -0.7323 -0.0231 -1.1061
 5178TIP3   OH237168   1.605   0.932   1.697 -0.0463  0.3736  0.2463
 5178TIP3    H137169   1.529   0.897   1.652  0.7465  0.0278 -0.8730
 5178TIP3    H237170   1.609   0.883   1.780  0.5000 -1.5853 -0.8827
 5179TIP3   OH237171   0.399   0.813   7.857 -0.0000 -0.1188  0.2403
 5179TIP3    H137172   0.321   0.767   7.890 -1.3373  1.8754  0.0179
 5179TIP3    H237173   0.428   0.761   7.782 -0.6312 -1.3169  0.7972
 5180TIP3   OH237174   2.180   3.550   0.052  0.5200 -0.0811  0.8359
 5180TIP3    H137175   2.200   3.489  -0.019 -1.7767 -0.3465  0.3453
 5180TIP3    H237176   2.263   3.558   0.100  1.4703 -1.8488 -0.3827
 5181TIP3   OH237177   5.397   0.049   0.737 -0.2685 -0.6845 -0.0860
 5181TIP3    H137178   5.342  -0.005   0.681 -0.7150 -0.7599  0.4158
 5181TIP3    H237179   5.432  -0.013   0.802 -0.0888 -0.5279 -0.0324
 5182TIP3   OH237180   1.870   5.948   1.901  0.8258 -0.5194 -0.1249
 5182TIP3    H137181   1.959   5.978   1.915  0.4125  0.8117 -0.2455
 5182TIP3    H237182   1.857   5.880   1.968  1.3623  0.4933  1.0435
 5183TIP3   OH237183   2.129   3.940   7.956 -0.5523 -0.4325 -0.6816
 5183TIP3    H137184   2.203   3.896   7.914 -0.3716  0.0739 -0.9037
 5183TIP3    H237185   2.077   3.974   7.884  0.9844  2.4893 -0.5680
 5184TIP3   OH237186   6.235   2.885   0.125  0.0289 -0.4372  0.3654
 5184TIP3    H137187   6.288   2.808   0.146  0.6067 -0.1065  0.1438
 5184TIP3    H237188   6.247   2.898   0.031 -1.1744 -0.8884  0.1308
 5185TIP3   OH237189   2.813   4.113   0.038 -0.3434  0.1845  0.4160
 5185TIP3    H137190   2.735   4.154   0.000 -0.3327 -0.7317 -0.6672
 5185TIP3    H237191   2.824   4.032  -0.012  0.8899 -0.0589  1.0379
 5186TIP3   OH237192   4.971   1.883   7.873 -0.2004  0.8065 -0.0550
 5186TIP3    H137193   4.907   1.812   7.868  0.3735  0.2730  0.0830
 5186TIP3    H237194   4.932   1.954   7.822 -0.2851  0.0104 -1.1364
 5187TIP3   OH237195   3.240   2.487   7.125  0.1018 -0.4748 -1.1324
 5187TIP3    H137196   3.190   2.568   7.119 -0.8671 -0.6488  2.1487
 5187TIP3    H237197   3.175   2.418   7.109  0.5446 -0.6441 -2.2443
 5188TIP3   OH237198   2.004   3.569   8.221  0.2932 -0.2489  0.1660
 5188TIP3    H137199   2.082   3.622   8.207 -0.5052  0.2285 -3.3483
 5188TIP3    H237200   2.021   3.488   8.173 -0.7777 -0.7569  0.6220
 5189TIP3   OH237201   0.408   0.144   1.068 -0.0107  0.1905 -0.6921
 5189TIP3    H137202   0.440   0.174   1.154 -1.3753 -0.4237  0.0579
 5189TIP3    H237203   0.480   0.092   1.033  0.9989  1.3676 -0.4257
 5190TIP3   OH237204   3.710   0.373   7.908 -0.0632 -0.1976  0.5133
 5190TIP3    H137205   3.726   0.455   7.861 -2.0474 -0.4264 -0.6380
 5190TIP3    H237206   3.791   0.324   7.898 -0.2053 -0.0171 -2.2531
 5191TIP3   OH237207   3.798   4.335   0.639  0.0155 -0.2030 -0.0987
 5191TIP3    H137208   3.794   4.282   0.718  0.5894 -0.7280 -0.4126
 5191TIP3    H237209   3.762   4.279   0.571 -0.3431  0.1930 -0.2398
 5192TIP3   OH237210   0.285   5.443   7.369 -0.4914 -0.5565 -0.2820
 5192TIP3    H137211   0.308   5.514   7.428  1.6922  1.0039 -2.7733
 5192TIP3    H237212   0.340   5.370   7.396  0.1652  0.0017 -0.0881
 5193TIP3   OH237213   1.534   5.692   8.291  0.1244  0.1675 -0.1767
 5193TIP3    H137214   1.523   5.769   8.236  0.1629  0.3957  0.1274
 5193TIP3    H237215   1.613   5.649   8.258 -0.5757 -0.4147 -1.1238
 5194TIP3   OH237216   4.912   0.567   0.784 -0.3760  0.4616 -0.0771
 5194TIP3    H137217   4.818   0.566   0.768 -0.4082 -0.0974  0.1012
 5194TIP3    H237218   4.946   0.495   0.731  0.1483  1.5189 -1.2099
 5195TIP3   OH237219   3.972   0.676   0.986 -0.0046  0.3774  0.0280
 5195TIP3    H137220   4.042   0.713   0.931 -0.9804  1.6185 -0.4243
 5195TIP3    H237221   3.921   0.621   0.926  0.4954 -0.4502  0.3369
 5196TIP3   OH237222   3.832   2.177   0.405  0.7136 -0.2457 -0.3671
 5196TIP3    H137223   3.851   2.167   0.498  1.5772  0.5471 -0.4464
 5196TIP3    H237224   3.905   2.228   0.371  1.2233 -1.8216 -1.7909
 5197TIP3   OH237225   0.782   5.813   7.284 -0.1509 -0.2999 -0.4533
 5197TIP3    H137226   0.781   5.909   7.277 -0.2484  0.0322  2.8098
 5197TIP3    H237227   0.707   5.785   7.231  0.6535  1.2742 -2.5431
 5198TIP3   OH237228   4.040   6.043   0.332 -0.1927 -0.1084  0.1195
 5198TIP3    H137229   4.108   5.979   0.311  0.1857 -0.0150  0.9787
 5198TIP3    H237230   4.030   6.035   0.427 -0.5015  0.7485  0.1626
 5199TIP3   OH237231   6.376   2.101   7.750  0.1725 -0.0387  0.1504
 5199TIP3    H137232   6.395   2.007   7.740 -0.3679 -0.2055  0.6883
 5199TIP3    H237233   6.435   2.130   7.819  0.2836  0.0061  0.0383
 5200TIP3   OH237234   6.111   0.727   8.662  0.6742  0.2069  0.3605
 5200TIP3    H137235   6.081   0.656   8.607 -0.5588  0.6539  0.4210
 5200TIP3    H237236   6.191   0.694   8.704  0.6830 -0.7419 -0.3924
 5201TIP3   OH237237   3.302   5.222   8.590  0.0284 -0.1020 -0.9129
 5201TIP3    H137238   3.314   5.258   8.678  0.4199 -2.4831  0.0675
 5201TIP3    H237239   3.315   5.297   8.531 -0.6784  1.6341  1.0408
 5202TIP3   OH237240   6.195   5.220   1.721 -0.4822  0.3899 -0.1775
 5202TIP3    H137241   6.228   5.134   1.694 -1.0443  0.6446 -1.7671
 5202TIP3    H237242   6.272   5.265   1.756 -0.1793 -0.7425  0.6838
 5203TIP3   OH237243   3.145   1.279   0.187 -0.5154 -0.1258  0.2337
 5203TIP3    H137244   3.154   1.190   0.222  1.3920 -0.2821 -0.5080
 5203TIP3    H237245   3.126   1.267   0.094 -0.3681  0.2466  0.1531
 5204TIP3   OH237246   2.213   2.502   6.354 -0.2049 -0.2733 -0.5014
 5204TIP3    H137247   2.126   2.499   6.315 -0.0109 -0.0223 -0.9747
 5204TIP3    H237248   2.200   2.538   6.441 -1.0897 -3.7951  0.9915
 5205TIP3   OH237249   6.397   6.767   0.393 -0.4095 -0.0740  0.9485
 5205TIP3    H137250   6.387   6.774   0.298  0.6568 -0.1905  0.8246
 5205TIP3    H237251   6.432   6.851   0.420  1.6109 -0.8565  0.9079
 5206TIP3   OH237252   0.579   5.341   6.638 -0.2823 -0.2654  0.0197
 5206TIP3    H137253   0.557   5.259   6.682 -1.2317 -0.5242 -0.9062
 5206TIP3    H237254   0.517   5.347   6.566  0.8525  0.4485 -0.9309
 5207TIP3   OH237255   0.456   6.356   0.975 -0.3860  0.3349  0.0715
 5207TIP3    H137256   0.479   6.300   1.049  0.3203  0.8501  0.2528
 5207TIP3    H237257   0.540   6.372   0.930 -0.3304  2.3027  0.7783
 5208TIP3   OH237258   2.259   2.147   8.522 -0.7066  0.2150  0.4044
 5208TIP3    H137259   2.209   2.229   8.519 -0.5268  0.2899 -0.9322
 5208TIP3    H237260   2.277   2.126   8.430 -0.5707 -1.2165  0.7359
 5209TIP3   OH237261   2.256   2.485   1.707 -0.2348  0.0717  0.1213
 5209TIP3    H137262   2.343   2.472   1.668  0.0823  0.0740  0.8224
 5209TIP3    H237263   2.273   2.522   1.794 -0.9413  0.1341  0.2437
 5210TIP3   OH237264   3.632   6.092   2.381  0.1971 -0.6996 -0.3283
 5210TIP3    H137265   3.647   6.129   2.468 -1.7981 -0.3726 -0.0808
 5210TIP3    H237266   3.707   6.122   2.330  0.5573  0.5317  0.8501
 5211TIP3   OH237267   3.685   3.773   0.140  0.1131  0.1148 -0.4635
 5211TIP3    H137268   3.656   3.857   0.175 -0.0821 -0.3862  0.6206
 5211TIP3    H237269   3.607   3.735   0.100 -0.3050 -0.3873  0.7648
 5212TIP3   OH237270   0.903   0.874   8.955  0.4175  0.6403 -0.0349
 5212TIP3    H137271   0.825   0.871   8.899  2.0680 -0.2579 -2.4904
 5212TIP3    H237272   0.958   0.942   8.916  1.1981  0.7009  1.1407
 5213TIP3   OH237273   2.351   0.713   7.662  0.2705 -0.0784  0.6809
 5213TIP3    H137274   2.398   0.640   7.703 -1.4280  0.1943  3.3226
 5213TIP3    H237275   2.382   0.791   7.708  2.0405  0.9992 -2.0856
 5214TIP3   OH237276   4.928   3.475   8.215  0.1532 -0.0965  0.3110
 5214TIP3    H137277   4.991   3.538   8.250  1.1050 -1.0326  0.3495
 5214TIP3    H237278   4.981   3.415   8.163 -0.6682 -1.0450  0.5352
 5215TIP3   OH237279   0.812   2.592   1.422 -0.6363 -0.4192 -0.3515
 5215TIP3    H137280   0.731   2.574   1.471 -0.1173 -1.8830  0.0003
 5215TIP3    H237281   0.785   2.655   1.355 -2.1477 -1.0973 -0.4292
 5216TIP3   OH237282   4.680   1.417   7.934  0.5144 -0.1408 -0.2957
 5216TIP3    H137283   4.705   1.398   8.024  0.0382  0.8544  0.0596
 5216TIP3    H237284   4.592   1.380   7.925  0.8143 -0.8076 -0.5598
 5217TIP3   OH237285   0.405   0.806   1.028  0.0931  0.5682  0.2964
 5217TIP3    H137286   0.493   0.777   1.051 -0.7529 -1.1236  1.5823
 5217TIP3    H237287   0.383   0.755   0.949 -0.2830 -0.1604  0.8581
 5218TIP3   OH237288   0.311   1.985   8.985 -0.7325  0.5044  0.7864
 5218TIP3    H137289   0.401   2.009   9.008 -0.9142  0.9498  1.0345
 5218TIP3    H237290   0.317   1.893   8.960 -0.2185  0.5098  0.8752
 5219TIP3   OH237291   2.350   4.555   0.924  0.1047 -0.6069  0.2610
 5219TIP3    H137292   2.367   4.508   1.005  0.2926  0.0999  0.6442
 5219TIP3    H237293   2.320   4.488   0.863 -0.3911 -1.0913  1.0158
 5220TIP3   OH237294   1.259   4.740   1.277 -0.4376 -0.0998  0.3779
 5220TIP3    H137295   1.254   4.688   1.357 -1.1130 -0.2638  0.2372
 5220TIP3    H237296   1.323   4.694   1.222 -1.8900 -1.4998 -0.2348
 5221TIP3   OH237297   0.177   0.248   2.129  0.0758  0.1351 -0.0017
 5221TIP3    H137298   0.090   0.280   2.106 -0.0470  0.1299  0.4423
 5221TIP3    H237299   0.168   0.218   2.220  0.8311  1.2008  0.4358
 5222TIP3   OH237300   3.573   6.299   1.996  0.1147  0.1143 -0.0559
 5222TIP3    H137301   3.604   6.212   2.020 -1.5139 -0.7642 -1.0422
 5222TIP3    H237302   3.499   6.315   2.055 -0.4678  0.2309 -0.8063
 5223TIP3   OH237303   3.888   5.809   1.268  0.9884  0.1983 -0.1460
 5223TIP3    H137304   3.970   5.812   1.219  0.4922 -1.5683 -1.2020
 5223TIP3    H237305   3.835   5.879   1.230  1.5138  0.4427 -0.4386
 5224TIP3   OH237306   1.869   6.325   7.424  0.0943  0.6684  0.4239
 5224TIP3    H137307   1.889   6.414   7.396 -1.2187  0.9532  0.3021
 5224TIP3    H237308   1.781   6.331   7.462 -0.3762 -0.7074 -0.3518
 5225TIP3   OH237309   1.802   1.927   1.403  0.6877 -0.1857  0.1763
 5225TIP3    H137310   1.822   1.984   1.328  1.8974 -1.5105 -0.5656
 5225TIP3    H237311   1.771   1.846   1.363  1.6582 -1.0313  1.0790
 5226TIP3   OH237312   2.971   2.366   0.891 -0.4014  0.6239 -0.1218
 5226TIP3    H137313   3.024   2.306   0.944 -0.2886 -0.4374 -1.3930
 5226TIP3    H237314   3.027   2.443   0.879 -1.2584  1.9326  3.1541
 5227TIP3   OH237315   2.818   1.114   0.475 -0.3627 -0.4607  0.2928
 5227TIP3    H137316   2.899   1.088   0.432 -1.4143 -2.3979 -0.6341
 5227TIP3    H237317   2.755   1.126   0.404 -0.7262  1.9639  0.9080
 5228TIP3   OH237318   3.194   1.353   1.069 -0.1102 -0.4721  0.3735
 5228TIP3    H137319   3.197   1.266   1.028 -2.0040 -0.7080  0.6140
 5228TIP3    H237320   3.109   1.355   1.113 -0.2230  1.5974  0.1578
 5229TIP3   OH237321   6.741   0.861   1.569 -0.1517  0.0102  0.9377
 5229TIP3    H137322   6.802   0.815   1.627  0.2427  1.3014  1.5715
 5229TIP3    H237323   6.750   0.816   1.485  0.0630 -1.2023  1.5800
 5230TIP3   OH237324   6.292   0.471   7.192  0.2328 -0.3142 -0.2003
 5230TIP3    H137325   6.275   0.496   7.101 -3.4183 -2.8039 -0.4542
 5230TIP3    H237326   6.228   0.521   7.243  2.2433  1.0566  1.0970
 5231TIP3   OH237327   1.144   4.133   1.324 -0.1420 -0.2618 -0.1948
 5231TIP3    H137328   1.215   4.189   1.354 -0.7737  0.3046  0.2734
 5231TIP3    H237329   1.127   4.075   1.398  0.5729 -1.1622 -0.7108
 5232TIP3   OH237330   5.638   4.739   1.239 -0.2309 -0.0362 -0.2488
 5232TIP3    H137331   5.545   4.740   1.263 -0.6673  0.8844 -1.8494
 5232TIP3    H237332   5.649   4.659   1.188 -0.5786  0.6890 -1.5141
 5233TIP3   OH237333   6.393   4.087   8.540  0.6742 -0.0127  0.0762
 5233TIP3    H137334   6.387   4.001   8.499  0.5280 -1.4185  2.7708
 5233TIP3    H237335   6.441   4.071   8.622 -1.5851  1.9062  1.9368
 5234TIP3   OH237336   1.536   4.191   7.660 -0.2471  0.1932  0.6407
 5234TIP3    H137337   1.522   4.252   7.588  0.6560  1.7869  1.7685
 5234TIP3    H237338   1.456   4.196   7.712 -0.6263 -0.4613  0.1465
 5235TIP3   OH237339   3.269   4.794   7.002 -0.1215 -0.1187  0.1856
 5235TIP3    H137340   3.227   4.747   7.074  0.4951 -1.6643 -0.4262
 5235TIP3    H237341   3.342   4.739   6.976 -1.1588 -0.3579 -2.5745
 5236TIP3   OH237342   0.447   0.250   7.172 -0.4354 -0.3438  0.2323
 5236TIP3    H137343   0.407   0.166   7.194  0.8335 -1.4021 -1.2694
 5236TIP3    H237344   0.441   0.301   7.253 -2.5077 -1.3291  0.7664
 5237TIP3   OH237345   5.139   0.369   0.955  0.2621 -0.3864 -0.2514
 5237TIP3    H137346   5.049   0.397   0.970 -0.4557 -2.3732 -0.5470
 5237TIP3    H237347   5.159   0.397   0.866 -0.8141 -1.6807 -0.9298
 5238TIP3   OH237348   3.545   0.842   8.457  0.1752 -0.7446  0.5580
 5238TIP3    H137349   3.633   0.804   8.459  0.1083 -0.9706  3.4572
 5238TIP3    H237350   3.494   0.786   8.517 -1.7368 -0.1148 -0.4113
 5239TIP3   OH237351   4.646   3.957   8.501  0.0198 -0.3342 -0.0492
 5239TIP3    H137352   4.706   3.994   8.566  0.1239 -1.3776  0.4668
 5239TIP3    H237353   4.696   3.887   8.460 -0.6951 -0.9276  0.0757
 5240TIP3   OH237354   3.304   2.068   1.106  0.5990 -0.4327  0.2674
 5240TIP3    H137355   3.351   2.096   1.184  0.3620  1.2482 -0.1590
 5240TIP3    H237356   3.355   2.105   1.033  0.9460 -2.1488 -0.4310
 5241TIP3   OH237357   5.438   3.191   7.992  0.1676 -0.0143 -0.0437
 5241TIP3    H137358   5.443   3.096   8.007 -1.6177 -0.0521  0.5537
 5241TIP3    H237359   5.506   3.228   8.048 -0.0163 -0.8593  0.7656
 5242TIP3   OH237360   1.904   2.275   0.605  0.6572  0.1213  0.1790
 5242TIP3    H137361   1.882   2.367   0.597 -0.4671 -0.0862  0.6899
 5242TIP3    H237362   1.820   2.230   0.611  1.1800 -0.9574 -0.1901
 5243TIP3   OH237363   1.664   2.642   7.697  0.0619  0.1466 -0.9588
 5243TIP3    H137364   1.693   2.557   7.732 -1.2830 -0.0444 -0.2515
 5243TIP3    H237365   1.693   2.706   7.762  3.1375  0.5768 -2.5813
 5244TIP3   OH237366   3.012   1.718   8.137 -0.1534  0.0847 -0.2101
 5244TIP3    H137367   3.041   1.636   8.175 -0.0797  0.9042  1.5855
 5244TIP3    H237368   3.035   1.711   8.044 -0.6600 -2.1206 -0.2248
 5245TIP3   OH237369   0.978   5.367   8.941  0.2119  0.1982  0.1644
 5245TIP3    H137370   0.955   5.453   8.907 -0.5075 -0.3668 -0.8195
 5245TIP3    H237371   1.024   5.386   9.023  0.1487  1.5126 -0.0740
 5246TIP3   OH237372   4.952   0.909   6.894  0.2301 -0.0701  0.1224
 5246TIP3    H137373   4.949   0.907   6.990  1.5878  2.0768  0.2918
 5246TIP3    H237374   4.900   0.986   6.870  0.3311 -0.2832 -0.8342
 5247TIP3   OH237375   2.778   1.141   8.148 -0.0445 -0.5754 -0.1519
 5247TIP3    H137376   2.745   1.159   8.236  0.8317  0.0420  0.0642
 5247TIP3    H237377   2.857   1.089   8.162 -0.0375 -0.6927 -0.5975
 5248TIP3   OH237378   1.545   5.312   7.416  0.2082 -0.0454  0.0071
 5248TIP3    H137379   1.559   5.218   7.429 -1.2798 -0.3947 -0.6632
 5248TIP3    H237380   1.610   5.354   7.472  2.2273 -1.4520 -1.1497
 5249TIP3   OH237381   3.676   5.031   8.397 -0.2192 -0.2382 -0.6363
 5249TIP3    H137382   3.753   5.068   8.355  1.3932 -0.5672  1.8219
 5249TIP3    H237383   3.602   5.078   8.357  1.2173  0.3124 -2.8425
 5250TIP3   OH237384   3.914   3.748   7.288  0.3989 -0.6002  0.4924
 5250TIP3    H137385   3.820   3.751   7.268  0.8935  0.0470 -2.0830
 5250TIP3    H237386   3.930   3.656   7.312 -0.9053 -0.6598  1.2367
 5251TIP3   OH237387   5.409   0.399   2.329  0.1406  0.3283 -0.8384
 5251TIP3    H137388   5.466   0.325   2.305 -0.4065 -0.0559 -0.9668
 5251TIP3    H237389   5.466   0.476   2.323  1.3747 -0.2899  1.5669
 5252TIP3   OH237390   1.111   0.346   8.915 -1.0080  0.7712 -0.5146
 5252TIP3    H137391   1.163   0.339   8.995  0.7438  1.1123 -1.5796
 5252TIP3    H237392   1.091   0.439   8.908 -1.3928  0.7031 -0.3446
 5253TIP3   OH237393   2.948   6.541   0.465  0.3434  0.0952 -0.5148
 5253TIP3    H137394   2.964   6.586   0.381  0.0529 -1.2461 -1.3089
 5253TIP3    H237395   2.899   6.463   0.442  0.5835 -0.4987  0.8808
 5254TIP3   OH237396   3.759   0.932   6.542  0.6264  0.3402  0.5756
 5254TIP3    H137397   3.725   0.855   6.589  0.2460  0.7083  0.9087
 5254TIP3    H237398   3.766   0.999   6.609 -1.1568  1.2806 -0.1357
 5255TIP3   OH237399   4.755   4.444   7.775 -0.7247 -0.0078 -0.2448
 5255TIP3    H137400   4.705   4.513   7.819 -1.6793 -1.0496  0.3735
 5255TIP3    H237401   4.817   4.413   7.841  0.0971  0.6370 -0.7063
 5256TIP3   OH237402   0.136   2.746   6.858 -0.2203  0.0773  0.2339
 5256TIP3    H137403   0.129   2.668   6.914 -0.5785  0.4454  0.7168
 5256TIP3    H237404   0.226   2.776   6.870  0.6185 -1.4743 -1.6330
 5257TIP3   OH237405   5.553   6.677   0.355 -0.1203 -0.7978  0.1267
 5257TIP3    H137406   5.466   6.716   0.346 -0.6464 -1.9439 -0.0347
 5257TIP3    H237407   5.541   6.606   0.418  0.7369 -0.8879  0.2061
 5258TIP3   OH237408   1.043   3.026   0.583 -0.2442  0.1477 -0.1018
 5258TIP3    H137409   0.975   2.972   0.623 -0.2335  0.1310 -0.1059
 5258TIP3    H237410   1.021   3.116   0.610 -0.6127  0.2099 -0.6019
 5259TIP3   OH237411   2.949   1.638   8.856 -0.7706 -0.2854 -0.4924
 5259TIP3    H137412   3.030   1.680   8.883 -0.1528 -2.5439  1.4738
 5259TIP3    H237413   2.883   1.670   8.918 -0.7648 -0.5745 -0.3356
 5260TIP3   OH237414   1.157   2.353   7.596 -0.7932  0.2923 -0.3796
 5260TIP3    H137415   1.099   2.307   7.535 -3.2702  0.7808  1.4212
 5260TIP3    H237416   1.101   2.419   7.636  1.5678  2.0879  0.1626
 5261TIP3   OH237417   5.968   3.809   1.837 -0.3137 -0.0500 -0.5286
 5261TIP3    H137418   5.898   3.746   1.851 -0.6218  0.1753 -1.0172
 5261TIP3    H237419   6.012   3.816   1.922 -1.6352  0.7103  0.1240
 5262TIP3   OH237420   3.855   3.436   8.890  0.0757  0.1374 -0.0570
 5262TIP3    H137421   3.900   3.513   8.854  1.2081 -0.1305  0.7481
 5262TIP3    H237422   3.851   3.453   8.984  0.5207 -0.8880  0.1538
 5263TIP3   OH237423   5.265   5.773   8.440  0.0530 -0.5158  0.0924
 5263TIP3    H137424   5.208   5.725   8.380 -0.7310 -0.5147  0.8188
 5263TIP3    H237425   5.345   5.720   8.445 -0.4162 -1.2325  0.1263
 5264TIP3   OH237426   4.524   4.864   8.322  0.2606  0.0160  0.0982
 5264TIP3    H137427   4.457   4.876   8.256  1.1560  2.3669 -0.4664
 5264TIP3    H237428   4.484   4.804   8.386 -0.8726 -1.7861 -2.1413
 5265TIP3   OH237429   5.394   4.582   1.264  0.8139 -0.4497  0.3960
 5265TIP3    H137430   5.321   4.526   1.290  1.0711 -0.5279  0.9724
 5265TIP3    H237431   5.465   4.558   1.324  0.1305  2.3509  2.5057
 5266TIP3   OH237432   3.897   1.024   1.641 -0.1466  0.0808 -0.1222
 5266TIP3    H137433   3.922   1.112   1.669 -0.5029  0.2212 -0.2449
 5266TIP3    H237434   3.981   0.979   1.625  0.0322  0.4773 -0.3172
 5267TIP3   OH237435   5.122   1.123   7.157  0.3570 -0.8212 -0.3351
 5267TIP3    H137436   5.202   1.110   7.106  0.4404  0.0856 -0.4500
 5267TIP3    H237437   5.055   1.144   7.092  0.0463 -1.4807 -0.2307
 5268TIP3   OH237438   3.642   5.504   8.005 -0.5510 -0.4767  0.2401
 5268TIP3    H137439   3.655   5.420   8.048 -0.6582  0.1946  1.6267
 5268TIP3    H237440   3.578   5.486   7.936  0.6172 -1.8508 -0.5461
 5269TIP3   OH237441   2.988   3.348   7.299  0.3615 -0.0676 -0.0938
 5269TIP3    H137442   3.001   3.370   7.392  1.6366  3.3399 -0.9348
 5269TIP3    H237443   3.077   3.340   7.265 -0.0294  1.0326 -1.4458
 5270TIP3   OH237444   5.236   1.456   8.268  0.3659 -0.8752  0.4436
 5270TIP3    H137445   5.249   1.373   8.313 -0.4571 -1.1092  0.2533
 5270TIP3    H237446   5.150   1.449   8.227  0.1425  0.1851  0.6879
 5271TIP3   OH237447   3.038   5.816   8.036 -0.1232 -0.0213  0.5112
 5271TIP3    H137448   2.962   5.801   7.980  0.2199  0.1304  0.0016
 5271TIP3    H237449   3.031   5.749   8.104  1.6354 -2.9609 -1.9840
 5272TIP3   OH237450   3.854   3.472   6.852  0.0172  0.3469 -0.4144
 5272TIP3    H137451   3.802   3.418   6.793  2.3347 -1.9099 -0.5816
 5272TIP3    H237452   3.875   3.413   6.925 -0.1389  2.1132  1.1458
 5273TIP3   OH237453   3.357   5.264   1.364 -0.1462  0.4648 -0.1592
 5273TIP3    H137454   3.363   5.315   1.445 -0.8813  0.2023  0.0697
 5273TIP3    H237455   3.283   5.206   1.378  2.0791 -2.4449  0.6128
 5274TIP3   OH237456   5.191   3.195   7.377 -0.6180  0.6487 -0.1285
 5274TIP3    H137457   5.243   3.157   7.306 -2.3481 -0.5626 -0.8061
 5274TIP3    H237458   5.104   3.157   7.367 -0.9666  0.5149  2.5916
 5275TIP3   OH237459   6.660   2.999   1.462  0.3658  0.3631 -0.3835
 5275TIP3    H137460   6.735   2.958   1.419  1.0669  1.2409 -0.0430
 5275TIP3    H237461   6.633   2.936   1.530  0.1361 -0.4056 -1.1753
 5276TIP3   OH237462   0.209   0.102   8.045  0.1136  0.0216 -0.0514
 5276TIP3    H137463   0.303   0.088   8.037  0.2680  1.3067 -0.7282
 5276TIP3    H237464   0.176   0.098   7.955 -0.4357 -0.1480  0.1533
 5277TIP3   OH237465   2.420   3.190   8.979  0.0689  0.2617 -0.0761
 5277TIP3    H137466   2.341   3.233   8.946 -0.3289  0.2621  0.8326
 5277TIP3    H237467   2.395   3.158   9.066 -0.1849 -3.2002 -1.2505
 5278TIP3   OH237468   4.115   5.757   1.733  0.5850 -0.0479 -0.1379
 5278TIP3    H137469   4.159   5.685   1.686  0.8140 -0.2377  0.3530
 5278TIP3    H237470   4.077   5.715   1.810  0.9876  0.4072  0.3178
 5279TIP3   OH237471   0.077   2.791   7.434  0.0441  0.1187  0.3135
 5279TIP3    H137472   0.136   2.814   7.362  0.1517 -1.6756 -0.2348
 5279TIP3    H237473   0.021   2.722   7.397  1.4249 -2.3316  2.4553
 5280TIP3   OH237474   3.429   1.432   1.982  0.3977 -0.4676  0.1781
 5280TIP3    H137475   3.350   1.439   1.928  0.6197 -1.3504 -0.2748
 5280TIP3    H237476   3.438   1.338   1.999 -0.2009 -0.1514  2.5790
 5281TIP3   OH237477   2.416   3.820   0.627  0.3373 -0.1578  0.1684
 5281TIP3    H137478   2.366   3.752   0.583 -0.8978  0.7328  0.1383
 5281TIP3    H237479   2.370   3.834   0.710  0.6998  0.4742  0.2734
 5282TIP3   OH237480   3.807   0.041   8.247  0.0564 -0.3106 -0.6860
 5282TIP3    H137481   3.785  -0.052   8.242 -0.2927 -0.2116 -1.0351
 5282TIP3    H237482   3.732   0.086   8.209  0.8081  0.0347 -1.8165
 5283TIP3   OH237483   5.090   2.405   8.155  0.0130 -0.7716  0.2622
 5283TIP3    H137484   5.022   2.472   8.147  0.9719  0.0877 -1.1316
 5283TIP3    H237485   5.061   2.335   8.096  0.8145  0.0493 -1.1514
 5284TIP3   OH237486   0.259   0.263   1.300  0.4142 -0.1699 -0.6434
 5284TIP3    H137487   0.262   0.246   1.394 -0.1663  2.9921  0.0498
 5284TIP3    H237488   0.194   0.201   1.267 -2.5307  1.3264  1.8194
 5285TIP3   OH237489   1.483   4.776   7.610 -0.1521 -0.0679 -0.4986
 5285TIP3    H137490   1.528   4.802   7.691  0.3417 -1.6307 -0.2440
 5285TIP3    H237491   1.511   4.842   7.546  0.1349  0.6991  0.3773
 5286TIP3   OH237492   3.651   4.854   0.186  0.4667  0.2520  0.2075
 5286TIP3    H137493   3.644   4.890   0.098  0.7353  2.4732  1.0139
 5286TIP3    H237494   3.679   4.763   0.173  0.7004  0.5745 -1.9682
 5287TIP3   OH237495   0.556   1.145   1.444 -0.0682  0.0238 -0.1393
 5287TIP3    H137496   0.542   1.053   1.467 -2.6514  0.5811  0.8191
 5287TIP3    H237497   0.572   1.188   1.527  1.5908  0.4302 -0.6291
 5288TIP3   OH237498   5.109   5.373   6.919  0.3568  0.2507  0.1709
 5288TIP3    H137499   5.101   5.468   6.921  0.3092  0.2380  0.7946
 5288TIP3    H237500   5.103   5.350   6.826  2.5907  1.0424 -0.2352
 5289TIP3   OH237501   5.480   2.776   1.590 -0.5381  0.2113 -0.2194
 5289TIP3    H137502   5.476   2.702   1.529 -1.4225  0.2426 -0.2144
 5289TIP3    H237503   5.530   2.743   1.665 -0.9768 -0.3976 -0.1919
 5290TIP3   OH237504   2.934   0.136   8.154  0.2339 -0.6219 -0.3595
 5290TIP3    H137505   2.983   0.084   8.091  0.9978  0.0278 -0.3181
 5290TIP3    H237506   2.846   0.142   8.117  0.8592  0.4122 -1.8049
 5291TIP3   OH237507   2.317   2.038   0.569 -0.9082 -0.1393 -0.1024
 5291TIP3    H137508   2.257   2.067   0.500  0.6866 -1.0893 -2.0086
 5291TIP3    H237509   2.389   2.101   0.566  0.4730 -1.6726 -1.2652
 5292TIP3   OH237510   2.398   0.663   7.140 -0.1936  0.0896  0.1735
 5292TIP3    H137511   2.475   0.607   7.132 -0.6075 -0.4735  0.0249
 5292TIP3    H237512   2.427   0.738   7.192  0.9906  0.8932 -1.5716
 5293TIP3   OH237513   6.465   3.483   0.262  0.0862  0.0820  0.5937
 5293TIP3    H137514   6.422   3.546   0.204 -0.2239  0.1350  0.8806
 5293TIP3    H237515   6.480   3.530   0.343  2.6369  0.7586 -0.1587
 5294TIP3   OH237516   3.856   3.112   0.055  0.0108  0.6003  0.0038
 5294TIP3    H137517   3.793   3.127  -0.017 -0.3663 -0.4538  0.0936
 5294TIP3    H237518   3.802   3.114   0.134  0.1206 -0.0387  0.1016
 5295TIP3   OH237519   6.455   6.238   0.390 -0.6524 -0.4015 -0.0669
 5295TIP3    H137520   6.504   6.319   0.370 -2.0103  0.8230  1.3363
 5295TIP3    H237521   6.404   6.221   0.311  1.4237 -1.3118 -1.2960
 5296TIP3   OH237522   3.430   4.896   6.361 -0.4360 -0.6851  0.1788
 5296TIP3    H137523   3.480   4.970   6.326 -1.4878 -0.1728 -0.2734
 5296TIP3    H237524   3.462   4.820   6.312  0.7281 -0.5608  0.7199
 5297TIP3   OH237525   4.220   6.409   7.319 -0.0042  0.0622 -0.0243
 5297TIP3    H137526   4.128   6.390   7.334 -0.2398  1.1856 -0.0180
 5297TIP3    H237527   4.251   6.448   7.401  0.1266  0.9403 -0.4795
 5298TIP3   OH237528   2.643   1.204   8.663  0.4047  0.2164 -0.4286
 5298TIP3    H137529   2.681   1.241   8.742  1.6061 -1.1076 -0.3509
 5298TIP3    H237530   2.710   1.219   8.595  1.0909 -2.0094 -0.3221
 5299TIP3   OH237531   2.803   0.136   7.436  0.1242  0.0399  0.2085
 5299TIP3    H137532   2.764   0.211   7.482  0.7742  0.4090  0.1631
 5299TIP3    H237533   2.729   0.095   7.391  0.0812  2.0509 -1.7411
 5300TIP3   OH237534   0.904   1.242   2.183 -0.6818  0.1479 -0.4005
 5300TIP3    H137535   0.976   1.179   2.185 -2.2864 -1.7996  0.1370
 5300TIP3    H237536   0.897   1.272   2.274 -1.6091 -1.0209 -0.0577
 5301TIP3   OH237537   5.216   3.871   8.740  0.3697  0.3323 -0.2384
 5301TIP3    H137538   5.169   3.885   8.657  0.1845 -0.2569 -0.2435
 5301TIP3    H237539   5.297   3.826   8.714  0.0813 -0.3041 -0.0610
 5302TIP3   OH237540   3.963   2.395   1.652  0.3229  0.3184 -0.2690
 5302TIP3    H137541   3.987   2.328   1.717 -0.3194  0.5340  0.1929
 5302TIP3    H237542   4.033   2.390   1.587 -0.7200 -2.2163 -1.3277
 5303TIP3   OH237543   1.064   1.642   1.648 -0.5750  0.3866  0.0819
 5303TIP3    H137544   0.970   1.653   1.630 -0.5206 -0.9053 -1.1255
 5303TIP3    H237545   1.100   1.730   1.638 -1.8020  1.1197  1.6373
 5304TIP3   OH237546   5.348   0.058   1.515 -0.1332  0.0304 -0.2256
 5304TIP3    H137547   5.313   0.111   1.586  0.4888  0.6398 -0.3637
 5304TIP3    H237548   5.425   0.015   1.552  1.2994  1.8041 -1.0210
 5305TIP3   OH237549   3.043   2.236   7.373 -0.2492 -0.4396 -0.2311
 5305TIP3    H137550   3.120   2.224   7.428 -0.3099  1.4339  0.3109
 5305TIP3    H237551   3.008   2.147   7.362  1.5886 -1.2351  0.0486
 5306TIP3   OH237552   5.041   1.372   0.633 -0.3966 -0.4839 -0.4946
 5306TIP3    H137553   4.952   1.337   0.633 -0.7759  0.3813  1.1867
 5306TIP3    H237554   5.078   1.342   0.716  0.8089 -0.5990 -1.0468
 5307TIP3   OH237555   4.398   0.236   6.481  0.2720  0.5168  0.4414
 5307TIP3    H137556   4.326   0.241   6.543  0.9069  0.5283  1.1943
 5307TIP3    H237557   4.389   0.150   6.440 -1.2267  1.2249 -0.8069
 5308TIP3   OH237558   4.675   3.302   1.637 -0.1417 -0.8264  0.2274
 5308TIP3    H137559   4.718   3.279   1.555  0.7777  0.1294  0.4127
 5308TIP3    H237560   4.672   3.221   1.687 -0.4912 -1.3614 -0.6502
 5309TIP3   OH237561   6.065   5.481   2.466 -0.4915  0.1798  0.1215
 5309TIP3    H137562   6.003   5.464   2.396 -1.3754 -0.8234  1.1056
 5309TIP3    H237563   6.130   5.411   2.458 -2.1040 -1.6826  1.9071
 5310TIP3   OH237564   5.205   1.920   8.642 -0.5612  0.2835 -0.3414
 5310TIP3    H137565   5.114   1.943   8.662 -0.4375  1.5094 -1.1152
 5310TIP3    H237566   5.202   1.826   8.623 -1.4097  0.0046  1.0220
 5311TIP3   OH237567   6.094   5.579   1.364 -0.4806 -0.2579 -0.8309
 5311TIP3    H137568   6.176   5.540   1.393 -0.0866  0.7743 -0.4987
 5311TIP3    H237569   6.093   5.666   1.403 -1.6613 -0.1852 -0.9693
 5312TIP3   OH237570   3.270   4.890   6.580 -0.2221  0.4711 -0.1628
 5312TIP3    H137571   3.314   4.814   6.618  0.5199  0.6295 -0.6778
 5312TIP3    H237572   3.278   4.876   6.485 -0.6572  0.8645 -0.2579
 5313TIP3   OH237573   4.101   5.651   0.841 -0.0862 -0.6880  0.6948
 5313TIP3    H137574   4.090   5.687   0.753  0.9495 -2.1861 -0.0802
 5313TIP3    H237575   4.149   5.720   0.888  2.0464 -1.0271 -0.8147
 5314TIP3   OH237576   2.411   2.688   7.485  0.3979  0.1024 -0.1691
 5314TIP3    H137577   2.352   2.653   7.419  1.6543 -0.0804 -1.2369
 5314TIP3    H237578   2.412   2.782   7.470  0.0190  0.1670  0.1752
 5315TIP3   OH237579   3.025   0.515   1.681 -0.4491  0.1138 -0.1398
 5315TIP3    H137580   3.053   0.506   1.773  0.9283  0.2314 -0.5207
 5315TIP3    H237581   3.019   0.424   1.650 -0.7943  0.0770  0.0338
 5316TIP3   OH237582   5.740   5.278   0.043 -0.2313 -0.4860  0.3109
 5316TIP3    H137583   5.803   5.334   0.088  1.1472 -1.5116 -0.2549
 5316TIP3    H237584   5.794   5.226  -0.017 -1.7623 -0.6213 -0.9967
 5317TIP3   OH237585   2.990   4.929   2.545  0.1597  0.1451  0.1841
 5317TIP3    H137586   3.039   4.847   2.549 -1.1829 -0.7942 -1.4851
 5317TIP3    H237587   3.039   4.989   2.602  4.0081 -0.3269 -2.2904
 5318TIP3   OH237588   4.315   6.011   0.570  0.3322  0.1897 -0.5520
 5318TIP3    H137589   4.255   5.947   0.531  2.0165 -0.6813 -1.8088
 5318TIP3    H237590   4.370   5.961   0.629  1.0561  0.6370 -0.8378
 5319TIP3   OH237591   3.742   0.906   1.452 -0.1004  0.3172 -0.7989
 5319TIP3    H137592   3.776   0.955   1.526 -1.3426 -2.0073  1.4930
 5319TIP3    H237593   3.797   0.828   1.447 -1.3312 -0.5766 -0.9032
 5320TIP3   OH237594   4.527   3.076   6.978 -0.5610 -1.0497 -0.5670
 5320TIP3    H137595   4.460   3.106   7.040 -1.0467  2.3022 -2.4208
 5320TIP3    H237596   4.477   3.049   6.901  0.1080 -0.5607 -1.1852
 5321TIP3   OH237597   0.385   5.486   7.085 -0.1126 -0.0467  0.0208
 5321TIP3    H137598   0.352   5.483   7.175  0.0685  0.9174  0.1311
 5321TIP3    H237599   0.309   5.469   7.030  0.2779 -3.7670  0.3742
 5322TIP3   OH237600   2.442   0.450   8.693  0.0920  0.1507 -0.2239
 5322TIP3    H137601   2.460   0.359   8.672  0.6046  0.4732 -1.2658
 5322TIP3    H237602   2.524   0.483   8.730 -0.4926 -0.1360  1.4253
 5323TIP3   OH237603   4.281   1.873   0.498  0.0153 -0.4132 -0.3018
 5323TIP3    H137604   4.192   1.855   0.529 -0.4422  0.9651 -0.7479
 5323TIP3    H237605   4.310   1.789   0.462 -0.0052 -1.6601  2.3480
 5324TIP3   OH237606   3.554   2.831   8.526  0.1046 -0.7655 -0.7135
 5324TIP3    H137607   3.500   2.752   8.530 -0.4441 -0.5120 -2.5610
 5324TIP3    H237608   3.494   2.903   8.543  0.2816 -0.6291 -0.6563
 5325TIP3   OH237609   1.221   3.501   7.712 -0.3582  0.2137 -0.1282
 5325TIP3    H137610   1.127   3.480   7.721 -0.2665 -0.1904 -0.0724
 5325TIP3    H237611   1.265   3.417   7.726  0.0905  0.6717  1.3563
 5326TIP3   OH237612   4.579   0.878   1.736  0.3645 -0.0496  0.5381
 5326TIP3    H137613   4.585   0.790   1.773 -2.5301 -0.6310 -0.1385
 5326TIP3    H237614   4.512   0.871   1.669  1.0520  2.4069 -0.5145
 5327TIP3   OH237615   2.149   0.807   7.435  0.2853 -0.2343  0.6065
 5327TIP3    H137616   2.131   0.898   7.456  0.1844 -0.5934  2.1709
 5327TIP3    H237617   2.147   0.804   7.339 -2.2780  0.8924  0.5438
 5328TIP3   OH237618   4.767   5.583   8.559 -0.3141 -0.1294 -0.1961
 5328TIP3    H137619   4.765   5.634   8.478 -0.8850 -1.3565 -0.9952
 5328TIP3    H237620   4.801   5.643   8.625  1.3819  0.5304 -1.6107
 5329TIP3   OH237621   3.258   1.858   0.638 -0.0401  0.3208 -0.1376
 5329TIP3    H137622   3.271   1.888   0.549 -0.4609  1.8208  0.2848
 5329TIP3    H237623   3.169   1.821   0.638  1.0304 -2.5649 -1.0460
 5330TIP3   OH237624   5.919   3.846   7.442 -0.7392 -0.4233 -0.0812
 5330TIP3    H137625   5.987   3.913   7.440 -1.1724  0.0555  0.7209
 5330TIP3    H237626   5.967   3.763   7.445 -0.1907 -0.2386 -2.3426
 5331TIP3   OH237627   5.357   1.621   7.793 -0.1656 -0.3851 -0.3371
 5331TIP3    H137628   5.339   1.565   7.868  0.6861 -0.9639 -0.5546
 5331TIP3    H237629   5.356   1.562   7.718 -1.6580  0.2841 -0.8855
 5332TIP3   OH237630   3.754   4.561   1.106  0.6907 -0.2009  0.2342
 5332TIP3    H137631   3.784   4.652   1.115  0.1320  0.0306 -0.2013
 5332TIP3    H237632   3.824   4.518   1.057  1.1701 -0.1188  0.8421
 5333TIP3   OH237633   6.199   6.524   0.097  0.2724  0.1212 -0.1496
 5333TIP3    H137634   6.273   6.582   0.078  0.1340  0.6888  0.9553
 5333TIP3    H237635   6.128   6.558   0.043 -0.1783  1.8349  1.4265
 5334TIP3   OH237636   3.777   1.793   6.999  0.0606  0.4564 -0.2224
 5334TIP3    H137637   3.844   1.770   7.063 -0.3131 -0.0332  0.0037
 5334TIP3    H237638   3.694   1.775   7.044 -0.2127 -1.1658 -1.2789
 5335TIP3   OH237639   2.542   4.326   7.917 -0.7689  1.0303 -0.0021
 5335TIP3    H137640   2.500   4.380   7.984 -0.1992  0.6866  0.6499
 5335TIP3    H237641   2.601   4.387   7.872  0.6105  0.7727  1.3818
 5336TIP3   OH237642   5.579   0.271   2.020 -0.0932 -0.7437 -0.3367
 5336TIP3    H137643   5.537   0.216   2.087  1.3984  1.0246  2.2593
 5336TIP3    H237644   5.665   0.232   2.007 -0.7174 -1.6304 -2.0403
 5337TIP3   OH237645   1.393   3.890   7.657  0.0546 -0.1624  0.0908
 5337TIP3    H137646   1.420   3.977   7.685  1.0015 -0.6903  0.8959
 5337TIP3    H237647   1.441   3.830   7.715  0.0425 -1.2372 -0.9566
 5338TIP3   OH237648   4.884   0.724   0.139 -0.0707  0.1546  0.4312
 5338TIP3    H137649   4.885   0.642   0.090 -1.4940 -0.2533  1.0286
 5338TIP3    H237650   4.857   0.698   0.228 -0.5383  1.2601  0.6278
 5339TIP3   OH237651   3.556   1.479   0.872 -0.1432  0.4894 -0.4319
 5339TIP3    H137652   3.541   1.405   0.932  0.6064  1.8016  1.4873
 5339TIP3    H237653   3.471   1.494   0.831 -0.9978  0.1908  1.1270
 5340TIP3   OH237654   3.755   3.161   8.490 -0.0707 -0.3727  0.3092
 5340TIP3    H137655   3.762   3.166   8.586  0.2577 -1.8669  0.3901
 5340TIP3    H237656   3.768   3.068   8.470 -1.1963 -0.2694 -1.1001
 5341TIP3   OH237657   5.819   1.078   1.368  0.4321  0.2994  0.8027
 5341TIP3    H137658   5.814   0.986   1.396  0.5745  0.2237  0.5723
 5341TIP3    H237659   5.777   1.126   1.440  0.8218  0.1052  1.1652
 5342TIP3   OH237660   4.744   0.879   7.482  0.0462 -0.3852 -0.5452
 5342TIP3    H137661   4.802   0.826   7.536 -0.9079 -0.8853  0.0079
 5342TIP3    H237662   4.730   0.827   7.403  1.2299  0.2323 -1.1983
 5343TIP3   OH237663   5.567   3.092   0.401  0.1870  0.4784 -0.1416
 5343TIP3    H137664   5.562   3.130   0.314 -1.3812  0.4128 -0.1207
 5343TIP3    H237665   5.482   3.113   0.440  0.8301  0.4379  1.3453
 5344TIP3   OH237666   0.994   2.262   0.723  0.2362  0.0440 -0.1342
 5344TIP3    H137667   1.005   2.280   0.816 -1.5810  0.5021  0.0293
 5344TIP3    H237668   1.009   2.167   0.715  0.4072 -0.0002  0.6089
 5345TIP3   OH237669   5.624   2.560   0.873 -0.7450 -0.2347  0.9773
 5345TIP3    H137670   5.668   2.631   0.919  0.8546 -0.8004  0.3825
 5345TIP3    H237671   5.576   2.603   0.802 -1.2329  0.3885  1.6610
 5346TIP3   OH237672   3.220   3.966   0.809 -0.5474 -0.0597  0.1238
 5346TIP3    H137673   3.284   3.900   0.836  0.2159  0.3525 -0.6554
 5346TIP3    H237674   3.272   4.044   0.791 -1.2765  0.2922 -0.5015
 5347TIP3   OH237675   2.728   1.935   0.585  0.2146 -0.9286 -0.1439
 5347TIP3    H137676   2.662   1.900   0.645  1.3289  1.5241  2.7468
 5347TIP3    H237677   2.810   1.896   0.614  0.6452 -0.5876 -0.8675
 5348TIP3   OH237678   4.269   4.210   6.433 -0.0460  0.3458 -0.5051
 5348TIP3    H137679   4.313   4.295   6.426 -1.4984  1.0831 -1.3627
 5348TIP3    H237680   4.327   4.149   6.389  1.8592  0.5107  1.6246
 5349TIP3   OH237681   2.612   4.094   0.744 -0.2175  0.1027  0.2506
 5349TIP3    H137682   2.666   4.134   0.811 -0.1095  0.5551 -0.0983
 5349TIP3    H237683   2.529   4.075   0.787  0.2142 -0.6062  0.7910
 5350TIP3   OH237684   4.113   6.618   2.168 -0.3487  0.4273  0.1917
 5350TIP3    H137685   4.160   6.699   2.149  0.7141  0.2198  1.7077
 5350TIP3    H237686   4.153   6.586   2.249  0.0214 -2.1849 -0.9361
 5351TIP3   OH237687   5.102   1.305   2.349  0.1015  0.1212  0.1505
 5351TIP3    H137688   5.144   1.371   2.294 -0.7824  2.1159  1.7554
 5351TIP3    H237689   5.028   1.274   2.296  0.6326  0.2697 -0.6964
 5352TIP3   OH237690   3.911   4.315   1.254 -0.1312 -0.4336 -0.6352
 5352TIP3    H137691   3.846   4.278   1.194 -0.6868  0.6713 -0.7454
 5352TIP3    H237692   3.876   4.298   1.341  0.1928 -1.1799 -0.6459
 5353TIP3   OH237693   0.551   1.604   7.291 -0.1040 -0.3483 -0.0240
 5353TIP3    H137694   0.568   1.513   7.316 -1.1746 -0.6014 -0.1582
 5353TIP3    H237695   0.467   1.600   7.246  0.9909  0.3248 -2.2692
 5354TIP3   OH237696   6.302   5.838   8.672  0.2427 -0.6420 -0.0299
 5354TIP3    H137697   6.269   5.803   8.590  1.0663  0.1566 -0.7275
 5354TIP3    H237698   6.315   5.762   8.728 -0.8945 -1.1377 -0.4202
 5355TIP3   OH237699   5.766   6.035   0.300  0.3644 -0.2282  0.0266
 5355TIP3    H137700   5.698   6.099   0.322  0.4330 -0.6818  1.7006
 5355TIP3    H237701   5.837   6.087   0.263 -0.0680  0.5008  0.1963
 5356TIP3   OH237702   1.441   0.232   8.151 -0.1649  0.4651 -0.4484
 5356TIP3    H137703   1.448   0.316   8.106 -3.0571  0.8061 -0.4455
 5356TIP3    H237704   1.443   0.167   8.080  1.6456  0.5079 -0.4805
 5357TIP3   OH237705   3.479   1.146   8.927  0.0115  0.1941  0.0269
 5357TIP3    H137706   3.494   1.068   8.979  0.8577 -0.0662 -0.5822
 5357TIP3    H237707   3.487   1.218   8.990  0.0285 -0.1661  0.4443
 5358TIP3   OH237708   0.239   2.104   8.396 -0.6815 -0.1200  0.4969
 5358TIP3    H137709   0.242   2.170   8.327  0.1800 -1.5966 -0.9452
 5358TIP3    H237710   0.197   2.149   8.470 -2.0673  1.3779 -1.0992
 5359TIP3   OH237711   5.233   5.851   2.274 -0.6298  0.1837  0.0454
 5359TIP3    H137712   5.238   5.846   2.370  1.0661  0.3120 -0.0144
 5359TIP3    H237713   5.322   5.836   2.244 -1.3995 -1.4295 -1.6105
 5360TIP3   OH237714   3.770   0.412   1.936  0.5583 -0.1662 -0.1305
 5360TIP3    H137715   3.780   0.497   1.893  1.4729 -0.7696 -1.1600
 5360TIP3    H237716   3.678   0.408   1.961 -0.2077 -0.0261 -2.6495
 5361TIP3   OH237717   1.822   4.304   1.847  0.2717  0.0575 -0.0001
 5361TIP3    H137718   1.899   4.301   1.791  1.6113  0.8343  1.6860
 5361TIP3    H237719   1.851   4.351   1.925 -1.3845 -1.2221  1.4891
 5362TIP3   OH237720   6.577   0.561   0.466  0.4591  0.3485  0.3419
 5362TIP3    H137721   6.611   0.560   0.376  1.6197  2.5290  0.6835
 5362TIP3    H237722   6.613   0.481   0.506 -0.0640 -0.6493 -1.0904
 5363TIP3   OH237723   2.570   6.639   6.426  0.2331  0.2077 -0.4089
 5363TIP3    H137724   2.529   6.634   6.512  1.4098  0.8058  0.2226
 5363TIP3    H237725   2.573   6.733   6.407  0.0915  0.0861 -1.0543
 5364TIP3   OH237726   6.741   5.495   1.030  0.3986 -0.5326  0.0802
 5364TIP3    H137727   6.750   5.559   0.959 -2.0118  0.8449  0.9025
 5364TIP3    H237728   6.800   5.528   1.098  0.7585 -0.3885 -0.2934
 5365TIP3   OH237729   0.086   6.211   8.967  0.2691 -0.0962  0.4661
 5365TIP3    H137730   0.115   6.121   8.954 -0.5328 -0.2835 -0.1050
 5365TIP3    H237731   0.007   6.219   8.912 -0.0548  0.7485  1.0365
 5366TIP3   OH237732   5.582   5.646   1.821 -0.4586 -0.1853 -0.1387
 5366TIP3    H137733   5.639   5.710   1.777  0.6082 -0.7474  0.3860
 5366TIP3    H237734   5.606   5.653   1.913  1.1151 -2.6572 -0.2505
 5367TIP3   OH237735   5.792   6.343   8.088  0.4484  0.6899 -0.6253
 5367TIP3    H137736   5.886   6.359   8.076  0.5940  0.5590  0.2771
 5367TIP3    H237737   5.749   6.399   8.023  1.1390  0.9101 -0.8987
 5368TIP3   OH237738   4.765   2.086   0.892 -0.2843 -0.2459 -0.1761
 5368TIP3    H137739   4.755   2.054   0.981 -1.2591  0.8456  0.1363
 5368TIP3    H237740   4.797   2.011   0.843  0.2780 -0.8589  1.0878
 5369TIP3   OH237741   3.467   3.008   1.850  0.0932  0.3260  0.0622
 5369TIP3    H137742   3.501   2.991   1.937  1.7742 -0.6378 -0.7485
 5369TIP3    H237743   3.449   2.921   1.813  1.4536  0.5908 -1.3137
 5370TIP3   OH237744   2.625   4.045   0.288  0.4127  0.1934 -0.1573
 5370TIP3    H137745   2.586   4.042   0.200 -3.5548 -2.8726  1.4089
 5370TIP3    H237746   2.685   3.971   0.290 -1.4949 -1.4367  0.3415
 5371TIP3   OH237747   0.762   3.262   1.037 -0.0104  0.1860 -0.2877
 5371TIP3    H137748   0.699   3.258   0.965  0.0638 -1.4842 -0.2841
 5371TIP3    H237749   0.708   3.270   1.116 -0.2858 -1.8348 -0.2333
 5372TIP3   OH237750   5.895   1.590   1.946 -0.4259 -0.1943  0.4530
 5372TIP3    H137751   5.985   1.610   1.920 -1.2193  1.6344 -1.0785
 5372TIP3    H237752   5.850   1.674   1.943 -2.4617 -1.2427  0.0764
 5373TIP3   OH237753   0.311   2.205   8.109 -0.2965  0.2736  0.0614
 5373TIP3    H137754   0.390   2.253   8.131 -0.1416  0.1189 -0.1557
 5373TIP3    H237755   0.339   2.114   8.100 -0.8687 -0.1520  2.0809
 5374TIP3   OH237756   3.917   6.162   0.606 -0.4939 -0.2320  0.2060
 5374TIP3    H137757   3.876   6.132   0.688 -0.5420 -0.4283  0.1099
 5374TIP3    H237758   3.960   6.244   0.630  0.7537 -1.0292  0.7798
 5375TIP3   OH237759   4.795   2.069   1.225 -0.3355  0.0389  1.1101
 5375TIP3    H137760   4.736   2.125   1.175 -0.1883  1.1211  2.0877
 5375TIP3    H237761   4.780   1.981   1.191 -0.0853  0.7310 -0.9533
 5376TIP3   OH237762   5.838   1.351   8.731 -0.7420  0.4485  0.3296
 5376TIP3    H137763   5.875   1.372   8.817  1.5422 -2.0505  0.0741
 5376TIP3    H237764   5.744   1.366   8.741 -0.5136  0.4449  3.2060
 5377TIP3   OH237765   3.101   3.112   6.238 -0.0004 -0.5312  0.6322
 5377TIP3    H137766   3.170   3.123   6.304  0.6846  1.4442 -0.3275
 5377TIP3    H237767   3.021   3.099   6.288  0.7258 -0.5601  1.8129
 5378TIP3   OH237768   5.975   2.112   1.419  0.3521 -0.7761  0.4663
 5378TIP3    H137769   5.983   2.024   1.455  0.0906 -0.8176  0.4204
 5378TIP3    H237770   6.032   2.112   1.342 -0.3895 -1.1917 -0.0864
 5379TIP3   OH237771   5.341   4.795   8.460 -0.4524 -0.4327  0.0147
 5379TIP3    H137772   5.307   4.706   8.455 -0.4834 -0.3628 -1.1860
 5379TIP3    H237773   5.265   4.851   8.446 -0.4401 -0.1979  0.8097
 5380TIP3   OH237774   2.092   5.435   1.484  0.1096 -0.1883  0.0202
 5380TIP3    H137775   2.014   5.407   1.435 -1.0853  1.3353  0.9843
 5380TIP3    H237776   2.112   5.522   1.451  0.8633 -0.1861  0.4512
 5381TIP3   OH237777   0.769   6.088   7.274  0.1811  0.4744  0.1204
 5381TIP3    H137778   0.679   6.120   7.270  0.1404  0.8276  2.5307
 5381TIP3    H237779   0.811   6.141   7.341  1.1966 -1.9564  1.5515
 5382TIP3   OH237780   1.707   1.898   1.818  0.1420 -0.5702 -0.0641
 5382TIP3    H137781   1.668   1.968   1.765  1.4254  1.2978  1.3192
 5382TIP3    H237782   1.640   1.878   1.884  0.6446  1.1454  1.0313
 5383TIP3   OH237783   2.023   1.269   1.192 -0.0703 -0.1909  0.1549
 5383TIP3    H137784   1.968   1.275   1.271 -0.4498 -2.0714  0.0798
 5383TIP3    H237785   2.068   1.353   1.188 -1.1868  0.5234  1.5334
 5384TIP3   OH237786   6.277   4.976   1.639  0.1296 -0.2258  0.5963
 5384TIP3    H137787   6.297   4.941   1.726 -0.2428 -0.5247  0.5621
 5384TIP3    H237788   6.351   4.947   1.585  0.4956  0.1848  0.8681
 5385TIP3   OH237789   3.444   4.996   6.896 -0.4219 -0.2134 -0.5508
 5385TIP3    H137790   3.411   4.946   6.971 -1.2670  0.1534 -0.6681
 5385TIP3    H237791   3.376   5.061   6.878 -0.0803 -0.0803 -1.4279
 5386TIP3   OH237792   1.523   3.481   0.828  0.0820  0.5958 -0.5441
 5386TIP3    H137793   1.534   3.390   0.799 -1.3631  0.5160 -0.9296
 5386TIP3    H237794   1.545   3.479   0.922  2.7718  0.4435 -1.0868
 5387TIP3   OH237795   4.746   6.097   8.955 -0.1821 -0.0100  0.0225
 5387TIP3    H137796   4.781   6.116   8.868  0.0554 -1.7951 -0.3126
 5387TIP3    H237797   4.781   6.011   8.977  0.9164  0.9749  2.5212
 5388TIP3   OH237798   2.341   5.914   7.384 -0.0654  0.2138 -0.7631
 5388TIP3    H137799   2.361   5.998   7.423 -3.1050  0.7285 -0.0387
 5388TIP3    H237800   2.336   5.932   7.290  1.5737  0.2717 -0.8601
 5389TIP3   OH237801   1.416   1.334   6.395  0.6483  0.3297 -0.1705
 5389TIP3    H137802   1.466   1.379   6.327  1.2682 -0.4559 -0.2393
 5389TIP3    H237803   1.359   1.402   6.431  0.6367  0.8644 -1.1607
 5390TIP3   OH237804   4.457   2.577   0.508  0.8871 -0.1082 -0.6307
 5390TIP3    H137805   4.380   2.614   0.465  1.1011 -0.3816 -1.2569
 5390TIP3    H237806   4.435   2.484   0.519  0.6078  0.0670  0.3621
 5391TIP3   OH237807   6.592   6.642   6.966 -0.0306 -0.0798  0.0736
 5391TIP3    H137808   6.683   6.655   6.990  0.4207 -1.7224 -0.6388
 5391TIP3    H237809   6.567   6.724   6.922  1.9537 -0.5742 -2.1879
 5392TIP3   OH237810   2.835   3.110   7.270 -0.3819  0.2107 -0.4529
 5392TIP3    H137811   2.876   3.196   7.258 -0.8651  0.5864  0.4861
 5392TIP3    H237812   2.908   3.051   7.290 -0.0931  0.4840 -0.6965
 5393TIP3   OH237813   4.234   3.691   8.660 -0.4259 -0.3698  0.6174
 5393TIP3    H137814   4.205   3.625   8.598  1.6946  0.0720 -0.9701
 5393TIP3    H237815   4.326   3.670   8.677 -0.2341  1.0450  1.5914
 5394TIP3   OH237816   2.719   0.728   1.174  0.0744 -0.6887  0.0960
 5394TIP3    H137817   2.747   0.774   1.094 -1.5260 -1.3629 -0.9117
 5394TIP3    H237818   2.761   0.776   1.245  1.5379 -0.0370 -1.1330
 5395TIP3   OH237819   4.457   5.801   0.743  1.0794 -0.1852  0.4467
 5395TIP3    H137820   4.493   5.871   0.797  1.2607 -0.1305  0.2538
 5395TIP3    H237821   4.505   5.723   0.768  0.9707 -0.2141  0.5645
 5396TIP3   OH237822   2.029   6.741   1.510 -0.4871  0.1388 -0.3178
 5396TIP3    H137823   2.070   6.810   1.563  2.1628 -0.9900 -0.7386
 5396TIP3    H237824   2.020   6.780   1.423  0.9339  0.0542 -0.5361
 5397TIP3   OH237825   3.513   3.545   8.414 -0.1454 -0.2732 -0.2853
 5397TIP3    H137826   3.581   3.586   8.469 -0.0101 -0.5270 -0.2622
 5397TIP3    H237827   3.479   3.617   8.361  0.3856 -0.2083 -0.5489
 5398TIP3   OH237828   3.989   3.753   8.392  0.7821  0.7560 -0.0472
 5398TIP3    H137829   3.938   3.791   8.464  3.1980  2.7691  0.7328
 5398TIP3    H237830   4.047   3.690   8.434  2.5182  2.2663 -0.0848
 5399TIP3   OH237831   0.918   0.034   8.141 -0.1650  0.3813 -0.0275
 5399TIP3    H137832   0.933   0.111   8.087  0.4154  0.6591  0.5257
 5399TIP3    H237833   0.826   0.041   8.167  0.8309  3.1980  3.5028
 5400TIP3   OH237834   0.348   2.205   0.736  0.8463 -0.0840 -0.2173
 5400TIP3    H137835   0.298   2.155   0.800  0.9345  0.8263  0.5714
 5400TIP3    H237836   0.344   2.152   0.656 -0.2868 -0.6387  0.1886
 5401TIP3   OH237837   3.463   6.401   8.390  0.4144  0.5583  0.1548
 5401TIP3    H137838   3.442   6.441   8.306 -1.0574 -0.2322  0.1273
 5401TIP3    H237839   3.521   6.328   8.369 -1.0529 -0.5102 -0.3663
 5402TIP3   OH237840   3.177   3.466   0.914 -0.3469 -0.0698  0.2268
 5402TIP3    H137841   3.126   3.498   0.840  0.1211  0.7029  0.2384
 5402TIP3    H237842   3.111   3.431   0.974 -0.9114  1.2686  0.4198
 5403TIP3   OH237843   5.141   5.123   7.295 -0.0911  0.2419  0.1022
 5403TIP3    H137844   5.128   5.217   7.299 -0.6299  0.1272  1.2940
 5403TIP3    H237845   5.056   5.085   7.318 -0.0724 -0.5476 -1.0236
 5404TIP3   OH237846   5.034   4.931   1.378 -0.0404  0.1465 -0.0210
 5404TIP3    H137847   4.966   4.985   1.420 -0.5427 -1.3135  1.1354
 5404TIP3    H237848   5.113   4.949   1.428 -0.0718  0.2372 -0.0036
 5405TIP3   OH237849   3.250   5.196   6.879  0.5851 -0.2974 -1.0458
 5405TIP3    H137850   3.295   5.277   6.857  0.8310 -0.1710 -0.1222
 5405TIP3    H237851   3.181   5.223   6.940 -0.4953 -0.5415 -2.1182
 5406TIP3   OH237852   6.430   2.309   7.566 -0.6906 -0.3877  0.2178
 5406TIP3    H137853   6.351   2.328   7.515 -0.1914 -0.1143 -0.4795
 5406TIP3    H237854   6.400   2.253   7.637 -1.9689  1.7886  1.4993
 5407TIP3   OH237855   4.627   2.550   7.631  0.1162 -0.1111  0.0362
 5407TIP3    H137856   4.646   2.500   7.551  0.7797 -1.5231  1.0257
 5407TIP3    H237857   4.686   2.625   7.628  0.3499 -0.3165 -0.6626
 5408TIP3   OH237858   1.727   4.121   0.266 -0.3573  0.0621 -0.2258
 5408TIP3    H137859   1.674   4.200   0.277 -0.3639 -0.0362  0.4987
 5408TIP3    H237860   1.669   4.060   0.221 -1.2509 -0.3983  1.4602
 5409TIP3   OH237861   0.302   5.682   0.433 -0.1905 -0.3713  0.6396
 5409TIP3    H137862   0.363   5.658   0.364  1.4593 -1.9345  2.4933
 5409TIP3    H237863   0.255   5.758   0.400  2.9679  1.0935 -0.8166
 5410TIP3   OH237864   1.488   3.977   1.365  0.0693  0.4982 -0.2062
 5410TIP3    H137865   1.564   4.018   1.323  0.4327 -1.2321 -1.3423
 5410TIP3    H237866   1.519   3.951   1.451  1.4669 -1.8649 -1.3008
 5411TIP3   OH237867   0.672   0.965   8.824 -0.4047 -0.4105  0.2398
 5411TIP3    H137868   0.614   0.987   8.751 -1.8124 -3.9448  0.1132
 5411TIP3    H237869   0.613   0.963   8.900  0.1748 -1.0766  0.6746
 5412TIP3   OH237870   5.060   1.551   7.898  0.0692 -0.1094 -0.0167
 5412TIP3    H137871   5.049   1.489   7.970 -3.8224 -1.0428 -1.1629
 5412TIP3    H237872   5.038   1.501   7.819  1.4734  1.5670 -1.5715
 5413TIP3   OH237873   6.402   1.102   1.328  0.5739 -0.5148 -0.2322
 5413TIP3    H137874   6.452   1.039   1.277 -2.5102 -2.6893 -0.8385
 5413TIP3    H237875   6.311   1.089   1.300 -0.5939  1.9402  2.0158
 5414TIP3   OH237876   5.308   2.838   6.288 -0.4966  0.3182 -0.0351
 5414TIP3    H137877   5.215   2.837   6.263 -0.7872  0.5035  0.9837
 5414TIP3    H237878   5.333   2.746   6.294 -0.8756  0.2460  0.5672
 5415TIP3   OH237879   3.944   2.439   8.755  0.1148  0.6759  0.7347
 5415TIP3    H137880   3.852   2.414   8.747  0.7704 -1.5452 -0.7757
 5415TIP3    H237881   3.943   2.517   8.811 -2.7153  1.1263  0.2008
 5416TIP3   OH237882   1.127   6.456   1.183 -0.0646 -0.1146 -0.9110
 5416TIP3    H137883   1.091   6.458   1.271  2.6527  1.8192  0.2922
 5416TIP3    H237884   1.145   6.363   1.167 -0.3377 -0.4779  0.6985
 5417TIP3   OH237885   1.690   6.720   1.739  0.0435 -0.3216 -0.8226
 5417TIP3    H137886   1.660   6.722   1.829 -0.5712  0.4983 -1.0347
 5417TIP3    H237887   1.698   6.627   1.718  3.6607 -0.6556  1.1704
 5418TIP3   OH237888   2.323   5.188   8.816 -0.3636  0.2633 -0.9412
 5418TIP3    H137889   2.365   5.267   8.849 -2.0566  0.8187  0.0321
 5418TIP3    H237890   2.370   5.116   8.858  2.9890  0.4764 -3.8819
 5419TIP3   OH237891   1.490   3.712   7.845  0.8444 -0.2307 -0.1639
 5419TIP3    H137892   1.556   3.739   7.908  0.3922  0.9511 -0.1736
 5419TIP3    H237893   1.525   3.632   7.806  1.8366 -0.1206  0.4797
 5420TIP3   OH237894   6.431   6.583   7.925  0.0807  0.0021 -0.2700
 5420TIP3    H137895   6.342   6.565   7.893 -0.7362  0.5237  1.5573
 5420TIP3    H237896   6.460   6.501   7.964 -0.3385  0.3043  0.7127
 5421TIP3   OH237897   1.939   1.952   0.570  0.1132 -0.0054  0.2480
 5421TIP3    H137898   1.929   2.016   0.641 -1.6306  1.4906 -1.2633
 5421TIP3    H237899   2.031   1.961   0.543  0.1819  1.0813  0.7831
 5422TIP3   OH237900   0.532   5.448   0.797  0.4403 -0.1579  0.1473
 5422TIP3    H137901   0.625   5.452   0.820  0.6681  0.8227 -0.8533
 5422TIP3    H237902   0.531   5.413   0.708 -0.1426 -0.0108  0.0930
 5423TIP3   OH237903   1.205   0.751   0.167  0.1438  0.0307  0.0500
 5423TIP3    H137904   1.180   0.746   0.259  0.2376  1.1613  0.1549
 5423TIP3    H237905   1.134   0.708   0.120  0.1143 -0.5943  0.6452
 5424TIP3   OH237906   3.482   5.351   7.156 -0.4118  0.5166  0.4201
 5424TIP3    H137907   3.392   5.360   7.124 -0.2009 -0.5442 -0.5698
 5424TIP3    H237908   3.477   5.373   7.249 -1.4194  1.8439  0.0801
 5425TIP3   OH237909   2.039   4.287   1.704 -0.3202  0.0105 -0.3435
 5425TIP3    H137910   2.021   4.250   1.617  0.7996  1.6133 -1.3163
 5425TIP3    H237911   2.094   4.363   1.686 -1.2410  1.2173  1.6874
 5426TIP3   OH237912   1.181   2.460   0.031 -0.4293 -0.2837  0.2468
 5426TIP3    H137913   1.096   2.433  -0.002 -0.2698  1.1225 -1.4634
 5426TIP3    H237914   1.162   2.524   0.100 -0.7326 -1.2414  1.0832
 5427TIP3   OH237915   6.527   2.549   0.779 -0.9143 -0.1819 -0.1036
 5427TIP3    H137916   6.609   2.569   0.824 -0.6749 -0.6344 -0.3368
 5427TIP3    H237917   6.463   2.607   0.820 -1.0270 -1.6195  1.8762
 5428TIP3   OH237918   0.845   1.830   6.608 -0.4710 -0.2976  0.1432
 5428TIP3    H137919   0.940   1.815   6.613 -0.1986  0.8815 -0.9530
 5428TIP3    H237920   0.807   1.747   6.636  0.8907 -1.3380 -0.9265
 5429TIP3   OH237921   1.048   4.038   7.336  0.7090 -0.6643 -0.4595
 5429TIP3    H137922   0.995   4.053   7.414  1.9111  0.8798  0.1039
 5429TIP3    H237923   0.996   4.074   7.264  0.3401 -0.5648 -0.1418
 5430TIP3   OH237924   3.648   3.443   0.357  0.1825  0.0040 -0.3146
 5430TIP3    H137925   3.571   3.388   0.370  0.0788  0.5453  1.6366
 5430TIP3    H237926   3.614   3.522   0.316 -0.7519  1.1754  2.5079
 5431TIP3   OH237927   1.180   5.463   8.247 -0.2030  0.3351 -0.4544
 5431TIP3    H137928   1.115   5.533   8.247  0.6480  1.1711  0.6649
 5431TIP3    H237929   1.238   5.484   8.321  2.9127  1.1191 -2.9037
 5432TIP3   OH237930   5.889   1.858   0.409  0.5908 -0.2969  0.1756
 5432TIP3    H137931   5.882   1.769   0.443  0.7720  0.4547  2.3600
 5432TIP3    H237932   5.972   1.891   0.443  0.8181  0.5330 -1.0944
 5433TIP3   OH237933   5.758   4.762   0.430  0.3068 -0.2837 -0.1296
 5433TIP3    H137934   5.775   4.694   0.364 -0.6553 -1.1337  0.4583
 5433TIP3    H237935   5.845   4.784   0.464  0.5889 -1.9278  0.3249
 5434TIP3   OH237936   6.439   1.158   7.375  0.1857  0.4351 -0.2521
 5434TIP3    H137937   6.357   1.119   7.406 -0.1544  1.9410  0.9339
 5434TIP3    H237938   6.458   1.114   7.293 -0.1364 -2.1555  0.9549
 5435TIP3   OH237939   4.249   3.658   1.651  0.4411  0.2384 -0.1232
 5435TIP3    H137940   4.221   3.573   1.684 -0.3882  1.1414  1.6690
 5435TIP3    H237941   4.167   3.703   1.628  0.7695  0.9532  0.0690
 5436TIP3   OH237942   6.038   1.630   2.535  0.1048  0.4224 -0.0554
 5436TIP3    H137943   6.107   1.685   2.498  0.4381  1.6750  2.2547
 5436TIP3    H237944   5.972   1.692   2.565  0.3847 -0.3792  2.4233
 5437TIP3   OH237945   1.595   4.838   1.273  0.1398  0.3277 -0.1203
 5437TIP3    H137946   1.595   4.778   1.198 -1.1651 -1.8262  1.4817
 5437TIP3    H237947   1.551   4.916   1.241 -2.5290 -1.4038 -1.0347
 5438TIP3   OH237948   2.582   4.480   8.912  0.2194 -0.1490 -0.0357
 5438TIP3    H137949   2.554   4.570   8.896 -0.4257 -0.4354 -0.5343
 5438TIP3    H237950   2.592   4.474   9.007 -0.3129  0.2815  0.0487
 5439TIP3   OH237951   3.630   1.425   2.380  0.0107 -0.0647 -0.5166
 5439TIP3    H137952   3.623   1.482   2.457 -1.0845  0.2590 -0.8232
 5439TIP3    H237953   3.702   1.461   2.330 -0.6364  1.0524 -0.6809
 5440TIP3   OH237954   6.039   1.202   8.866  0.5298 -0.1460 -0.1989
 5440TIP3    H137955   5.976   1.241   8.926 -0.3870  0.3708 -1.4474
 5440TIP3    H237956   6.112   1.175   8.921 -0.7927 -0.7989  1.3024
 5441TIP3   OH237957   4.122   3.122   6.786 -0.0597 -0.2318 -0.3384
 5441TIP3    H137958   4.117   3.110   6.881 -2.3699 -0.6942 -0.4666
 5441TIP3    H237959   4.103   3.214   6.772 -0.1227 -0.2495 -0.3697
 5442TIP3   OH237960   0.182   4.736   8.487  0.1611  0.0458 -0.4489
 5442TIP3    H137961   0.184   4.807   8.422  0.6002  0.3617 -0.0986
 5442TIP3    H237962   0.238   4.668   8.450  0.8076  0.4243 -0.1859
 5443TIP3   OH237963   5.806   1.387   0.260 -0.3185  0.4800 -0.0456
 5443TIP3    H137964   5.807   1.385   0.356 -0.7282 -1.0748 -0.0424
 5443TIP3    H237965   5.754   1.464   0.238 -0.1266  0.9222  0.9727
 5444TIP3   OH237966   1.234   4.776   0.327  0.1427 -0.1275 -0.1280
 5444TIP3    H137967   1.310   4.813   0.282 -0.0155  1.9878  1.2424
 5444TIP3    H237968   1.211   4.840   0.393 -2.5099 -0.9833 -0.0993
 5445TIP3   OH237969   1.925   6.091   7.289 -0.1424 -0.4888 -0.3812
 5445TIP3    H137970   1.887   6.171   7.326  0.6977 -0.4234  0.3812
 5445TIP3    H237971   1.952   6.116   7.200 -0.9453 -0.2627 -0.5714
 5446TIP3   OH237972   5.306   2.343   8.486 -0.3151 -0.2596  0.0498
 5446TIP3    H137973   5.252   2.266   8.509 -1.2395  1.0400  2.6907
 5446TIP3    H237974   5.343   2.371   8.570 -0.0580  2.2110 -0.8225
 5447TIP3   OH237975   3.302   0.916   8.006 -0.5325 -0.0864  0.2284
 5447TIP3    H137976   3.237   0.947   8.069  1.0548 -0.0851  1.9566
 5447TIP3    H237977   3.327   0.829   8.039  0.7848  0.1788  0.0128
 5448TIP3   OH237978   2.510   2.780   7.735  0.3610 -0.5659 -0.1198
 5448TIP3    H137979   2.604   2.761   7.743  0.2153 -1.8908 -1.2905
 5448TIP3    H237980   2.487   2.753   7.646 -0.9426  0.6479 -0.1834
 5449TIP3   OH237981   1.506   4.944   0.810 -0.3226 -0.3871 -0.5303
 5449TIP3    H137982   1.563   4.900   0.872  1.9905  1.1705 -1.3977
 5449TIP3    H237983   1.429   4.888   0.803  0.8792 -2.3499  1.0786
 5450TIP3   OH237984   5.811   0.990   0.023  1.0909  0.5041  0.3328
 5450TIP3    H137985   5.823   0.968  -0.070  3.4771 -0.1512  0.7391
 5450TIP3    H237986   5.834   1.082   0.029  1.8198  0.3241  0.3989
 5451TIP3   OH237987   6.504   4.349   0.107 -0.5109  0.2080  0.0308
 5451TIP3    H137988   6.540   4.261   0.099 -1.0484  0.0649 -1.1245
 5451TIP3    H237989   6.437   4.341   0.175  0.5412  0.1261  1.0900
 5452TIP3   OH237990   1.832   1.427   6.368  0.4268 -0.5311 -0.2011
 5452TIP3    H137991   1.904   1.373   6.336 -1.5480 -2.6483 -1.3185
 5452TIP3    H237992   1.792   1.376   6.438 -0.9776 -0.1648 -0.7023
 5453TIP3   OH237993   2.077   5.397   0.554  0.0682 -0.2186  0.0119
 5453TIP3    H137994   2.125   5.329   0.507  0.8761  0.9518 -0.9184
 5453TIP3    H237995   2.089   5.475   0.501 -2.3803  0.2743  0.0928
 5454TIP3   OH237996   6.389   2.082   8.690  0.3067  0.1143  0.1763
 5454TIP3    H137997   6.391   2.016   8.759  1.3255 -0.0393  0.0201
 5454TIP3    H237998   6.449   2.049   8.624  0.4381  0.9575 -0.1406
 5455TIP3   OH237999   1.286   0.567   8.938 -0.1454 -0.2327  0.0201
 5455TIP3    H138000   1.339   0.561   9.017  1.2382 -1.4222 -0.9211
 5455TIP3    H238001   1.198   0.588   8.968  0.6644  0.8495  1.7307
 5456TIP3   OH238002   2.237   1.733   8.163  0.0995 -0.6264 -0.0497
 5456TIP3    H138003   2.163   1.778   8.205  1.3086  0.7411  0.6946
 5456TIP3    H238004   2.228   1.642   8.190 -0.2901 -0.1430  1.5502
 5457TIP3   OH238005   0.485   5.186   7.369  0.4270  0.0293 -0.5585
 5457TIP3    H138006   0.423   5.133   7.318 -0.6597  0.2392  0.4835
 5457TIP3    H238007   0.526   5.124   7.429  0.6878  0.0174 -0.7482
 5458TIP3   OH238008   1.554   2.433   1.015  0.5601 -0.6975  0.1957
 5458TIP3    H138009   1.514   2.387   0.942  0.0775  1.1913 -0.7895
 5458TIP3    H238010   1.485   2.439   1.080  1.7018 -4.7678  2.1478
 5459TIP3   OH238011   1.834   3.720   7.021  0.0525  0.2973  0.3702
 5459TIP3    H138012   1.815   3.800   7.069  0.9724  0.2547  0.8284
 5459TIP3    H238013   1.876   3.749   6.940 -2.7207  0.4537 -1.1284
 5460TIP3   OH238014   0.145   5.386   6.981 -0.4769  0.1282 -0.4760
 5460TIP3    H138015   0.056   5.396   7.013 -0.5621  0.6612 -0.8500
 5460TIP3    H238016   0.143   5.306   6.928 -0.9538  0.6117 -1.1981
 5461TIP3   OH238017   4.828   2.868   8.515  0.0182  0.0290  0.0255
 5461TIP3    H138018   4.904   2.824   8.477 -0.7295 -1.0904 -0.2173
 5461TIP3    H238019   4.826   2.837   8.606 -0.6139 -0.6145 -0.1955
 5462TIP3   OH238020   5.511   6.288   8.475 -0.3664 -0.0385 -0.9077
 5462TIP3    H138021   5.506   6.279   8.570 -1.2427 -0.0230 -0.9392
 5462TIP3    H238022   5.463   6.213   8.441 -2.5853  1.4393 -1.2646
 5463TIP3   OH238023   4.523   4.041   1.363  0.3560  0.3998 -0.0926
 5463TIP3    H138024   4.527   4.123   1.314  2.0364  0.4534  0.0657
 5463TIP3    H238025   4.519   3.973   1.296  1.4019  0.5284 -0.3121
 5464TIP3   OH238026   2.222   0.626   0.121 -0.2111  0.0154 -0.0348
 5464TIP3    H138027   2.310   0.646   0.151  0.1318  0.3218 -1.1954
 5464TIP3    H238028   2.178   0.711   0.112 -0.4869 -0.1059  0.1471
 5465TIP3   OH238029   1.037   0.710   1.427 -0.3803  0.0517  0.1194
 5465TIP3    H138030   0.945   0.738   1.426 -0.2729  0.4360  0.7003
 5465TIP3    H238031   1.085   0.785   1.390 -0.3234 -0.2427 -0.4095
 5466TIP3   OH238032   4.047   6.573   1.441  0.3441  0.1445 -0.7866
 5466TIP3    H138033   3.957   6.550   1.465  0.5759 -1.6716 -1.4284
 5466TIP3    H238034   4.057   6.663   1.469 -1.3610  0.0816  0.2065
 5467TIP3   OH238035   1.273   4.197   6.915 -0.6972 -0.4552  0.0935
 5467TIP3    H138036   1.274   4.126   6.850 -0.1815  0.7204 -1.2277
 5467TIP3    H238037   1.276   4.277   6.863  1.2386  0.5374  1.5867
 5468TIP3   OH238038   3.874   3.023   1.756  0.1425  0.0280  0.1513
 5468TIP3    H138039   3.784   3.043   1.732  0.3882  1.1014  0.0620
 5468TIP3    H238040   3.905   3.103   1.800  0.2279 -1.2252  2.5630
 5469TIP3   OH238041   4.319   5.111   2.282 -0.0506 -0.4680  0.2027
 5469TIP3    H138042   4.315   5.170   2.207 -0.1018 -2.2315 -1.2429
 5469TIP3    H238043   4.246   5.138   2.338 -1.3558 -0.4472 -1.4315
 5470TIP3   OH238044   3.882   2.125   8.337  0.1164 -0.6681  0.4760
 5470TIP3    H138045   3.960   2.137   8.391  0.2090 -1.6232  0.5686
 5470TIP3    H238046   3.812   2.168   8.387  0.3671 -0.7918  0.9378
 5471TIP3   OH238047   4.982   3.353   7.854 -0.1261  0.4433 -0.2815
 5471TIP3    H138048   5.059   3.402   7.881 -0.3949  1.1946 -0.8738
 5471TIP3    H238049   5.012   3.299   7.781 -0.1753  0.7934 -0.5627
 5472TIP3   OH238050   3.850   5.579   8.292  0.7134 -0.0215  0.0794
 5472TIP3    H138051   3.821   5.498   8.333  0.0960 -0.0813 -0.4634
 5472TIP3    H238052   3.822   5.648   8.353  2.2644 -0.2612  1.1197
 5473TIP3   OH238053   5.987   5.725   2.585  0.4223 -0.1394  0.5550
 5473TIP3    H138054   5.949   5.765   2.507 -1.1677  0.2225  1.4707
 5473TIP3    H238055   6.007   5.635   2.558 -1.7094 -0.5628  0.1697
 5474TIP3   OH238056   4.553   2.080   7.218  0.0549 -0.2799  0.4683
 5474TIP3    H138057   4.643   2.106   7.201 -0.2476 -0.4394 -1.6748
 5474TIP3    H238058   4.560   2.012   7.285  1.4936 -0.1136  0.5171
 5475TIP3   OH238059   4.577   1.183   0.277  0.3601 -0.3755 -0.4196
 5475TIP3    H138060   4.581   1.140   0.362 -1.7930  0.8715  0.3886
 5475TIP3    H238061   4.599   1.114   0.214 -2.4409 -2.6088  0.8349
 5476TIP3   OH238062   4.347   2.972   6.793  0.0121 -0.4321  0.4436
 5476TIP3    H138063   4.316   2.887   6.763 -1.0522 -0.1205  0.5876
 5476TIP3    H238064   4.272   3.031   6.778  0.7063  0.4606  0.4024
 5477TIP3   OH238065   6.766   2.832   8.321 -0.1350 -0.2425  0.4103
 5477TIP3    H138066   6.703   2.760   8.317  0.6836 -0.9555 -2.5876
 5477TIP3    H238067   6.842   2.794   8.365 -0.7934 -0.2138  1.6066
 5478TIP3   OH238068   4.325   0.960   2.402 -0.1012  0.0380  0.2788
 5478TIP3    H138069   4.395   1.023   2.415 -0.7036  0.8349 -0.2760
 5478TIP3    H238070   4.246   1.005   2.432 -0.6405 -0.1876 -0.7626
 5479TIP3   OH238071   0.366   2.492   7.350 -0.5004 -0.2097  0.2472
 5479TIP3    H138072   0.302   2.523   7.413  0.3595 -0.4793  1.2897
 5479TIP3    H238073   0.388   2.569   7.298 -1.1030  0.0554  0.3762
 5480TIP3   OH238074   2.405   6.086   8.671 -0.1440 -0.5136 -0.6983
 5480TIP3    H138075   2.456   6.062   8.593  0.7028 -0.8690 -0.0462
 5480TIP3    H238076   2.337   6.019   8.676  0.7254 -1.3948 -0.2844
 5481TIP3   OH238077   1.167   6.647   7.349  0.7183  0.3682 -0.1441
 5481TIP3    H138078   1.193   6.705   7.278  3.2130  1.9843  1.9478
 5481TIP3    H238079   1.136   6.705   7.418  2.1280 -0.8001  1.5619
 5482TIP3   OH238080   4.047   1.762   8.275 -0.4369 -0.3209 -0.6410
 5482TIP3    H138081   4.048   1.854   8.301  0.1297 -0.2104 -1.0119
 5482TIP3    H238082   4.042   1.765   8.179 -4.2243 -0.7273 -0.5919
 5483TIP3   OH238083   1.351   4.767   2.411 -0.4157 -0.2356  0.6494
 5483TIP3    H138084   1.300   4.801   2.338 -0.1232  0.8670  0.9402
 5483TIP3    H238085   1.289   4.714   2.461 -0.7929 -0.4195  0.0029
 5484TIP3   OH238086   4.032   1.831   0.161  0.6928 -0.3039 -0.0427
 5484TIP3    H138087   3.943   1.842   0.127  1.2378 -1.6289 -2.0989
 5484TIP3    H238088   4.040   1.738   0.178  2.0037 -0.3621 -0.8719
 5485TIP3   OH238089   3.467   4.272   1.186 -0.3463 -0.6587 -0.3731
 5485TIP3    H138090   3.436   4.198   1.134  1.7957 -0.6610 -1.7667
 5485TIP3    H238091   3.526   4.320   1.128  0.6681  0.4512  1.4477
 5486TIP3   OH238092   4.111   2.389   6.509 -0.0489  0.3797 -0.0671
 5486TIP3    H138093   4.098   2.389   6.604 -3.6004  0.8291 -0.4325
 5486TIP3    H238094   4.105   2.482   6.485  0.4224  0.2238 -0.8037
 5487TIP3   OH238095   0.610   1.347   7.320 -0.1420  0.2668 -0.0447
 5487TIP3    H138096   0.686   1.298   7.289  0.3576  2.0079 -1.8258
 5487TIP3    H238097   0.535   1.300   7.284  0.2949  0.3739 -1.1488
 5488TIP3   OH238098   1.833   0.880   8.105  0.2575  0.8678 -0.3856
 5488TIP3    H138099   1.745   0.917   8.095 -1.5910 -2.4197  1.5836
 5488TIP3    H238100   1.844   0.870   8.200  1.3562 -1.6082 -0.6935
 5489TIP3   OH238101   3.609   4.248   1.898  0.0223 -0.8636 -0.4627
 5489TIP3    H138102   3.660   4.267   1.977  0.5027 -0.3644 -0.8864
 5489TIP3    H238103   3.519   4.236   1.930 -0.2802  1.7548 -0.0864
 5490TIP3   OH238104   0.950   4.986   8.729 -0.2549  0.0995 -0.5252
 5490TIP3    H138105   0.865   4.991   8.686 -0.3335  0.6211 -0.3177
 5490TIP3    H238106   0.991   4.907   8.693 -2.3367 -2.4084  2.1330
 5491TIP3   OH238107   5.436   0.208   8.653  0.2345 -0.9601 -0.0690
 5491TIP3    H138108   5.528   0.187   8.666  0.3799 -0.1185  0.3106
 5491TIP3    H238109   5.436   0.290   8.605 -0.2842 -0.0165  1.4673
 5492TIP3   OH238110   6.185   2.808   6.972  0.2776  0.3318 -0.2513
 5492TIP3    H138111   6.195   2.749   6.897 -2.0507 -0.9749  0.3635
 5492TIP3    H238112   6.123   2.875   6.942  0.8205  0.9175 -0.0850
 5493TIP3   OH238113   0.448   4.606   7.357  0.4571 -0.3701 -0.6699
 5493TIP3    H138114   0.401   4.646   7.284  0.9475 -1.1528 -1.4200
 5493TIP3    H238115   0.380   4.560   7.407 -0.1082  1.2793  0.1691
 5494TIP3   OH238116   0.427   4.876   8.163  0.1339  0.1248 -0.2683
 5494TIP3    H138117   0.486   4.815   8.209 -0.9426 -0.3802  0.4787
 5494TIP3    H238118   0.480   4.909   8.090  1.4358 -0.1107  0.5216
 5495TIP3   OH238119   6.406   0.998   1.034 -0.2062 -0.2324 -0.1075
 5495TIP3    H138120   6.345   1.024   0.965  0.1156  0.6490 -0.0703
 5495TIP3    H238121   6.363   0.924   1.077  0.5760 -2.3691 -2.7094
 5496TIP3   OH238122   1.001   0.547   7.543 -0.1509  0.0298 -0.5859
 5496TIP3    H138123   0.992   0.518   7.452 -0.5348  1.3936 -1.0171
 5496TIP3    H238124   0.919   0.595   7.561  0.8402  1.7160 -0.3088
 5497TIP3   OH238125   4.068   6.759   7.821  0.5558  0.1547  0.2041
 5497TIP3    H138126   4.010   6.829   7.850 -0.9320 -1.3293  0.8994
 5497TIP3    H238127   4.143   6.805   7.783  0.0934  2.1248  1.5418
 5498TIP3   OH238128   6.240   1.640   8.056 -0.4978 -0.1248  0.5862
 5498TIP3    H138129   6.184   1.697   8.108 -0.2106 -0.2386  1.0329
 5498TIP3    H238130   6.328   1.678   8.066 -0.7823  1.4656 -2.0315
 5499TIP3   OH238131   3.210   3.059   0.034  0.1113 -0.9015 -0.2182
 5499TIP3    H138132   3.125   3.037  -0.004 -0.6326 -2.3204  2.0717
 5499TIP3    H238133   3.268   2.990   0.002 -0.0533 -0.9999 -0.3111
 5500TIP3   OH238134   6.384   2.139   0.490  0.0068 -0.3087 -0.1450
 5500TIP3    H138135   6.294   2.159   0.515 -0.6380  0.0041 -2.5289
 5500TIP3    H238136   6.377   2.062   0.434  1.4012 -1.1002  0.7076
 5501TIP3   OH238137   5.991   3.291   8.637 -0.1521 -0.6859  0.4426
 5501TIP3    H138138   5.942   3.305   8.555  1.4478  1.9611 -0.2041
 5501TIP3    H238139   5.947   3.349   8.700  0.3172 -0.5613  0.6584
 5502TIP3   OH238140   5.905   1.725   8.017 -0.2317 -0.5107  0.0030
 5502TIP3    H138141   5.908   1.666   7.943  3.6332 -0.2173 -0.2407
 5502TIP3    H238142   5.924   1.670   8.093 -0.0469 -0.1358  0.2304
 5503TIP3   OH238143   0.725   3.681   1.292  0.4825  0.1030 -0.4786
 5503TIP3    H138144   0.703   3.636   1.210  2.0548 -0.5880 -0.5595
 5503TIP3    H238145   0.698   3.619   1.360 -1.3391  0.9090 -0.4093
 5504TIP3   OH238146   0.326   3.282   1.834 -0.2496 -0.8411  0.0565
 5504TIP3    H138147   0.340   3.298   1.927 -0.4415  0.4373 -0.1168
 5504TIP3    H238148   0.270   3.354   1.805  0.2628 -0.9071 -1.1654
 5505TIP3   OH238149   4.757   5.538   8.240  0.3816 -0.1386  0.3452
 5505TIP3    H138150   4.782   5.625   8.211 -0.6633  0.2855  0.6804
 5505TIP3    H238151   4.689   5.510   8.178  1.6522 -1.2854 -0.5788
 5506TIP3   OH238152   5.865   4.847   8.330 -0.3181  0.3504 -0.0866
 5506TIP3    H138153   5.856   4.897   8.411  0.3821  1.4142 -0.6265
 5506TIP3    H238154   5.792   4.785   8.331  0.8139 -1.0945  2.3099
 5507TIP3   OH238155   4.336   0.405   8.661 -0.3725 -0.1976 -0.2012
 5507TIP3    H138156   4.395   0.400   8.586 -0.4797 -3.9466 -0.2023
 5507TIP3    H238157   4.393   0.427   8.735  0.1067  1.2334 -0.9502
 5508TIP3   OH238158   1.420   4.423   2.144 -0.4243 -0.2062 -0.2311
 5508TIP3    H138159   1.404   4.517   2.135  2.7729  0.2914 -2.3750
 5508TIP3    H238160   1.455   4.413   2.233  1.1914  1.0571 -0.6793
 5509TIP3   OH238161   3.952   0.113   8.476  0.7105 -0.2403 -0.2056
 5509TIP3    H138162   3.893   0.078   8.409 -0.4849  0.7346  0.3075
 5509TIP3    H238163   4.040   0.100   8.440  0.1355 -0.6315 -1.5099
 5510TIP3   OH238164   1.623   2.412   0.366  0.0550 -0.1599  0.3045
 5510TIP3    H138165   1.570   2.489   0.343 -0.3079  0.0031  1.6279
 5510TIP3    H238166   1.711   2.447   0.379 -0.2178  0.1475  1.4465
 5511TIP3   OH238167   4.801   1.643   7.830 -0.1632  0.2936  0.2904
 5511TIP3    H138168   4.729   1.596   7.871  0.3235 -2.5907 -1.8225
 5511TIP3    H238169   4.880   1.598   7.862  0.4386  0.8372 -0.3925
 5512TIP3   OH238170   1.946   6.394   6.348 -0.1861  0.4714  0.5219
 5512TIP3    H138171   1.904   6.441   6.277 -0.4670 -0.1017  0.3005
 5512TIP3    H238172   1.890   6.409   6.424 -0.4692  0.2030  0.3678
 5513TIP3   OH238173   5.504   3.261   8.596 -0.1100 -0.0665  0.0334
 5513TIP3    H138174   5.572   3.199   8.622 -0.2017  0.1087  0.7188
 5513TIP3    H238175   5.422   3.212   8.607 -0.0645 -1.0269 -2.8353
 5514TIP3   OH238176   2.619   0.362   1.443 -0.4319  0.2855 -0.1493
 5514TIP3    H138177   2.672   0.442   1.453 -2.7834  2.2678 -2.0722
 5514TIP3    H238178   2.577   0.372   1.358 -4.0899 -0.9308  1.2919
 5515TIP3   OH238179   3.706   0.077   6.962  0.5880  0.0248 -0.4541
 5515TIP3    H138180   3.750   0.127   6.893  1.1606  1.0125  0.6015
 5515TIP3    H238181   3.643   0.139   6.999  0.2019 -0.5357 -0.1692
 5516TIP3   OH238182   5.235   0.416   0.031 -0.5120 -0.1130  1.2544
 5516TIP3    H138183   5.183   0.496   0.035  1.3249  1.3278 -0.7096
 5516TIP3    H238184   5.322   0.442   0.062 -0.0097 -1.4961  1.0979
 5517TIP3   OH238185   1.491   2.238   1.319 -0.0292 -0.6577 -0.1039
 5517TIP3    H138186   1.575   2.214   1.279  0.1883 -0.0591 -0.0193
 5517TIP3    H238187   1.467   2.320   1.276 -1.1519 -1.4113 -0.9679
 5518TIP3   OH238188   2.523   2.367   6.834  0.4126  0.6182  0.1166
 5518TIP3    H138189   2.610   2.404   6.843  0.7657  0.0961 -1.0045
 5518TIP3    H238190   2.538   2.277   6.806 -0.4711  0.2387  0.8102
 5519TIP3   OH238191   2.931   2.459   7.499 -0.4056  0.3083 -0.1553
 5519TIP3    H138192   2.977   2.385   7.460  1.4083  1.4839 -0.3697
 5519TIP3    H238193   2.930   2.526   7.430  0.5086  1.4757  0.9079
 5520TIP3   OH238194   5.450   1.323   0.470  0.7700 -0.3139 -0.4087
 5520TIP3    H138195   5.444   1.227   0.475 -1.7140 -0.2033  0.2202
 5520TIP3    H238196   5.408   1.345   0.387  0.2049  0.2748  0.0240
 5521TIP3   OH238197   5.463   1.058   7.253 -0.6078 -0.4830 -0.7986
 5521TIP3    H138198   5.437   1.131   7.310 -0.3150 -1.8599  1.1703
 5521TIP3    H238199   5.406   1.066   7.177 -0.7129  1.6802 -0.5627
 5522TIP3   OH238200   1.111   5.626   1.635  0.3505 -0.2732 -0.1553
 5522TIP3    H138201   1.059   5.561   1.587  2.3768 -2.5804  0.5562
 5522TIP3    H238202   1.083   5.617   1.726 -1.1355  1.7620 -0.3276
 5523TIP3   OH238203   3.998   2.470   7.238 -0.1788  0.5432  0.6340
 5523TIP3    H138204   4.038   2.390   7.203  0.5583  1.5926 -1.0969
 5523TIP3    H238205   3.907   2.447   7.253 -1.1545  0.3930 -3.9520
 5524TIP3   OH238206   0.812   1.198   7.606  0.0438 -0.4383 -0.0673
 5524TIP3    H138207   0.798   1.292   7.617  0.3188 -0.4390  0.3009
 5524TIP3    H238208   0.723   1.162   7.602 -0.0629 -0.1843 -0.0278
 5525TIP3   OH238209   3.525   3.013   7.037  0.3451  0.0392  0.6444
 5525TIP3    H138210   3.566   2.930   7.011 -1.5018 -0.6856 -0.1158
 5525TIP3    H238211   3.536   3.070   6.962 -0.1209 -0.1914  0.3983
 5526TIP3   OH238212   6.322   2.717   1.215 -0.4916  0.4438 -0.0806
 5526TIP3    H138213   6.273   2.798   1.202 -0.9469  0.1864 -0.0127
 5526TIP3    H238214   6.319   2.702   1.309 -0.5673  0.2543 -0.1124
 5527TIP3   OH238215   3.092   1.907   1.120  0.3590 -0.3839  0.6811
 5527TIP3    H138216   3.174   1.956   1.110  0.6021 -0.8781  0.2568
 5527TIP3    H238217   3.100   1.865   1.206  0.5902 -0.5054  0.6002
 5528TIP3   OH238218   5.864   3.968   0.793 -0.6295  0.3752  0.0610
 5528TIP3    H138219   5.794   4.031   0.810  0.3380  1.0331  1.8560
 5528TIP3    H238220   5.842   3.892   0.845  0.4463  0.9740  1.4771
 5529TIP3   OH238221   3.846   6.639   2.149 -0.1492 -0.2601 -0.1191
 5529TIP3    H138222   3.797   6.658   2.229 -0.3175  1.9509 -0.6898
 5529TIP3    H238223   3.937   6.658   2.171  0.0165 -1.1333 -0.0256
 5530TIP3   OH238224   0.485   5.420   2.299  0.0406 -0.1013  0.2815
 5530TIP3    H138225   0.502   5.490   2.235 -1.5736 -0.7772 -0.9464
 5530TIP3    H238226   0.390   5.422   2.312 -0.2428 -2.8467 -0.7800
 5531TIP3   OH238227   1.221   4.631   1.534 -0.8846 -0.7321 -0.3298
 5531TIP3    H138228   1.294   4.571   1.547  0.4968  1.0784  0.6939
 5531TIP3    H238229   1.155   4.603   1.598  0.2128 -0.4900  0.9503
 5532TIP3   OH238230   3.275   1.767   7.638  0.2671  0.1800  0.0457
 5532TIP3    H138231   3.267   1.850   7.591 -1.0547  0.1873  0.2372
 5532TIP3    H238232   3.356   1.775   7.688  0.4663  1.1155 -0.4019
 5533TIP3   OH238233   1.916   0.256   1.640 -0.2106 -0.0027 -0.1749
 5533TIP3    H138234   2.007   0.264   1.612 -0.3300 -1.2842 -0.9674
 5533TIP3    H238235   1.920   0.271   1.735  0.6993  0.7327 -0.3075
 5534TIP3   OH238236   4.234   5.236   1.702 -0.3580 -0.2736  0.0096
 5534TIP3    H138237   4.161   5.193   1.657  0.6988 -2.3817  0.1868
 5534TIP3    H238238   4.287   5.164   1.737  0.4655  1.2361  2.0844
 5535TIP3   OH238239   0.147   3.959   6.954 -0.2640  0.3615  0.2788
 5535TIP3    H138240   0.109   3.881   6.914 -1.0793  0.4605  0.8409
 5535TIP3    H238241   0.129   4.029   6.892  1.0995  0.0098 -0.5756
 5536TIP3   OH238242   2.951   6.243   8.130  0.2540 -0.8977 -0.0577
 5536TIP3    H138243   3.036   6.205   8.110  1.2492  0.4870  1.3313
 5536TIP3    H238244   2.954   6.331   8.093  0.2517 -0.0986  1.7110
 5537TIP3   OH238245   1.336   2.876   8.876  0.2955  0.3512  0.1772
 5537TIP3    H138246   1.341   2.864   8.971 -0.9939  0.6713  0.2964
 5537TIP3    H238247   1.407   2.937   8.856  1.2637 -0.5309  0.7703
 5538TIP3   OH238248   0.570   2.115   1.680  0.4825 -0.0941 -0.4194
 5538TIP3    H138249   0.599   2.120   1.770 -0.6942 -1.0042  0.0402
 5538TIP3    H238250   0.587   2.202   1.644  1.3021  0.1602  0.5577
 5539TIP3   OH238251   2.405   6.335   0.494 -0.0367 -0.4748 -0.1271
 5539TIP3    H138252   2.434   6.304   0.408 -1.2406 -1.7576 -0.1220
 5539TIP3    H238253   2.341   6.269   0.522 -0.5329  0.5458  1.2368
 5540TIP3   OH238254   4.494   5.470   1.048  0.1765 -0.7501 -0.2380
 5540TIP3    H138255   4.453   5.551   1.078 -0.2709 -1.0715  0.0276
 5540TIP3    H238256   4.502   5.416   1.127 -0.3651 -1.3248 -0.5614
 5541TIP3   OH238257   5.294   6.247   0.211  0.3955 -0.0039 -0.0877
 5541TIP3    H138258   5.219   6.299   0.181  1.1060  1.5452  0.7121
 5541TIP3    H238259   5.371   6.296   0.181  1.1123 -1.4288 -0.6658
 5542TIP3   OH238260   4.693   4.125   2.002  0.4926  0.5772 -1.0139
 5542TIP3    H138261   4.618   4.127   2.061  1.5504 -1.9836  0.5891
 5542TIP3    H238262   4.761   4.175   2.047  0.7981  0.0065 -0.8385
 5543TIP3   OH238263   2.419   4.233   7.610 -0.1957 -0.4927 -0.0135
 5543TIP3    H138264   2.359   4.188   7.669  0.8554 -0.6778  0.9565
 5543TIP3    H238265   2.432   4.319   7.650 -0.5405 -0.0971 -0.7279
 5544TIP3   OH238266   6.180   1.138   0.925 -0.3314  0.2722 -0.3444
 5544TIP3    H138267   6.174   1.223   0.883  1.0739  0.5293 -0.0800
 5544TIP3    H238268   6.198   1.158   1.017 -1.6200 -0.3005  0.0472
 5545TIP3   OH238269   0.911   2.491   1.822  0.4831 -0.2894 -0.7075
 5545TIP3    H138270   0.953   2.577   1.822 -1.8778  0.9621  0.1753
 5545TIP3    H238271   0.818   2.510   1.811 -0.6696 -2.3485  3.5250
 5546TIP3   OH238272   0.840   6.160   1.133  0.1032  0.1080  0.3250
 5546TIP3    H138273   0.769   6.224   1.134 -1.2962 -1.3869  0.1260
 5546TIP3    H238274   0.810   6.092   1.072  1.4320 -0.8723  0.7214
 5547TIP3   OH238275   6.243   4.326   0.242  0.4340 -0.0164  0.4065
 5547TIP3    H138276   6.232   4.343   0.336 -0.4255  0.9497  0.1616
 5547TIP3    H238277   6.228   4.232   0.233  2.1440 -0.4394  1.4332
 5548TIP3   OH238278   1.394   6.482   8.137  0.6502 -0.0798  0.3350
 5548TIP3    H138279   1.373   6.479   8.044 -1.2674 -0.1887  0.7296
 5548TIP3    H238280   1.409   6.390   8.161 -2.1576 -0.5100  0.7661
 5549TIP3   OH238281   3.151   1.047   7.566 -0.0830 -0.2806  0.1738
 5549TIP3    H138282   3.056   1.057   7.562 -0.1579 -0.1608  1.7287
 5549TIP3    H238283   3.186   1.126   7.524 -0.6691 -0.3420 -0.4281
 5550TIP3   OH238284   3.810   5.367   1.101  0.1753 -1.1646 -0.4769
 5550TIP3    H138285   3.765   5.428   1.043  1.6347 -1.2295 -1.7420
 5550TIP3    H238286   3.753   5.360   1.178  0.0331  1.9363 -0.1869
 5551TIP3   OH238287   0.901   4.411   0.650  0.1670 -0.4296  0.0034
 5551TIP3    H138288   0.983   4.459   0.663  0.8525 -1.7153  0.5011
 5551TIP3    H238289   0.869   4.443   0.565  1.2068  0.0388 -0.2377
 5552TIP3   OH238290   5.099   2.146   8.487 -0.0147 -0.3081  0.4426
 5552TIP3    H138291   5.117   2.083   8.557  0.8101 -1.6230 -0.8938
 5552TIP3    H238292   5.010   2.175   8.504  0.0361 -0.8698  1.8266
 5553TIP3   OH238293   0.035   4.725   0.633  0.2549  0.0866 -0.2070
 5553TIP3    H138294   0.102   4.736   0.701 -0.6210 -0.5730  0.7987
 5553TIP3    H238295  -0.046   4.711   0.682 -0.8506  1.9126 -1.3710
 5554TIP3   OH238296   4.778   4.786   8.236  0.1143 -0.0105  0.5552
 5554TIP3    H138297   4.686   4.765   8.252 -0.6717  1.5005 -1.5428
 5554TIP3    H238298   4.776   4.873   8.197  2.5920  0.6694  1.7711
 5555TIP3   OH238299   6.419   4.433   0.822  0.1068 -0.1067 -0.0706
 5555TIP3    H138300   6.349   4.369   0.811  1.6689 -1.8303 -0.4535
 5555TIP3    H238301   6.433   4.469   0.734 -1.2785  1.4015  0.2735
 5556TIP3   OH238302   5.605   0.499   1.864 -0.0490  0.1643 -0.2319
 5556TIP3    H138303   5.585   0.415   1.907 -0.0617  0.0866 -0.3911
 5556TIP3    H238304   5.640   0.553   1.935  3.2185 -1.0490 -0.7440
 5557TIP3   OH238305   4.201   2.794   8.270 -0.4495  0.3489 -0.0137
 5557TIP3    H138306   4.139   2.866   8.257 -1.1037 -0.4015 -1.2593
 5557TIP3    H238307   4.146   2.719   8.293  0.0232 -0.2349 -0.7401
 5558TIP3   OH238308   4.105   6.146   7.435 -0.3699  0.7160  0.3622
 5558TIP3    H138309   4.199   6.161   7.431 -0.3152  0.7088  1.4480
 5558TIP3    H238310   4.078   6.181   7.520 -1.1628 -0.3029  0.5547
 5559TIP3   OH238311   2.539   6.580   1.030 -0.1728 -0.1827 -0.1980
 5559TIP3    H138312   2.493   6.606   1.111  1.5988  0.9807  0.4846
 5559TIP3    H238313   2.505   6.493   1.011 -1.8225  0.1667  0.8869
 5560TIP3   OH238314   4.432   5.212   1.262 -0.5285  0.4605  0.1894
 5560TIP3    H138315   4.425   5.135   1.318 -0.2545  0.5333  0.3252
 5560TIP3    H238316   4.392   5.186   1.179  0.9830 -0.3444 -0.3070
 5561TIP3   OH238317   5.635   2.078   0.417 -0.1121 -0.5174 -0.6860
 5561TIP3    H138318   5.703   2.143   0.437  0.2421 -1.0400 -0.1679
 5561TIP3    H238319   5.675   1.994   0.438 -0.4653 -0.9403 -1.6370
 5562TIP3   OH238320   4.856   4.969   6.618 -0.0140  0.2088  0.2559
 5562TIP3    H138321   4.861   4.899   6.553 -0.1593  1.5953 -1.2979
 5562TIP3    H238322   4.898   5.044   6.577  0.2288  1.0402  1.9251
 5563TIP3   OH238323   3.631   2.685   7.878  0.5505  0.1293  0.4206
 5563TIP3    H138324   3.692   2.637   7.822  0.1808 -0.0484  0.1674
 5563TIP3    H238325   3.588   2.748   7.819  1.6297  1.3605  0.9060
 5564TIP3   OH238326   3.685   2.054   8.660  0.6032 -0.8261 -0.7016
 5564TIP3    H138327   3.753   2.021   8.719  0.5145  1.2439  0.6689
 5564TIP3    H238328   3.726   2.129   8.616 -0.5070 -0.0678 -0.4874
 5565TIP3   OH238329   1.730   5.462   2.542  0.3547  0.3423 -0.7087
 5565TIP3    H138330   1.770   5.549   2.533 -1.5693  1.2805 -0.7673
 5565TIP3    H238331   1.640   5.475   2.513 -0.8234 -0.9670  2.0478
 5566TIP3   OH238332   6.291   0.412   0.068  0.2633 -0.6023 -0.1921
 5566TIP3    H138333   6.384   0.405   0.047  0.2030  0.9226 -1.1334
 5566TIP3    H238334   6.247   0.421  -0.017 -0.5728  0.1958  0.3021
 5567TIP3   OH238335   3.732   2.434   0.903 -0.2016  0.1277 -0.1091
 5567TIP3    H138336   3.798   2.503   0.906  2.4304 -2.1276 -1.4781
 5567TIP3    H238337   3.718   2.418   0.809 -0.4044 -1.4436  0.1559
 5568TIP3   OH238338   0.218   2.976   7.831 -0.1251  0.1229  0.1958
 5568TIP3    H138339   0.158   2.908   7.798  0.1527 -0.1993  0.3537
 5568TIP3    H238340   0.160   3.048   7.855 -0.3180  0.5124 -1.3317
 5569TIP3   OH238341   0.090   3.433   1.843  0.3765  0.3497 -0.0441
 5569TIP3    H138342   0.080   3.523   1.811 -0.8150  0.1666 -0.2429
 5569TIP3    H238343   0.010   3.416   1.892  2.0788  0.5792  3.0832
 5570TIP3   OH238344   1.484   6.409   7.374  0.0046 -0.3964 -0.2837
 5570TIP3    H138345   1.562   6.459   7.394  1.2009 -1.5540 -1.8265
 5570TIP3    H238346   1.499   6.324   7.416  1.0701 -1.7077 -3.0874
 5571TIP3   OH238347   4.875   3.730   7.448  0.3839  0.0742  0.5582
 5571TIP3    H138348   4.805   3.687   7.398  1.7028 -2.1196  0.4585
 5571TIP3    H238349   4.931   3.770   7.381  0.3018  0.1194  0.5159
 5572TIP3   OH238350   6.308   2.529   7.052  0.6334 -0.1749 -0.3866
 5572TIP3    H138351   6.306   2.582   6.972 -2.0289 -1.1683 -1.1078
 5572TIP3    H238352   6.269   2.586   7.118 -0.1167 -0.4317 -0.6004
 5573TIP3   OH238353   1.057   4.290   0.007 -0.3855 -0.1033  0.2126
 5573TIP3    H138354   0.980   4.282   0.063 -1.2569  1.9176 -0.5726
 5573TIP3    H238355   1.081   4.200  -0.015 -1.9860 -0.8094  1.2003
 5574TIP3   OH238356   2.712   0.242   7.993  0.3095  0.0086  0.7838
 5574TIP3    H138357   2.621   0.228   7.967  0.3561  0.2063  0.5124
 5574TIP3    H238358   2.762   0.227   7.913  0.3135  2.4049  0.2616
 5575TIP3   OH238359   6.577   1.701   7.751 -0.3232 -0.5259  0.2340
 5575TIP3    H138360   6.557   1.748   7.670  0.0658  2.2100  1.6268
 5575TIP3    H238361   6.503   1.721   7.809  0.2522 -1.0021  1.1497
 5576TIP3   OH238362   0.792   3.540   8.449 -0.1677 -0.7526  0.3430
 5576TIP3    H138363   0.836   3.625   8.440 -0.2817 -0.8046 -0.9341
 5576TIP3    H238364   0.863   3.476   8.447 -0.2303 -0.8831 -2.4058
 5577TIP3   OH238365   2.478   2.115   8.717  0.0886 -0.2868 -0.2586
 5577TIP3    H138366   2.409   2.123   8.651 -0.4287  1.7739  0.4455
 5577TIP3    H238367   2.432   2.122   8.801  1.0695  0.5803  0.2322
 5578TIP3   OH238368   2.607   5.486   1.456 -0.2203 -0.3387  0.8096
 5578TIP3    H138369   2.600   5.581   1.471  1.7644  0.0454 -0.3361
 5578TIP3    H238370   2.569   5.447   1.534 -1.2881  1.3914  1.2245
 5579TIP3   OH238371   1.895   5.524   7.892 -0.6664  0.1529  0.0764
 5579TIP3    H138372   1.800   5.530   7.900 -0.7756 -2.2503  1.5483
 5579TIP3    H238373   1.921   5.464   7.962  2.0315  1.2563  0.1294
 5580TIP3   OH238374   6.358   1.432   8.517 -0.6026  0.3378  0.4786
 5580TIP3    H138375   6.280   1.471   8.476 -0.4797  0.1154  0.0277
 5580TIP3    H238376   6.325   1.393   8.598 -0.6850  1.5897  1.0825
 5581TIP3   OH238377   1.832   4.038   8.851 -0.1787 -0.4132 -0.3858
 5581TIP3    H138378   1.798   3.998   8.932  1.7341 -1.6712 -0.1223
 5581TIP3    H238379   1.926   4.020   8.855  0.7449  3.5811 -0.6214
 5582TIP3   OH238380   5.063   3.999   7.727 -0.0591 -0.0733  0.2939
 5582TIP3    H138381   5.054   3.917   7.775 -1.2564 -0.8216 -1.1134
 5582TIP3    H238382   5.156   4.020   7.733  0.3789 -1.8160  0.2966
 5583TIP3   OH238383   2.715   2.947   7.487  0.0143  0.5243 -0.3716
 5583TIP3    H138384   2.705   2.974   7.578  0.3979  0.8854 -0.4345
 5583TIP3    H238385   2.783   3.005   7.452  0.1665  0.1086 -0.7703
 5584TIP3   OH238386   4.314   4.493   7.475 -0.0767  0.3643  0.3126
 5584TIP3    H138387   4.235   4.455   7.514 -0.2576 -0.4797 -0.8361
 5584TIP3    H238388   4.351   4.422   7.423  1.9868  0.4213  1.5706
 5585TIP3   OH238389   5.876   1.874   0.032  0.1026 -0.4429 -0.3517
 5585TIP3    H138390   5.901   1.962   0.060 -0.0531 -0.7357  0.7643
 5585TIP3    H238391   5.959   1.825   0.028  0.2424 -0.1569 -1.3861
 5586TIP3   OH238392   1.218   1.356   6.684 -0.5942  0.2589 -0.0253
 5586TIP3    H138393   1.198   1.394   6.599  0.6640 -1.4728 -1.1666
 5586TIP3    H238394   1.160   1.280   6.691  1.2653 -1.3082 -0.7060
 5587TIP3   OH238395   0.606   5.399   7.236 -0.3445 -0.0063  0.1417
 5587TIP3    H138396   0.568   5.326   7.285 -1.2921 -0.4201 -1.1717
 5587TIP3    H238397   0.540   5.421   7.170  0.0315  1.8874  0.3559
 5588TIP3   OH238398   2.081   2.386   8.535  0.1874 -0.5960  0.2872
 5588TIP3    H138399   2.053   2.415   8.622 -0.6173  0.8806 -0.4344
 5588TIP3    H238400   2.000   2.360   8.491  0.2662  0.8881 -0.8081
 5589TIP3   OH238401   6.438   2.209   8.013 -0.4808  0.1534 -0.1564
 5589TIP3    H138402   6.356   2.250   8.041  0.2211  2.1273 -0.8125
 5589TIP3    H238403   6.472   2.167   8.091 -1.5483  0.3135  0.4137
 5590TIP3   OH238404   0.406   1.683   8.502 -0.2732 -0.3453 -0.1636
 5590TIP3    H138405   0.406   1.755   8.565 -0.6607  0.0643 -0.6289
 5590TIP3    H238406   0.443   1.609   8.551 -0.9625 -0.1517  0.6699
 5591TIP3   OH238407   5.572   6.680   1.631  0.3821 -0.4329 -0.2499
 5591TIP3    H138408   5.654   6.725   1.652 -0.6510  1.5893 -0.3434
 5591TIP3    H238409   5.572   6.603   1.688  1.5970  0.3779  0.9202
 5592TIP3   OH238410   2.098   1.655   8.889 -0.2715  0.7143  0.0057
 5592TIP3    H138411   2.173   1.688   8.840  0.2740  0.6045  0.7532
 5592TIP3    H238412   2.034   1.630   8.821  0.7153 -0.0502 -0.6755
 5593TIP3   OH238413   4.833   0.691   1.021  0.4441 -0.0302  0.7845
 5593TIP3    H138414   4.850   0.680   0.927  0.7611  0.3063  0.7986
 5593TIP3    H238415   4.852   0.605   1.059  0.7357 -0.0499  0.5985
 5594TIP3   OH238416   1.375   2.352   2.291  0.4293  0.1910 -0.0428
 5594TIP3    H138417   1.308   2.312   2.346  0.1788 -0.8278 -1.0518
 5594TIP3    H238418   1.391   2.438   2.330 -2.8966  1.3370 -0.9066
 5595TIP3   OH238419   4.227   0.182   7.404 -0.3631  0.3973 -0.2032
 5595TIP3    H138420   4.276   0.122   7.347 -0.8445  0.0601 -0.2765
 5595TIP3    H238421   4.261   0.166   7.492  0.8358  1.3786 -0.4661
 5596TIP3   OH238422   3.774   5.996   7.388 -0.3312  0.1761 -0.4339
 5596TIP3    H138423   3.798   5.999   7.295  0.5791  0.3048 -0.2025
 5596TIP3    H238424   3.835   5.933   7.427  0.4117  1.3694  0.3879
 5597TIP3   OH238425   5.931   1.255   7.250  0.1790  0.2352 -0.5091
 5597TIP3    H138426   5.952   1.217   7.164 -2.3062  0.4632 -1.3082
 5597TIP3    H238427   5.909   1.346   7.231 -0.8073  0.1775  0.2760
 5598TIP3   OH238428   0.842   5.638   7.888 -0.2060 -0.4449  0.1675
 5598TIP3    H138429   0.812   5.702   7.952 -1.5499  0.9213 -1.6974
 5598TIP3    H238430   0.852   5.688   7.807  3.2393 -1.6852 -0.3624
 5599TIP3   OH238431   6.310   4.624   8.824 -0.0620 -0.1451 -0.0187
 5599TIP3    H138432   6.331   4.585   8.739  1.4074 -0.7446  0.5819
 5599TIP3    H238433   6.231   4.580   8.852 -0.8647  0.4200 -1.2868
 5600TIP3   OH238434   0.031   1.416   7.433 -0.0467  0.7821  0.5226
 5600TIP3    H138435   0.064   1.327   7.423 -0.1771  0.9268 -1.6669
 5600TIP3    H238436   0.071   1.447   7.514  0.7470 -0.9403  0.8380
 5601TIP3   OH238437   4.356   6.197   7.547 -0.0255 -0.2575 -0.1135
 5601TIP3    H138438   4.420   6.134   7.515  2.3713  2.0155 -0.0870
 5601TIP3    H238439   4.368   6.198   7.642 -1.9496 -1.6006  0.2128
 5602TIP3   OH238440   4.707   3.096   7.302 -0.2620 -0.2607  0.5708
 5602TIP3    H138441   4.709   3.180   7.348  0.1062  1.2343 -2.0263
 5602TIP3    H238442   4.712   3.119   7.209 -0.3207 -3.1640 -0.2354
 5603TIP3   OH238443   3.838   0.200   1.048  0.6461  0.2740 -0.0381
 5603TIP3    H138444   3.890   0.280   1.051 -2.2407  2.2727  0.8382
 5603TIP3    H238445   3.799   0.193   1.135 -1.6588 -0.2846 -1.0437
 5604TIP3   OH238446   5.290   6.184   1.816 -0.9532  0.2490 -0.0637
 5604TIP3    H138447   5.287   6.267   1.767 -0.3065 -0.3292 -1.1260
 5604TIP3    H238448   5.294   6.211   1.908 -0.9856  1.3941 -0.3780
 5605TIP3   OH238449   0.021   5.371   0.656  0.4403 -0.6263 -0.2731
 5605TIP3    H138450   0.004   5.454   0.702 -0.4545 -0.4727 -0.8499
 5605TIP3    H238451   0.113   5.353   0.672  0.9284  1.0433 -1.0337
 5606TIP3   OH238452   5.577   0.817   0.240 -0.0738 -0.6325 -0.1187
 5606TIP3    H138453   5.636   0.777   0.176 -2.0806  0.2862 -2.7282
 5606TIP3    H238454   5.618   0.901   0.262 -0.7848  0.4819 -2.7164
 5607TIP3   OH238455   4.630   1.142   1.082 -0.2554 -0.0876 -0.3886
 5607TIP3    H138456   4.626   1.054   1.045 -0.1416 -0.3721  0.2631
 5607TIP3    H238457   4.540   1.176   1.073 -0.1989 -0.1028 -1.0269
 5608TIP3   OH238458   1.568   1.895   0.911  0.4815 -0.5911 -0.1106
 5608TIP3    H138459   1.561   1.846   0.829  1.3211 -0.1322 -0.4715
 5608TIP3    H238460   1.528   1.980   0.891  1.7999 -0.0248 -0.4452
 5609TIP3   OH238461   6.551   5.367   1.303  0.1683  0.3054  0.0187
 5609TIP3    H138462   6.640   5.401   1.312  0.7643 -1.0526 -0.4920
 5609TIP3    H238463   6.558   5.275   1.328 -0.6850 -0.3060 -1.7970
 5610TIP3   OH238464   5.335   5.863   7.700  0.2090  0.4567  0.0420
 5610TIP3    H138465   5.272   5.842   7.768 -0.0083  0.9810  0.0085
 5610TIP3    H238466   5.294   5.934   7.650 -0.1468 -0.6843 -1.3620
 5611TIP3   OH238467   5.697   3.975   1.879  0.2717  0.2043 -0.2917
 5611TIP3    H138468   5.785   3.998   1.909  0.7792 -1.6896 -0.2159
 5611TIP3    H238469   5.697   3.996   1.786  1.2879 -1.0386 -0.5922
 5612TIP3   OH238470   2.853   2.282   0.563  0.2804 -0.0367  0.3424
 5612TIP3    H138471   2.846   2.354   0.625 -1.4427  2.0471 -2.0438
 5612TIP3    H238472   2.766   2.276   0.524  0.8398 -2.3437 -0.7308
 5613TIP3   OH238473   0.243   3.884   6.098 -0.2682 -0.4655 -0.7950
 5613TIP3    H138474   0.284   3.967   6.121  0.3627 -0.8285 -0.5687
 5613TIP3    H238475   0.239   3.836   6.181 -1.9537 -0.1138 -0.6378
 5614TIP3   OH238476   4.809   6.100   1.590 -0.4002 -0.1529 -0.2147
 5614TIP3    H138477   4.821   6.119   1.683 -1.8018  1.5163 -0.3269
 5614TIP3    H238478   4.894   6.119   1.550  0.3006 -1.1768  0.7410
 5615TIP3   OH238479   5.503   1.897   2.175 -0.3990  0.1617 -0.2364
 5615TIP3    H138480   5.575   1.848   2.213 -0.2391 -0.6539 -1.5344
 5615TIP3    H238481   5.432   1.834   2.166 -0.4699  0.3517 -1.1531
 5616TIP3   OH238482   5.312   2.202   7.426 -0.4036  0.2293  0.1925
 5616TIP3    H138483   5.243   2.266   7.443  0.0945  0.9151 -0.3137
 5616TIP3    H238484   5.343   2.176   7.513 -0.8647  0.3854  0.4052
 5617TIP3   OH238485   0.445   5.039   8.650 -0.6253  0.0067 -0.0793
 5617TIP3    H138486   0.414   5.092   8.723  0.8122  1.6261 -0.5868
 5617TIP3    H238487   0.453   4.951   8.687 -1.1766  0.5239  1.3451
 5618TIP3   OH238488   5.752   5.806   7.339  0.1589 -0.0385  0.1027
 5618TIP3    H138489   5.680   5.823   7.399 -0.7820 -0.0071 -0.9986
 5618TIP3    H238490   5.825   5.858   7.374 -1.3405  2.8399 -0.6698
 5619TIP3   OH238491   3.598   2.817   7.629  0.2125  0.0121  0.3365
 5619TIP3    H138492   3.644   2.896   7.600  0.4363  0.0765  0.8586
 5619TIP3    H238493   3.631   2.748   7.572 -0.9041  0.5053 -0.9657
 5620TIP3   OH238494   0.453   1.044   7.982 -0.5400  0.4456 -0.4761
 5620TIP3    H138495   0.472   1.097   7.905  1.7924 -0.4637 -0.5920
 5620TIP3    H238496   0.421   0.961   7.947  3.0612 -0.9892 -0.7157
 5621TIP3   OH238497   4.705   0.387   0.967  0.1684  0.3746 -0.1963
 5621TIP3    H138498   4.758   0.384   1.046 -1.0748  0.3251  0.6643
 5621TIP3    H238499   4.621   0.349   0.993 -0.0197 -0.3391 -1.7409
 5622TIP3   OH238500   2.368   0.125   1.210 -0.4143  0.3960 -0.1343
 5622TIP3    H138501   2.454   0.145   1.174  0.2391  2.1295  2.1877
 5622TIP3    H238502   2.381   0.046   1.262  0.1523  1.4150  1.3248
 5623TIP3   OH238503   5.112   6.038   1.294 -0.3345  0.4980  0.1166
 5623TIP3    H138504   5.072   6.124   1.292 -1.4201  0.0007 -1.0094
 5623TIP3    H238505   5.055   5.983   1.240 -1.8443 -1.8979  3.7096
 5624TIP3   OH238506   6.065   5.082   7.313  0.1019  0.8231 -0.2577
 5624TIP3    H138507   5.994   5.139   7.284 -0.8806 -0.3754 -0.2806
 5624TIP3    H238508   6.044   5.061   7.404  0.4232  0.4493 -0.2666
 5625TIP3   OH238509   4.991   1.057   7.705 -0.3058  0.5047  0.4846
 5625TIP3    H138510   5.008   1.018   7.618  1.5651  0.9269  0.6361
 5625TIP3    H238511   5.037   1.000   7.766 -2.2189 -0.2201  1.3423
 5626TIP3   OH238512   5.257   1.791   7.159  0.1739 -0.0489  0.2489
 5626TIP3    H138513   5.170   1.831   7.157  0.5551  0.7778 -0.4683
 5626TIP3    H238514   5.242   1.702   7.191 -1.1017 -0.3619 -1.1223
 5627TIP3   OH238515   2.943   4.382   1.199 -0.5189 -0.3003  0.0380
 5627TIP3    H138516   2.980   4.364   1.113 -1.0056  1.1461 -0.5055
 5627TIP3    H238517   3.018   4.392   1.257 -0.1772 -0.8533 -0.3053
 5628TIP3   OH238518   6.123   1.318   2.431 -0.1183 -0.4897 -0.5819
 5628TIP3    H138519   6.218   1.320   2.419 -0.3866  1.0978 -3.2187
 5628TIP3    H238520   6.104   1.402   2.474 -0.3151 -1.1461  0.6737
 5629TIP3   OH238521   4.025   4.757   0.777 -0.2434 -0.1805 -0.1944
 5629TIP3    H138522   4.003   4.665   0.789 -0.4261 -0.2747 -1.1746
 5629TIP3    H238523   4.116   4.756   0.748  0.2386  0.0478  1.2686
 5630TIP3   OH238524   5.737   2.577   6.738 -0.4697 -0.5569 -0.1107
 5630TIP3    H138525   5.693   2.498   6.772 -0.5082 -0.9159 -0.9827
 5630TIP3    H238526   5.828   2.551   6.728  0.1958  0.4637  2.5764
 5631TIP3   OH238527   1.114   3.757   7.327  0.0871  0.2349  0.2838
 5631TIP3    H138528   1.135   3.850   7.318 -1.1408  0.4434 -0.5686
 5631TIP3    H238529   1.100   3.745   7.421  1.1418  0.6967  0.5201
 5632TIP3   OH238530   1.111   5.233   6.812  0.0252 -0.5411 -0.2029
 5632TIP3    H138531   1.141   5.304   6.869 -2.1754 -1.8217  2.8360
 5632TIP3    H238532   1.181   5.167   6.817 -0.7088 -1.2419  2.3950
 5633TIP3   OH238533   6.588   0.516   8.287  0.0405 -0.7875  0.0272
 5633TIP3    H138534   6.557   0.583   8.227 -1.5030 -0.9208  0.6123
 5633TIP3    H238535   6.669   0.484   8.248 -0.8802 -0.8528 -1.9750
 5634TIP3   OH238536   6.773   5.415   1.448  0.0147  0.5386  0.0605
 5634TIP3    H138537   6.787   5.498   1.494 -2.0625  1.0911 -0.1980
 5634TIP3    H238538   6.860   5.387   1.421  0.7838  2.5828  0.2794
 5635TIP3   OH238539   6.551   3.755   7.157  0.3739 -0.7823  0.0497
 5635TIP3    H138540   6.523   3.695   7.087  2.2661 -1.0880 -0.5199
 5635TIP3    H238541   6.492   3.736   7.230 -1.5283 -0.6009 -1.3782
 5636TIP3   OH238542   1.359   1.767   1.561 -0.3938  0.4662  0.0110
 5636TIP3    H138543   1.428   1.728   1.614 -1.1703  0.3068  0.9470
 5636TIP3    H238544   1.313   1.826   1.621 -0.6081  1.1348 -0.7928
 5637TIP3   OH238545   3.772   3.180   0.497 -0.2279  0.6344 -0.0532
 5637TIP3    H138546   3.701   3.142   0.444  1.6215 -1.2621 -1.2983
 5637TIP3    H238547   3.770   3.274   0.475 -2.7605  0.8080  0.5326
 5638TIP3   OH238548   5.749   1.581   7.127 -0.2658 -0.2235 -0.1941
 5638TIP3    H138549   5.710   1.494   7.119 -0.0862 -0.5057  1.6820
 5638TIP3    H238550   5.679   1.635   7.165  0.0257  0.1395 -0.1673
 5639TIP3   OH238551   1.994   1.898   8.270 -0.8928 -0.8381  0.2984
 5639TIP3    H138552   1.969   1.936   8.354  1.0237  0.6151  0.2773
 5639TIP3    H238553   2.050   1.964   8.229 -1.0646 -1.8709 -1.7560
 5640TIP3   OH238554   5.580   4.891   1.986  0.1084  0.0193  0.4764
 5640TIP3    H138555   5.535   4.862   2.065  0.9202  0.3736  1.0904
 5640TIP3    H238556   5.607   4.981   2.005  0.3438  0.0953 -0.1873
 5641TIP3   OH238557   5.524   1.805   0.044  0.0930 -0.5748  0.5858
 5641TIP3    H138558   5.448   1.791  -0.013 -0.5919  0.2421  1.2709
 5641TIP3    H238559   5.566   1.884   0.009  0.7770 -1.1547  0.0674
 5642TIP3   OH238560   5.445   0.781   8.706  0.3537  0.5033 -0.3478
 5642TIP3    H138561   5.528   0.825   8.686  1.7321 -1.2933  0.9692
 5642TIP3    H238562   5.438   0.787   8.801  0.8476 -2.3029 -0.0239
 5643TIP3   OH238563   6.534   5.470   7.579 -0.3995  0.3163 -0.3058
 5643TIP3    H138564   6.625   5.443   7.570 -0.5422 -0.5616  0.6754
 5643TIP3    H238565   6.522   5.483   7.673 -1.1198  1.0269 -0.4875
 5644TIP3   OH238566   0.888   4.139   1.594  0.6565 -0.7452 -0.4115
 5644TIP3    H138567   0.943   4.181   1.659 -0.5818 -0.8738  0.7582
 5644TIP3    H238568   0.858   4.211   1.538  0.7247 -0.4549 -0.0783
 5645TIP3   OH238569   4.274   5.928   0.258 -0.5694  0.4763  0.9410
 5645TIP3    H138570   4.236   5.868   0.194  0.7875 -0.9871  1.4286
 5645TIP3    H238571   4.363   5.895   0.272 -0.2821  1.7272  2.3512
 5646TIP3   OH238572   4.080   6.471   8.549  0.2346 -0.7683 -0.1234
 5646TIP3    H138573   4.054   6.536   8.613  1.0237  0.2385 -0.7742
 5646TIP3    H238574   4.147   6.516   8.496  0.5134 -1.9797 -0.8367
 5647TIP3   OH238575   0.899   0.874   8.239  0.0791  0.2609  0.0377
 5647TIP3    H138576   0.895   0.791   8.192  0.3004 -0.2828  0.9505
 5647TIP3    H238577   0.992   0.889   8.253  0.0191  0.4388  0.2520
 5648TIP3   OH238578   6.214   5.725   7.698  0.1276 -0.1220  0.2263
 5648TIP3    H138579   6.151   5.708   7.628  1.2030 -1.7303 -0.4117
 5648TIP3    H238580   6.283   5.660   7.685  1.3213  0.7830  1.6404
 5649TIP3   OH238581   4.477   1.720   6.508 -0.8141  0.1371  0.0644
 5649TIP3    H138582   4.481   1.655   6.578 -1.3363 -0.4554 -0.4326
 5649TIP3    H238583   4.565   1.719   6.470 -1.2011 -1.4738 -0.9439
 5650TIP3   OH238584   3.144   0.734   6.851  0.0663 -0.1958 -0.1715
 5650TIP3    H138585   3.215   0.726   6.915 -0.0919 -1.2954 -0.1173
 5650TIP3    H238586   3.104   0.647   6.848 -1.5012  0.4757  0.0523
 5651TIP3   OH238587   4.041   3.986   1.656 -0.5325 -0.3793  0.3474
 5651TIP3    H138588   4.003   4.073   1.664 -2.6574 -1.2750  0.5319
 5651TIP3    H238589   4.125   4.000   1.613  0.0779  1.9463  2.1128
 5652TIP3   OH238590   4.488   4.441   8.470  0.5420 -0.3705  0.5283
 5652TIP3    H138591   4.564   4.488   8.504  1.1723 -0.0964 -1.1324
 5652TIP3    H238592   4.484   4.360   8.521  1.7371 -0.2232  0.8847
 5653TIP3   OH238593   2.819   3.358   6.097 -0.6700  0.0389 -0.5623
 5653TIP3    H138594   2.893   3.401   6.141 -2.2871  0.9869  1.4327
 5653TIP3    H238595   2.859   3.304   6.030  1.7702  1.2438 -0.2030
 5654TIP3   OH238596   1.324   5.464   6.785  0.2346 -0.0090  0.2640
 5654TIP3    H138597   1.245   5.504   6.749 -0.2315  0.1238  1.3928
 5654TIP3    H238598   1.319   5.372   6.757 -0.1798  0.0569  0.1111
 5655TIP3   OH238599   0.617   3.646   7.582  0.4890 -0.7451  0.1065
 5655TIP3    H138600   0.589   3.598   7.660 -0.9073 -0.3893 -0.1529
 5655TIP3    H238601   0.704   3.679   7.605  0.3345 -1.1158  1.2995
 5656TIP3   OH238602   6.249   1.260   1.157  0.6127 -0.0388  0.3755
 5656TIP3    H138603   6.330   1.267   1.207 -0.1004  1.3542  1.3960
 5656TIP3    H238604   6.201   1.340   1.178 -0.8464 -0.6418 -0.5335
 5657TIP3   OH238605   5.225   4.309   1.646 -0.7107 -0.4057  0.4279
 5657TIP3    H138606   5.252   4.400   1.633 -1.5671 -0.2680 -0.4642
 5657TIP3    H238607   5.306   4.259   1.636 -0.0552  0.3128  1.8595
 5658TIP3   OH238608   2.551   2.625   0.548 -0.4521  0.1664 -0.1609
 5658TIP3    H138609   2.568   2.538   0.511 -1.2870 -0.9908  1.9458
 5658TIP3    H238610   2.508   2.606   0.632  0.3182  2.6071  0.8585
 5659TIP3   OH238611   5.870   6.023   0.653  0.3663 -0.2150  0.3497
 5659TIP3    H138612   5.854   5.931   0.633 -1.4213  0.0934  0.1582
 5659TIP3    H238613   5.824   6.071   0.583  0.2086  0.8285  1.1405
 5660TIP3   OH238614   6.305   5.904   0.494 -0.2614  0.1591  0.0475
 5660TIP3    H138615   6.223   5.947   0.469  0.2609  0.9348 -0.3453
 5660TIP3    H238616   6.285   5.810   0.485 -1.1973  0.3237  0.2541
 5661TIP3   OH238617   0.536   4.223   7.094  0.4170  0.4444  0.3456
 5661TIP3    H138618   0.627   4.195   7.104  0.2930  0.1370  0.6402
 5661TIP3    H238619   0.541   4.306   7.048  0.9566  1.3453  1.9557
 5662TIP3   OH238620   2.143   6.293   6.591  0.2715 -0.0743  0.1362
 5662TIP3    H138621   2.147   6.199   6.569  0.5010 -0.1121  0.3368
 5662TIP3    H238622   2.107   6.334   6.512  1.3142 -0.1857 -0.4176
 5663TIP3   OH238623   6.216   6.743   2.282 -0.2919 -0.0411 -0.3855
 5663TIP3    H138624   6.278   6.676   2.251 -1.0732 -1.3629  0.8199
 5663TIP3    H238625   6.269   6.802   2.336  0.2905 -0.0037 -0.9850
 5664TIP3   OH238626   2.201   2.913   8.705  0.5857 -0.2188  0.2443
 5664TIP3    H138627   2.142   2.967   8.652  0.1070  0.1408  1.1272
 5664TIP3    H238628   2.288   2.952   8.691  0.1951  1.1019  1.2145
 5665TIP3   OH238629   2.200   5.907   8.574 -0.7950 -0.0876  0.6083
 5665TIP3    H138630   2.112   5.929   8.605 -0.1576 -1.1845  3.5779
 5665TIP3    H238631   2.207   5.812   8.588  1.2748  0.1844  1.7648
 5666TIP3   OH238632   4.062   4.837   7.905 -0.3758 -0.3290  0.0852
 5666TIP3    H138633   4.136   4.822   7.847  0.0994  1.2231  0.2559
 5666TIP3    H238634   4.082   4.919   7.950 -0.6827 -1.4849  2.5111
 5667TIP3   OH238635   3.043   5.946   0.758  0.6064 -0.1636  0.1744
 5667TIP3    H138636   3.070   6.007   0.827  1.2423 -0.0283 -0.1917
 5667TIP3    H238637   2.992   6.000   0.697  0.6658 -0.1240  0.1592
 5668TIP3   OH238638   0.480   2.052   0.299  0.1936  0.4223 -0.2478
 5668TIP3    H138639   0.404   2.011   0.256 -0.1405  0.3358  0.4062
 5668TIP3    H238640   0.476   2.020   0.389  0.4224  1.2219  0.0524
 5669TIP3   OH238641   0.301   5.102   2.352 -0.0819 -0.0731 -0.1165
 5669TIP3    H138642   0.283   5.008   2.347 -0.6936  0.0704 -0.8270
 5669TIP3    H238643   0.396   5.108   2.349  0.0114 -0.7196  0.9645
 5670TIP3   OH238644   3.087   2.267   1.126 -0.3221 -0.2204  0.0149
 5670TIP3    H138645   3.061   2.253   1.217  0.1046  1.5070  0.4507
 5670TIP3    H238646   3.132   2.187   1.101 -1.0965 -1.0226  1.0726
 5671TIP3   OH238647   0.417   2.816   8.704 -0.1955 -0.1038  0.2208
 5671TIP3    H138648   0.379   2.741   8.658 -0.2902  1.2410 -2.0055
 5671TIP3    H238649   0.452   2.778   8.785 -0.8647 -2.4128 -0.4772
 5672TIP3   OH238650   2.445   4.073   0.065 -0.3205 -0.0519  0.2161
 5672TIP3    H138651   2.406   4.021  -0.005  1.5161 -0.0241 -0.9107
 5672TIP3    H238652   2.375   4.129   0.096 -2.1096 -2.4338  0.7694
 5673TIP3   OH238653   2.476   6.531   7.767  0.1276 -0.8379 -0.1817
 5673TIP3    H138654   2.403   6.491   7.720  1.4963 -1.8442 -1.5540
 5673TIP3    H238655   2.497   6.467   7.836  1.7759 -2.2392 -1.8573
 5674TIP3   OH238656   5.531   4.336   8.816 -0.2577  0.2986 -0.3720
 5674TIP3    H138657   5.466   4.377   8.759 -0.6235 -0.1447 -0.2827
 5674TIP3    H238658   5.515   4.242   8.807 -0.8042  0.2329  0.9851
 5675TIP3   OH238659   4.723   2.437   1.531  0.0957 -0.2656  0.1478
 5675TIP3    H138660   4.799   2.471   1.484 -0.6024  1.7163  0.3577
 5675TIP3    H238661   4.735   2.342   1.531  2.6634 -0.0074  0.3672
 5676TIP3   OH238662   3.020   3.656   1.572  0.2969 -0.0603 -0.3754
 5676TIP3    H138663   3.062   3.589   1.518  1.9570  2.5302 -2.5473
 5676TIP3    H238664   3.058   3.738   1.542 -2.4807  2.0190  1.3259
 5677TIP3   OH238665   3.574   1.708   0.427 -0.1730 -0.3268 -0.3442
 5677TIP3    H138666   3.623   1.631   0.457 -0.5950 -0.1926  0.7437
 5677TIP3    H238667   3.622   1.783   0.462 -0.4108 -0.1439 -0.4065
 5678TIP3   OH238668   4.171   1.503   2.453  0.1988  0.2151  0.1479
 5678TIP3    H138669   4.118   1.554   2.392 -0.9544  1.4543  2.0660
 5678TIP3    H238670   4.131   1.416   2.452 -0.4762  0.5207 -0.0837
 5679TIP3   OH238671   3.918   4.521   1.489 -0.0893  0.6128  0.2169
 5679TIP3    H138672   3.853   4.480   1.546  0.3291 -1.5758 -0.7645
 5679TIP3    H238673   3.871   4.537   1.407  0.0172  1.2130  0.2666
 5680TIP3   OH238674   3.398   4.778   7.606  0.5385  0.0795 -0.3075
 5680TIP3    H138675   3.431   4.817   7.686 -1.7113 -0.8507  1.1825
 5680TIP3    H238676   3.323   4.832   7.582  0.5078 -0.3154 -1.1473
 5681TIP3   OH238677   5.523   6.580   8.648  0.1715  0.0327  0.4796
 5681TIP3    H138678   5.477   6.643   8.704  0.7633  0.6465  0.3009
 5681TIP3    H238679   5.570   6.635   8.585  0.6709 -0.5999  0.2919
 5682TIP3   OH238680   6.202   6.590   1.984  0.0609 -0.6327  0.0890
 5682TIP3    H138681   6.265   6.585   2.055  1.4238 -1.0671 -1.0935
 5682TIP3    H238682   6.159   6.504   1.983  0.8262 -1.0215 -0.2810
 5683TIP3   OH238683   4.403   4.441   0.415 -0.5078  0.3020 -0.1529
 5683TIP3    H138684   4.451   4.503   0.359 -1.7981  3.4626  1.9359
 5683TIP3    H238685   4.323   4.423   0.366 -1.8619  3.4336  0.6384
 5684TIP3   OH238686   4.756   2.157   1.550 -0.3458 -0.0462  0.0871
 5684TIP3    H138687   4.772   2.135   1.642 -1.1629  0.4485  0.3541
 5684TIP3    H238688   4.682   2.102   1.525 -0.5237  0.2777 -0.0984
 5685TIP3   OH238689   4.391   3.801   7.121  0.0599 -0.0231 -0.1642
 5685TIP3    H138690   4.465   3.842   7.165 -0.5412  0.2472  0.6047
 5685TIP3    H238691   4.319   3.806   7.184 -0.8274  0.4138 -1.1776
 5686TIP3   OH238692   4.357   6.730   7.089  0.2722 -0.0371 -0.3639
 5686TIP3    H138693   4.415   6.667   7.045 -0.5222 -2.1565  1.4111
 5686TIP3    H238694   4.375   6.717   7.183 -1.4198  0.9019  0.1256
 5687TIP3   OH238695   6.663   4.836   8.820  0.5495 -0.3187  0.4090
 5687TIP3    H138696   6.721   4.762   8.802  2.0736 -0.0887  3.7046
 5687TIP3    H238697   6.599   4.801   8.881  0.9307  0.9137  1.5495
 5688TIP3   OH238698   3.212   3.993   1.225  0.3613 -0.3679 -0.5215
 5688TIP3    H138699   3.208   4.035   1.311  0.8123  0.9314 -1.0991
 5688TIP3    H238700   3.260   4.056   1.170 -1.0532 -0.5619 -2.0617
 5689TIP3   OH238701   4.819   5.007   7.246 -0.3560  0.1545  0.0348
 5689TIP3    H138702   4.884   4.938   7.233  0.2200  0.2553  2.0547
 5689TIP3    H238703   4.753   4.990   7.178  0.2175 -1.8265 -0.1014
 5690TIP3   OH238704   4.885   5.304   8.866 -0.1138  0.0706  0.1389
 5690TIP3    H138705   4.974   5.278   8.845  0.4247  0.2631  2.0506
 5690TIP3    H238706   4.890   5.399   8.879 -1.1203  0.5181 -2.0602
 5691TIP3   OH238707   1.452   3.199   0.734  0.0940 -0.2014 -0.2008
 5691TIP3    H138708   1.432   3.257   0.661  1.2719  1.1439  0.4801
 5691TIP3    H238709   1.371   3.194   0.784 -0.4499 -0.3775 -1.0830
 5692TIP3   OH238710   6.069   4.958   0.783  0.0663 -0.5729 -0.1551
 5692TIP3    H138711   6.162   4.960   0.808  0.5527  0.5549 -1.8091
 5692TIP3    H238712   6.042   4.867   0.796  1.5921 -1.0679 -0.2157
 5693TIP3   OH238713   5.797   2.101   0.867  0.1113  0.6295 -0.3491
 5693TIP3    H138714   5.750   2.048   0.802  1.9649 -0.8807 -0.5476
 5693TIP3    H238715   5.826   2.178   0.819  2.1319 -0.8287 -1.6444
 5694TIP3   OH238716   2.036   0.560   2.428  0.6869  0.2777  0.2254
 5694TIP3    H138717   1.951   0.528   2.397  0.1634  2.0960 -0.3339
 5694TIP3    H238718   2.094   0.484   2.420 -0.5507 -0.6191 -0.7075
 5695TIP3   OH238719   6.641   2.145   7.198 -0.3827  0.4593 -0.8099
 5695TIP3    H138720   6.549   2.172   7.204 -0.8469 -1.0476 -0.8029
 5695TIP3    H238721   6.647   2.099   7.115 -0.2580 -1.6021  0.2723
 5696TIP3   OH238722   1.991   2.326   1.670 -0.7472 -0.2234  0.1524
 5696TIP3    H138723   1.964   2.349   1.759 -0.9765 -0.9584  0.2809
 5696TIP3    H238724   2.066   2.383   1.652  0.3380 -1.1666  1.4411
 5697TIP3   OH238725   1.656   2.745   7.056 -0.0232 -0.4820 -0.5436
 5697TIP3    H138726   1.714   2.681   7.015 -0.2460  0.4423 -2.3755
 5697TIP3    H238727   1.654   2.719   7.148  2.1816 -1.3558 -0.6869
 5698TIP3   OH238728   0.548   2.483   8.054  0.3239 -0.3843 -0.4740
 5698TIP3    H138729   0.453   2.480   8.055  0.2864  0.5511 -0.2974
 5698TIP3    H238730   0.570   2.516   7.967  0.6067 -2.9737 -1.4846
 5699TIP3   OH238731   1.893   0.289   0.260  0.0649 -0.0447 -0.2258
 5699TIP3    H138732   1.861   0.209   0.302  0.9756  0.0278  0.6649
 5699TIP3    H238733   1.824   0.313   0.198 -1.5811  0.0705  1.5383
 5700TIP3   OH238734   4.797   3.510   1.743  0.4488 -0.1006 -0.0769
 5700TIP3    H138735   4.844   3.542   1.666  0.3424  0.5463  0.1228
 5700TIP3    H238736   4.731   3.450   1.708 -1.7991  2.6100 -0.8516
 5701TIP3   OH238737   1.270   4.211   7.789  0.3829  0.0851 -0.3268
 5701TIP3    H138738   1.189   4.261   7.799  1.7223  2.0576  1.5353
 5701TIP3    H238739   1.285   4.173   7.876  0.5784 -1.7861 -1.1224
 5702TIP3   OH238740   0.475   4.278   1.165  0.7112 -0.1339  0.2704
 5702TIP3    H138741   0.436   4.361   1.193 -0.8769 -1.1525  1.2888
 5702TIP3    H238742   0.537   4.257   1.235  0.0759 -0.4553  0.7578
 5703TIP3   OH238743   1.899   4.180   7.922 -0.0154 -0.3950  0.2710
 5703TIP3    H138744   1.924   4.140   8.005  2.4219  0.8560  0.2147
 5703TIP3    H238745   1.817   4.226   7.941 -0.7811 -2.0858  1.3147
 5704TIP3   OH238746   1.506   3.530   0.263 -0.2323  0.4739 -0.3441
 5704TIP3    H138747   1.474   3.441   0.253  0.0236  0.4241 -0.7483
 5704TIP3    H238748   1.557   3.528   0.345  2.6012 -0.6249 -1.9803
 5705TIP3   OH238749   3.626   3.973   6.796  0.4246  0.0736  0.3191
 5705TIP3    H138750   3.685   3.898   6.805  0.6530  0.0584 -1.0268
 5705TIP3    H238751   3.658   4.019   6.718 -1.8649 -0.4431 -1.0347
 5706TIP3   OH238752   5.863   2.346   8.521  0.1997 -0.3411 -0.4874
 5706TIP3    H138753   5.869   2.441   8.533  0.9193 -0.5520  1.1433
 5706TIP3    H238754   5.851   2.334   8.427 -2.6501  1.4593 -0.4803
 5707TIP3   OH238755   6.481   1.723   2.295 -0.3012  0.6627  0.5005
 5707TIP3    H138756   6.481   1.655   2.362  2.2124  0.3430  0.2785
 5707TIP3    H238757   6.488   1.805   2.344  3.7933  0.3494  0.8002
 5708TIP3   OH238758   2.056   3.130   0.050  0.5323  0.2341  0.2837
 5708TIP3    H138759   1.967   3.160   0.032 -0.0327 -0.4724  1.7269
 5708TIP3    H238760   2.050   3.035   0.045  1.2313  0.1862  0.3055
 5709TIP3   OH238761   5.131   6.105   7.993  0.4527 -0.0828 -0.5059
 5709TIP3    H138762   5.108   6.018   7.961 -2.9211  0.5116  0.0290
 5709TIP3    H238763   5.205   6.090   8.051  0.1516 -2.5392 -0.6467
 5710TIP3   OH238764   1.575   0.331   8.364  0.3051 -0.0884  0.2280
 5710TIP3    H138765   1.526   0.296   8.290 -2.5454  0.3500  1.7470
 5710TIP3    H238766   1.569   0.263   8.431  1.5706  0.1149  0.5679
 5711TIP3   OH238767   2.614   5.604   7.250  0.0073  0.6314 -0.1946
 5711TIP3    H138768   2.604   5.572   7.340 -0.9209 -0.2549 -0.5847
 5711TIP3    H238769   2.679   5.673   7.256 -1.0723  1.5844  1.4113
 5712TIP3   OH238770   1.741   1.152   8.976 -0.3162 -0.1037  0.1996
 5712TIP3    H138771   1.792   1.224   8.940  0.8862 -0.7460  0.5921
 5712TIP3    H238772   1.716   1.181   9.064  1.1780 -0.6202  0.8155
 5713TIP3   OH238773   6.709   5.568   0.018 -0.4713 -0.0473  0.6305
 5713TIP3    H138774   6.733   5.638  -0.043  0.5886 -0.3539  0.6742
 5713TIP3    H238775   6.637   5.522  -0.025  0.1460 -0.1553 -0.3225
 5714TIP3   OH238776   3.943   3.824   0.060 -0.3104  0.5415 -0.3221
 5714TIP3    H138777   3.934   3.914   0.092 -1.1533  0.7448 -1.0843
 5714TIP3    H238778   3.855   3.787   0.065  0.4147 -1.0342  2.1228
 5715TIP3   OH238779   4.349   0.553   1.517  0.5887  0.1766  0.2192
 5715TIP3    H138780   4.412   0.618   1.488 -0.2994 -0.0168 -2.3875
 5715TIP3    H238781   4.290   0.541   1.442 -0.0185 -2.7092  1.0129
 5716TIP3   OH238782   4.528   2.759   1.305  0.0883 -0.0100 -0.3995
 5716TIP3    H138783   4.440   2.742   1.272  0.1743 -0.0862 -0.5920
 5716TIP3    H238784   4.572   2.674   1.301 -0.3988 -0.4064  1.4759
 5717TIP3   OH238785   5.944   6.014   7.404 -0.1574 -0.6689  0.1628
 5717TIP3    H138786   5.998   6.021   7.482 -0.3287  0.3391  0.2106
 5717TIP3    H238787   5.901   6.100   7.397  0.9276 -0.2100 -1.7976
 5718TIP3   OH238788   1.628   2.140   8.868  0.1026  0.3835 -0.3232
 5718TIP3    H138789   1.567   2.166   8.799  0.1096 -0.7673 -0.7899
 5718TIP3    H238790   1.607   2.049   8.886 -1.1602  1.1080  2.5667
 5719TIP3   OH238791   1.890   2.633   7.430  0.2628 -0.0569 -0.8800
 5719TIP3    H138792   1.835   2.589   7.366  0.1326 -3.1724  1.1721
 5719TIP3    H238793   1.828   2.681   7.486  0.0774 -0.0890 -1.0547
 5720TIP3   OH238794   2.062   6.037   0.132 -0.0783  0.7987 -0.1609
 5720TIP3    H138795   2.114   6.113   0.156  0.8879 -0.4235  1.8603
 5720TIP3    H238796   2.126   5.973   0.100 -0.6917  0.3102 -0.4362
 5721TIP3   OH238797   1.614   1.364   0.189 -0.0323 -0.6419 -0.1406
 5721TIP3    H138798   1.704   1.387   0.213 -0.3061 -0.4813  0.7959
 5721TIP3    H238799   1.561   1.401   0.259 -0.9325  0.1960 -1.2284
 5722TIP3   OH238800   6.002   0.831   0.504 -0.0659 -0.3605 -0.5631
 5722TIP3    H138801   6.040   0.745   0.521 -1.6164 -1.3138 -1.6552
 5722TIP3    H238802   6.002   0.838   0.408  0.8390  1.2649 -0.4845
 5723TIP3   OH238803   6.512   3.355   7.594 -0.0012 -0.3833 -0.4180
 5723TIP3    H138804   6.432   3.388   7.553 -1.1912 -1.2267  1.0848
 5723TIP3    H238805   6.562   3.318   7.522 -2.0741 -1.9930 -1.1405
 5724TIP3   OH238806   5.649   3.761   6.848 -0.4233 -0.4907  0.0037
 5724TIP3    H138807   5.688   3.674   6.846 -2.4340 -1.4717  0.4064
 5724TIP3    H238808   5.562   3.747   6.886 -0.9931  1.6203 -0.3995
 5725TIP3   OH238809   4.515   5.171   8.641  0.6449  0.5407 -0.1949
 5725TIP3    H138810   4.551   5.258   8.659  0.6120  0.7983 -1.3510
 5725TIP3    H238811   4.567   5.137   8.569 -0.3186  0.2216 -0.7576
 5726TIP3   OH238812   4.492   4.569   1.363 -0.0820 -0.4029  0.6827
 5726TIP3    H138813   4.476   4.647   1.417  1.2141  0.0478  0.4348
 5726TIP3    H238814   4.498   4.497   1.426 -1.4378 -0.3548  0.9035
 5727TIP3   OH238815   5.690   0.559   1.027  0.2924  0.4914  0.0359
 5727TIP3    H138816   5.708   0.526   1.115  0.8638  1.1333  0.1662
 5727TIP3    H238817   5.605   0.522   1.005  0.9097 -1.0956  0.1661
 5728TIP3   OH238818   0.473   5.669   0.185 -0.4807  0.6077 -0.0728
 5728TIP3    H138819   0.500   5.581   0.157  0.3767  0.8698 -0.1096
 5728TIP3    H238820   0.378   5.670   0.173 -0.7946 -0.9936  1.8042
 5729TIP3   OH238821   0.328   2.489   7.049  0.0092  0.0891 -0.4376
 5729TIP3    H138822   0.348   2.575   7.086 -1.3212  1.0252 -1.7241
 5729TIP3    H238823   0.233   2.481   7.059  0.2532 -1.9538  1.0275
 5730TIP3   OH238824   6.534   5.681   8.568  0.0630 -0.8085 -0.4019
 5730TIP3    H138825   6.486   5.728   8.637 -1.1989 -0.8779 -1.2110
 5730TIP3    H238826   6.488   5.597   8.560 -0.3418 -0.4735 -1.8942
 5731TIP3   OH238827   0.460   3.974   6.512  0.5552  0.0889  0.8678
 5731TIP3    H138828   0.554   3.969   6.526  1.0454  2.8685 -0.6166
 5731TIP3    H238829   0.434   4.059   6.549 -1.6806 -1.1814  2.4881
 5732TIP3   OH238830   3.007   0.869   0.958  0.2293 -0.2259 -0.9415
 5732TIP3    H138831   2.925   0.856   0.910  0.5668 -0.0513 -1.5723
 5732TIP3    H238832   3.051   0.784   0.953  0.1480 -0.2824 -0.7118
 5733TIP3   OH238833   4.835   0.655   6.973  0.1981 -0.0860  0.6059
 5733TIP3    H138834   4.865   0.645   6.882 -3.4390  2.2165 -1.0510
 5733TIP3    H238835   4.769   0.587   6.984  0.3821 -0.1395  1.4212
 5734TIP3   OH238836   2.969   3.057   2.227  0.3747  0.7776  0.0259
 5734TIP3    H138837   3.024   3.131   2.201  0.0336  1.2468  0.6129
 5734TIP3    H238838   3.013   3.020   2.304  1.6302 -0.8926 -1.4088
 5735TIP3   OH238839   6.382   6.602   8.818  0.5214  0.7423 -0.2490
 5735TIP3    H138840   6.293   6.637   8.806 -0.3311 -1.0187  0.5651
 5735TIP3    H238841   6.419   6.601   8.730 -0.2624  1.4724 -0.6101
 5736TIP3   OH238842   4.822   3.788   8.685 -0.0024  0.4255 -0.1496
 5736TIP3    H138843   4.882   3.736   8.738 -0.9185  0.9283  1.4232
 5736TIP3    H238844   4.878   3.834   8.623  1.1466  0.2990  0.7818
 5737TIP3   OH238845   6.539   6.359   8.013 -0.2662  0.0556 -0.4005
 5737TIP3    H138846   6.567   6.308   7.937 -1.1582 -1.6573  0.3480
 5737TIP3    H238847   6.517   6.293   8.079 -1.6309  1.4208  0.5949
 5738TIP3   OH238848   6.285   2.715   7.733 -0.0307  0.3533  0.3357
 5738TIP3    H138849   6.265   2.706   7.640  0.0604 -0.3914  0.3843
 5738TIP3    H238850   6.380   2.709   7.738 -0.0252  0.5457  0.4589
 5739TIP3   OH238851   5.797   1.976   6.586  0.3274  0.3554 -0.3466
 5739TIP3    H138852   5.725   1.923   6.619  0.3238  0.5563 -0.0183
 5739TIP3    H238853   5.875   1.937   6.626  0.3561  0.3942 -0.3648
 5740TIP3   OH238854   5.186   5.150   0.510  0.4162 -0.1070 -0.1648
 5740TIP3    H138855   5.221   5.146   0.421  0.3083  1.9082 -0.3276
 5740TIP3    H238856   5.260   5.178   0.564  0.4467 -1.1881  0.3866
 5741TIP3   OH238857   4.892   2.324   1.042  0.0702 -0.9015 -0.9833
 5741TIP3    H138858   4.803   2.293   1.028 -0.4951  0.8000 -1.3496
 5741TIP3    H238859   4.944   2.244   1.051 -1.8651 -1.9943  1.8972
 5742TIP3   OH238860   3.202   5.561   1.558 -0.2973  0.0343 -0.1970
 5742TIP3    H138861   3.198   5.596   1.469 -0.0398 -3.2638 -1.6726
 5742TIP3    H238862   3.116   5.579   1.595 -0.8894  0.2870 -1.6262
 5743TIP3   OH238863   2.134   4.177   1.170  0.0616  0.2525 -0.3900
 5743TIP3    H138864   2.096   4.090   1.161  0.8727  0.0201 -2.1806
 5743TIP3    H238865   2.068   4.236   1.133  0.1605  0.2034 -0.6487
 5744TIP3   OH238866   5.425   6.437   7.549 -0.9069  0.3258  0.3736
 5744TIP3    H138867   5.332   6.459   7.558 -1.0418 -0.4729  0.9855
 5744TIP3    H238868   5.435   6.416   7.456 -1.4231  0.0486  0.3739
 5745TIP3   OH238869   6.073   1.530   0.963 -0.1626 -0.4098 -0.1058
 5745TIP3    H138870   6.044   1.501   1.049 -0.1813 -0.2936 -0.0725
 5745TIP3    H238871   6.163   1.498   0.955 -0.2091 -0.5424 -0.1012
 5746TIP3   OH238872   0.471   4.151   0.474  0.1785 -0.1910 -0.5524
 5746TIP3    H138873   0.500   4.097   0.400  0.6134 -0.3434 -0.2745
 5746TIP3    H238874   0.552   4.171   0.522 -0.0480  0.2530 -0.3495
 5747TIP3   OH238875   0.396   6.654   8.896 -0.7702  0.3489  0.4424
 5747TIP3    H138876   0.418   6.702   8.976  0.1555 -1.2512  1.1991
 5747TIP3    H238877   0.390   6.721   8.828  1.1461  1.4775  1.3143
 5748TIP3   OH238878   5.618   2.628   8.782 -0.8007  0.2399  0.0337
 5748TIP3    H138879   5.637   2.607   8.691 -0.2188 -1.1113  0.4323
 5748TIP3    H238880   5.688   2.688   8.808 -0.4201 -0.1127 -0.1580
 5749TIP3   OH238881   1.354   3.563   8.030  0.1454 -0.4947 -0.3752
 5749TIP3    H138882   1.419   3.502   8.065  0.4226  0.3278  0.5896
 5749TIP3    H238883   1.401   3.615   7.965  0.5665  0.3468  0.5850
 5750TIP3   OH238884   4.510   5.290   0.058 -0.3620 -0.8674  0.2258
 5750TIP3    H138885   4.447   5.218   0.057 -0.6518 -1.0166  4.8990
 5750TIP3    H238886   4.592   5.249   0.086  0.5130  0.0639 -0.9191
 5751TIP3   OH238887   5.810   0.134   2.059 -0.2321  0.0354 -0.0494
 5751TIP3    H138888   5.856   0.101   1.982 -0.1669 -3.3719  1.2902
 5751TIP3    H238889   5.880   0.153   2.122 -0.3529  1.6954 -0.3773
 5752TIP3   OH238890   6.222   1.001   0.555 -0.3687  0.2394 -0.4695
 5752TIP3    H138891   6.268   0.923   0.524 -1.3968  0.1439 -1.8181
 5752TIP3    H238892   6.134   0.971   0.577 -0.9989  1.1111 -1.6774
 5753TIP3   OH238893   3.924   4.288   6.653 -0.4180 -0.0874 -0.0890
 5753TIP3    H138894   3.832   4.298   6.677 -0.5749 -1.4009 -0.0472
 5753TIP3    H238895   3.924   4.217   6.588  0.3535  1.2486 -1.6163
 5754TIP3   OH238896   0.643   6.764   0.987  0.1807 -0.1816 -0.2178
 5754TIP3    H138897   0.558   6.720   0.990  0.9228 -1.7357 -0.5094
 5754TIP3    H238898   0.654   6.788   0.895  0.3992 -0.7200 -0.3355
 5755TIP3   OH238899   1.857   4.351   7.304 -0.2984  0.3277 -0.0778
 5755TIP3    H138900   1.933   4.353   7.247 -0.3718  0.1098 -0.1855
 5755TIP3    H238901   1.818   4.438   7.296 -1.3434 -0.2410 -1.7787
 5756TIP3   OH238902   3.534   0.552   0.052  0.4907  0.5775 -0.2574
 5756TIP3    H138903   3.544   0.491  -0.020 -0.2386  0.3842 -0.2035
 5756TIP3    H238904   3.566   0.505   0.129 -0.9646 -0.1256 -0.0415
 5757TIP3   OH238905   3.374   4.562   8.282  0.4675  0.1091 -0.2962
 5757TIP3    H138906   3.290   4.551   8.326  0.7579 -2.4147 -0.2229
 5757TIP3    H238907   3.406   4.648   8.311 -2.1724  1.2843 -0.5814
 5758TIP3   OH238908   2.206   1.649   0.545  0.0669 -0.0200  0.1140
 5758TIP3    H138909   2.252   1.724   0.582  0.8846 -0.8610  0.8599
 5758TIP3    H238910   2.114   1.673   0.548 -0.1900 -0.6755  4.4853
 5759TIP3   OH238911   0.690   6.076   1.491  0.7213 -0.5835  0.0514
 5759TIP3    H138912   0.607   6.058   1.535 -0.1730  1.5724 -0.6740
 5759TIP3    H238913   0.730   5.989   1.480 -1.3872 -1.6621  0.4367
 5760TIP3   OH238914   5.177   6.223   2.075  0.3991  0.1254 -0.5928
 5760TIP3    H138915   5.082   6.238   2.069 -0.0052 -2.2766 -1.2468
 5760TIP3    H238916   5.215   6.311   2.076 -1.9474  1.3827  3.3583
 5761TIP3   OH238917   2.144   3.131   1.325  0.5377  0.8571 -0.5485
 5761TIP3    H138918   2.103   3.177   1.398 -0.6856 -1.3530  0.2645
 5761TIP3    H238919   2.232   3.111   1.355  0.8206  1.9370 -0.6187
 5762TIP3   OH238920   0.735   5.142   0.871 -0.0860  0.0919  0.3606
 5762TIP3    H138921   0.806   5.106   0.924  1.1447 -0.4299 -1.5451
 5762TIP3    H238922   0.706   5.220   0.918  1.2872 -0.0791  1.5205
 5763TIP3   OH238923   3.294   4.724   8.043 -0.1313 -0.4818  0.0637
 5763TIP3    H138924   3.218   4.781   8.057 -0.2873 -0.6196 -0.2121
 5763TIP3    H238925   3.315   4.690   8.130 -0.5242 -0.6134  0.1098
 5764TIP3   OH238926   3.380   4.460   7.594 -0.0074 -0.4355  0.8042
 5764TIP3    H138927   3.357   4.552   7.585  0.1815 -0.5224 -0.9623
 5764TIP3    H238928   3.403   4.449   7.686 -0.7328  1.1083  1.1928
 5765TIP3   OH238929   3.541   4.137   7.825 -0.0741 -0.2338 -0.3902
 5765TIP3    H138930   3.448   4.125   7.804 -0.4004  1.7394 -0.2971
 5765TIP3    H238931   3.541   4.170   7.915  0.8879 -2.2742  0.4036
 5766TIP3   OH238932   6.497   5.562   7.842  0.4231  0.5712 -0.0396
 5766TIP3    H138933   6.492   5.477   7.886 -0.1754  0.7259  0.1996
 5766TIP3    H238934   6.425   5.613   7.879  1.0863  1.3603  0.1898
 5767TIP3   OH238935   0.032   3.105   6.568 -0.5716 -0.1656 -0.6652
 5767TIP3    H138936   0.067   3.189   6.596  1.1342 -0.7234 -1.0214
 5767TIP3    H238937   0.032   3.051   6.647  0.3588 -0.4716 -0.8623
 5768TIP3   OH238938   1.956   5.970   1.078 -0.3548 -0.0084 -0.4538
 5768TIP3    H138939   2.040   5.946   1.116 -0.8173 -0.0596  0.5891
 5768TIP3    H238940   1.977   6.033   1.009  0.5583 -0.2954 -0.4418
 5769TIP3   OH238941   5.677   5.935   0.950 -0.0142 -0.7112  0.3116
 5769TIP3    H138942   5.720   5.856   0.916 -0.1208 -1.2498  1.3633
 5769TIP3    H238943   5.585   5.924   0.927  0.4767  0.9977 -2.9763
 5770TIP3   OH238944   4.343   2.085   0.663  0.8478  0.5986 -0.4904
 5770TIP3    H138945   4.329   2.003   0.614  1.8275 -0.1245  0.4066
 5770TIP3    H238946   4.328   2.154   0.598  1.2258 -0.3159 -1.5853
 5771TIP3   OH238947   1.943   1.892   7.818  0.1364 -0.6036  0.0325
 5771TIP3    H138948   1.935   1.909   7.724  2.7607  0.5096 -0.0734
 5771TIP3    H238949   2.036   1.902   7.836 -0.1393 -1.8788  2.5889
 5772TIP3   OH238950   0.838   0.780   6.404 -0.4271 -0.2643  0.2723
 5772TIP3    H138951   0.873   0.850   6.459  0.5129 -0.7449  0.2991
 5772TIP3    H238952   0.898   0.777   6.329 -3.1603  2.2721 -2.3226
 5773TIP3   OH238953   4.974   0.722   8.504  0.3942  0.0266 -0.6051
 5773TIP3    H138954   5.040   0.754   8.442  3.1248 -1.8746  1.1152
 5773TIP3    H238955   5.020   0.719   8.588 -2.5318  0.4448  1.1470
 5774TIP3   OH238956   1.034   4.600   7.705  0.3471 -0.5451  0.1691
 5774TIP3    H138957   1.043   4.516   7.751 -0.5323 -0.0632  1.2497
 5774TIP3    H238958   0.992   4.658   7.768 -3.5439 -0.5893 -2.0699
 5775TIP3   OH238959   3.007   3.136   8.708  0.7855 -0.0428  0.1771
 5775TIP3    H138960   2.991   3.071   8.776 -1.1039 -0.2540 -0.4231
 5775TIP3    H238961   2.977   3.219   8.745 -0.0505 -0.1218 -0.3049
 5776TIP3   OH238962   6.514   2.686   7.462 -0.1375  0.7245  0.1946
 5776TIP3    H138963   6.450   2.635   7.412  0.8270  0.5076 -0.8639
 5776TIP3    H238964   6.557   2.621   7.519  1.2959  0.2441 -1.3659
 5777TIP3   OH238965   2.201   5.479   8.904 -0.5399 -0.0173  0.0290
 5777TIP3    H138966   2.291   5.495   8.877  0.1158 -1.6496  1.1319
 5777TIP3    H238967   2.151   5.480   8.823  0.7089 -0.5184 -0.7719
 5778TIP3   OH238968   1.993   6.312   2.009  0.1285 -0.8304 -0.3453
 5778TIP3    H138969   1.998   6.240   2.072 -1.0533 -3.0771 -2.6277
 5778TIP3    H238970   1.917   6.363   2.036 -0.0351 -1.4393  0.3515
 5779TIP3   OH238971   3.194   2.488   0.730  0.0179  0.6235 -0.1262
 5779TIP3    H138972   3.240   2.553   0.784  1.2169 -0.4326  0.1716
 5779TIP3    H238973   3.202   2.522   0.640 -0.7156  1.6436  0.1671
 5780TIP3   OH238974   1.181   3.178   8.575  0.3376  0.3236  0.5673
 5780TIP3    H138975   1.128   3.255   8.553  0.3256 -0.5395 -2.9420
 5780TIP3    H238976   1.271   3.203   8.554  0.4638 -0.2747  0.3742
 5781TIP3   OH238977   5.388   4.567   0.537  0.1954 -0.0282 -0.0462
 5781TIP3    H138978   5.367   4.546   0.446  0.3152  0.7229 -0.2519
 5781TIP3    H238979   5.308   4.546   0.586 -0.5256  1.3174 -0.5948
 5782TIP3   OH238980   3.995   5.934   0.900  0.6277 -0.0650 -0.4079
 5782TIP3    H138981   3.910   5.934   0.854  0.4429  1.1221 -0.1005
 5782TIP3    H238982   3.983   5.997   0.971  1.6355 -0.2223 -0.0941
 5783TIP3   OH238983   5.114   2.674   0.583 -0.3117 -0.2910 -0.2356
 5783TIP3    H138984   5.062   2.666   0.503  0.8196  0.4594 -1.0644
 5783TIP3    H238985   5.065   2.622   0.647 -0.2729 -2.5115 -1.8738
 5784TIP3   OH238986   6.021   2.343   7.773  0.2448 -0.5085 -0.6571
 5784TIP3    H138987   6.033   2.253   7.742  0.5671 -0.6750 -0.0606
 5784TIP3    H238988   5.965   2.334   7.851 -1.7804  0.0298 -1.9695
 5785TIP3   OH238989   3.991   3.514   8.179 -0.1468 -0.2508 -0.0167
 5785TIP3    H138990   3.918   3.498   8.118 -0.4963 -1.3975  0.6752
 5785TIP3    H238991   3.963   3.589   8.231  0.4316  1.1773 -1.6541
 5786TIP3   OH238992   5.867   0.880   8.157  0.6383  0.1250  0.3364
 5786TIP3    H138993   5.956   0.874   8.190  0.3745  0.1576  1.0771
 5786TIP3    H238994   5.842   0.972   8.171  0.3421  0.0181  0.5167
 5787TIP3   OH238995   0.532   3.763   7.360 -0.2047  0.1224 -0.1567
 5787TIP3    H138996   0.439   3.777   7.377 -0.0572  3.4335 -1.3034
 5787TIP3    H238997   0.566   3.730   7.443 -2.2314 -0.3016  0.5678
 5788TIP3   OH238998   3.491   5.469   7.387 -0.0849 -0.3990 -0.2849
 5788TIP3    H138999   3.404   5.498   7.415 -0.1680 -1.3673  0.4948
 5788TIP3    H239000   3.537   5.551   7.366 -0.9657  0.1620 -0.0906
 5789TIP3   OH239001   3.043   3.728   6.674 -0.6162  0.4673 -0.2703
 5789TIP3    H139002   2.983   3.782   6.623 -0.2376 -0.0531 -1.3006
 5789TIP3    H239003   3.010   3.734   6.764 -2.0244  0.4270 -0.7606
 5790TIP3   OH239004   1.545   1.024   8.578 -0.2593  0.5419 -0.1898
 5790TIP3    H139005   1.475   1.081   8.609 -0.0919 -0.1941  1.6396
 5790TIP3    H239006   1.579   0.981   8.657  1.2130 -0.2925 -1.2176
 5791TIP3   OH239007   5.340   4.036   1.837 -0.4847  0.7225  0.4800
 5791TIP3    H139008   5.318   4.104   1.900 -1.9316  1.8996 -1.2037
 5791TIP3    H239009   5.343   3.956   1.889 -0.9305  1.7380  2.1487
 5792TIP3   OH239010   1.848   0.896   2.410 -0.1666 -0.3904 -0.1936
 5792TIP3    H139011   1.867   0.926   2.500 -0.9291 -0.8668  0.1328
 5792TIP3    H239012   1.901   0.954   2.355  0.8574 -0.5397  0.5915
 5793TIP3   OH239013   4.099   2.333   0.889  0.6206  0.0579 -0.0069
 5793TIP3    H139014   4.024   2.328   0.829  1.1035 -1.2068 -0.5299
 5793TIP3    H239015   4.123   2.426   0.888 -1.3596  0.6358  0.7317
 5794TIP3   OH239016   1.420   5.755   6.884 -0.9073  0.0976  0.0611
 5794TIP3    H139017   1.412   5.845   6.853 -2.0717 -0.0813 -0.2136
 5794TIP3    H239018   1.334   5.735   6.921 -0.1730 -0.3696  1.5915
 5795TIP3   OH239019   2.085   4.683   0.773  0.2432  0.3612  0.2181
 5795TIP3    H139020   2.168   4.729   0.786  2.0836 -2.5573 -0.4398
 5795TIP3    H239021   2.034   4.742   0.717  3.0578  1.0435 -1.8692
 5796TIP3   OH239022   2.176   5.177   0.389 -0.6212 -0.1734 -0.5129
 5796TIP3    H139023   2.140   5.097   0.350  1.8762 -1.4892 -0.3565
 5796TIP3    H239024   2.209   5.228   0.315  1.4933 -1.3133 -0.4552
 5797TIP3   OH239025   6.521   3.045   6.881  0.0166 -0.4466  0.3458
 5797TIP3    H139026   6.561   2.959   6.878  1.0861  0.0022  1.1723
 5797TIP3    H239027   6.577   3.096   6.940 -0.8370  0.6841  0.2183
 5798TIP3   OH239028   1.908   6.075   2.231 -0.2852 -0.1011  0.2477
 5798TIP3    H139029   1.853   6.153   2.233  0.5746  0.5459 -0.4882
 5798TIP3    H239030   1.847   6.003   2.217 -0.9697  0.5673 -0.3081
 5799TIP3   OH239031   5.179   6.673   1.386  0.3147  0.3397 -0.3795
 5799TIP3    H139032   5.190   6.738   1.454  0.1438  0.1201 -0.1399
 5799TIP3    H239033   5.260   6.621   1.388 -1.1167 -2.0666  2.2196
 5800TIP3   OH239034   5.954   2.073   6.875  0.4908  0.2951 -0.4298
 5800TIP3    H139035   5.982   1.998   6.822 -0.5139  0.4813 -1.2528
 5800TIP3    H239036   5.859   2.064   6.881  0.3833  1.3470 -0.3104
 5801TIP3   OH239037   4.740   3.179   7.921 -0.6488  0.0193 -0.2937
 5801TIP3    H139038   4.800   3.206   7.990 -1.1097  0.1093  0.0747
 5801TIP3    H239039   4.775   3.221   7.842 -0.1811  0.0012 -0.1038
 5802TIP3   OH239040   4.985   6.318   0.379 -0.0647 -0.0580  0.3773
 5802TIP3    H139041   4.907   6.353   0.423  0.5276  0.6809  0.8721
 5802TIP3    H239042   4.971   6.337   0.287 -0.0617  0.9235  0.5652
 5803TIP3   OH239043   1.122   4.525   8.552 -0.0662  0.1813  0.3067
 5803TIP3    H139044   1.119   4.453   8.614  1.0737 -0.1777 -0.0313
 5803TIP3    H239045   1.202   4.510   8.502 -0.2439  1.2295 -0.3181
 5804TIP3   OH239046   6.745   6.748   8.547  0.1911 -0.0004  0.2381
 5804TIP3    H139047   6.688   6.673   8.564 -2.5055  0.5757 -4.5080
 5804TIP3    H239048   6.777   6.734   8.458  1.3469  3.4149 -0.0250
 5805TIP3   OH239049   2.099   3.738   6.554  0.5395  0.3533  0.0357
 5805TIP3    H139050   2.090   3.654   6.599 -1.4183  1.1453  1.2508
 5805TIP3    H239051   2.102   3.715   6.461  2.4964 -1.1790  0.4170
 5806TIP3   OH239052   1.687   1.886   7.928 -0.0135  0.5009 -0.5829
 5806TIP3    H139053   1.706   1.895   8.022 -0.7659  1.7774 -0.5270
 5806TIP3    H239054   1.774   1.881   7.887  0.3460  0.8956  0.0989
 5807TIP3   OH239055   1.189   5.499   7.363 -0.2789 -0.2721 -0.6480
 5807TIP3    H139056   1.202   5.492   7.458  0.1072 -0.4700 -0.7144
 5807TIP3    H239057   1.271   5.467   7.325  0.9657  2.9461 -1.0203
 5808TIP3   OH239058   2.445   2.959   7.422 -0.6487  0.1952  0.1827
 5808TIP3    H139059   2.434   3.010   7.341 -0.1991 -0.8717 -0.5827
 5808TIP3    H239060   2.539   2.955   7.435 -0.7515  1.1659  1.3126
 5809TIP3   OH239061   3.242   5.654   7.958  0.0400 -0.4768 -0.3520
 5809TIP3    H139062   3.297   5.671   7.882  1.0314 -1.1844  0.1780
 5809TIP3    H239063   3.186   5.731   7.965 -1.5372 -1.2417 -2.9878
 5810TIP3   OH239064   3.597   6.212   8.108  0.0571  0.4333  0.2122
 5810TIP3    H139065   3.560   6.123   8.110 -1.4854  1.0512  0.8244
 5810TIP3    H239066   3.682   6.203   8.150 -0.7295 -0.5001  1.6928
 5811TIP3   OH239067   6.740   2.303   8.372 -0.0591  0.1918 -0.1231
 5811TIP3    H139068   6.666   2.244   8.383  1.4034 -2.1445 -1.7455
 5811TIP3    H239069   6.776   2.313   8.460 -0.9353 -0.5379  0.3299
 5812TIP3   OH239070   6.340   2.725   0.898  0.2504  0.5732  0.1397
 5812TIP3    H139071   6.301   2.808   0.873 -2.7547 -0.9005 -0.5520
 5812TIP3    H239072   6.289   2.696   0.973  1.0006 -0.7810  0.1646
 5813TIP3   OH239073   3.549   1.848   1.541  0.0964  0.4067 -0.5675
 5813TIP3    H139074   3.627   1.827   1.592 -0.1422 -0.2261 -0.4476
 5813TIP3    H239075   3.513   1.763   1.516 -0.4523  0.6923 -0.7775
 5814TIP3   OH239076   3.796   2.593   0.563  0.4655 -0.2064  0.6418
 5814TIP3    H139077   3.744   2.531   0.512 -1.7598  1.7538  0.3384
 5814TIP3    H239078   3.769   2.679   0.531  1.7146  1.0111  2.6101
 5815TIP3   OH239079   1.104   2.938   8.739  0.7651 -0.3559 -0.0110
 5815TIP3    H139080   1.148   3.006   8.688 -1.1360  0.4062 -0.7159
 5815TIP3    H239081   1.172   2.903   8.796  2.0996  1.2427 -0.5532
 5816TIP3   OH239082   6.172   1.117   1.570 -0.2812 -0.6380  0.1595
 5816TIP3    H139083   6.260   1.155   1.581 -0.8680  0.5800  0.8361
 5816TIP3    H239084   6.161   1.059   1.645  0.3100 -1.5877 -0.4578
 5817TIP3   OH239085   3.015   3.430   0.228 -0.0807  0.0282  0.4997
 5817TIP3    H139086   2.969   3.490   0.287 -0.6653 -0.4671  0.5684
 5817TIP3    H239087   2.960   3.428   0.149 -2.8045 -3.9564  2.1533
 5818TIP3   OH239088   0.362   4.444   0.956 -0.4226 -0.3274 -0.1504
 5818TIP3    H139089   0.395   4.442   0.867 -0.2653  1.0110 -0.1404
 5818TIP3    H239090   0.357   4.352   0.982  0.4177 -0.6885 -1.2025
 5819TIP3   OH239091   3.592   5.841   1.652 -0.2217 -0.0251 -0.3001
 5819TIP3    H139092   3.548   5.804   1.576 -2.4024 -1.6179  1.6190
 5819TIP3    H239093   3.685   5.843   1.627 -0.7938 -0.9812 -2.7679
 5820TIP3   OH239094   1.172   0.860   8.274  0.5414 -0.0313 -0.0445
 5820TIP3    H139095   1.224   0.891   8.348 -0.5092  0.8200  0.3764
 5820TIP3    H239096   1.236   0.827   8.211  1.4998 -0.1033  0.9360
 5821TIP3   OH239097   0.997   3.874   8.126 -0.3828 -0.8104  0.2843
 5821TIP3    H139098   0.941   3.866   8.049  0.4779  0.9862 -0.5843
 5821TIP3    H239099   1.085   3.852   8.093 -0.1625 -1.0140  0.9946
 5822TIP3   OH239100   4.554   0.549   2.408 -0.4587  0.2265 -0.2151
 5822TIP3    H139101   4.614   0.493   2.458 -0.5541 -0.1090 -0.4738
 5822TIP3    H239102   4.573   0.638   2.439 -0.3451  0.0473  0.2413
 5823TIP3   OH239103   0.453   6.023   8.929 -0.1345 -0.3423  0.0947
 5823TIP3    H139104   0.359   6.012   8.941 -0.0988 -0.3582  0.3823
 5823TIP3    H239105   0.463   6.051   8.838 -0.3213 -1.4202 -0.2622
 5824TIP3   OH239106   1.155   6.146   0.623 -0.1078  0.3833  0.1483
 5824TIP3    H139107   1.075   6.108   0.584 -0.7034  0.7650  0.9748
 5824TIP3    H239108   1.220   6.141   0.553 -0.1796 -2.0634  0.1847
 5825TIP3   OH239109   5.066   2.947   7.078 -0.4154 -0.1712 -0.0752
 5825TIP3    H139110   5.109   2.868   7.046 -0.3235 -0.3030  0.3615
 5825TIP3    H239111   5.138   3.001   7.112 -0.6047 -0.4714  0.8301
 5826TIP3   OH239112   1.721   4.440   8.177 -0.1226  0.5774  0.2449
 5826TIP3    H139113   1.801   4.480   8.141 -0.6804  2.0749  0.5819
 5826TIP3    H239114   1.661   4.435   8.103  0.2835 -0.5809 -0.0157
 5827TIP3   OH239115   1.786   2.256   1.237  0.0557  0.5994 -0.2217
 5827TIP3    H139116   1.787   2.240   1.331  1.6332 -0.0100 -0.3210
 5827TIP3    H239117   1.863   2.311   1.221 -0.3644  0.9470 -1.1233
 5828TIP3   OH239118   0.665   0.589   7.305 -0.2728  0.6580 -0.3477
 5828TIP3    H139119   0.596   0.527   7.328  0.3744 -0.9006 -2.2933
 5828TIP3    H239120   0.653   0.662   7.365 -3.2701  0.2102 -0.2613
 5829TIP3   OH239121   5.051   2.457   0.272 -0.3480  0.2776  0.0881
 5829TIP3    H139122   5.120   2.399   0.304 -0.4316  1.0554  1.7843
 5829TIP3    H239123   4.975   2.437   0.327 -0.5206  1.6408  0.3809
 5830TIP3   OH239124   0.434   3.977   2.216  0.0399  0.1589  0.0755
 5830TIP3    H139125   0.529   3.977   2.223 -0.0631 -0.3321  2.1049
 5830TIP3    H239126   0.412   4.063   2.180  1.2432  0.3359 -0.2622
 5831TIP3   OH239127   1.306   6.354   8.598  0.1706  0.4121  0.0800
 5831TIP3    H139128   1.233   6.341   8.660 -1.2024  2.1628 -1.0627
 5831TIP3    H239129   1.275   6.317   8.516  2.2851 -2.5973  0.4847
 5832TIP3   OH239130   3.344   1.244   8.484 -0.0843 -0.1532 -0.2942
 5832TIP3    H139131   3.325   1.207   8.398  0.1319 -0.2558 -0.2980
 5832TIP3    H239132   3.377   1.171   8.535 -2.7289 -0.7368  0.7364
 5833TIP3   OH239133   0.070   1.654   1.673 -0.0224 -0.4038 -0.4629
 5833TIP3    H139134   0.138   1.638   1.738  0.7249  0.0049 -1.1295
 5833TIP3    H239135   0.042   1.566   1.646 -0.5800 -0.5752  0.6455
 5834TIP3   OH239136   3.787   0.929   0.048 -0.2996  0.4330 -0.6129
 5834TIP3    H139137   3.851   1.000   0.035  0.1755  0.0077 -0.6464
 5834TIP3    H239138   3.711   0.972   0.087 -0.2324  1.0549 -1.1533
 5835TIP3   OH239139   1.795   5.441   8.839  0.5832 -0.6580  0.0237
 5835TIP3    H139140   1.774   5.498   8.913  1.2556 -2.2889  1.5376
 5835TIP3    H239141   1.756   5.485   8.763  0.9033  1.6855  1.1291
 5836TIP3   OH239142   4.924   2.690   2.026 -0.7454  0.6114  0.1301
 5836TIP3    H139143   4.887   2.612   1.987 -0.5178  0.8121 -0.5032
 5836TIP3    H239144   5.019   2.681   2.013 -0.3407 -0.7310  3.2512
 5837TIP3   OH239145   5.599   4.976   2.383 -0.3448 -0.6241 -0.2697
 5837TIP3    H139146   5.598   4.892   2.428  0.4683 -1.3344 -1.5040
 5837TIP3    H239147   5.692   4.992   2.364 -0.2557  1.4411  1.4750
 5838TIP3   OH239148   2.791   4.080   0.507  0.0501 -0.3635 -0.8940
 5838TIP3    H139149   2.737   4.100   0.431  0.0422 -0.1328 -0.8286
 5838TIP3    H239150   2.730   4.084   0.581 -0.2076 -1.7700 -0.9920
 5839TIP3   OH239151   5.813   4.163   7.587 -0.7752 -0.0155  0.2183
 5839TIP3    H139152   5.763   4.220   7.528 -0.9900  0.4573  0.8479
 5839TIP3    H239153   5.897   4.151   7.542 -1.3412 -0.5997 -0.7254
 5840TIP3   OH239154   6.565   6.363   7.736  0.2174 -0.1375 -0.5998
 5840TIP3    H139155   6.487   6.417   7.745  1.5056  2.0823 -1.8631
 5840TIP3    H239156   6.555   6.320   7.652  0.7617  0.9467 -1.2437
 5841TIP3   OH239157   1.935   6.750   0.393  0.2022 -0.1409  0.3479
 5841TIP3    H139158   1.998   6.775   0.461  0.5175  0.6937 -0.2276
 5841TIP3    H239159   1.973   6.785   0.312 -1.8509  2.0090  0.2196
 5842TIP3   OH239160   0.250   3.172   0.685 -0.2551 -0.0741 -0.9289
 5842TIP3    H139161   0.194   3.168   0.607  2.7098 -0.4332 -3.1915
 5842TIP3    H239162   0.315   3.239   0.665  0.1727  0.3717  1.6117
 5843TIP3   OH239163   4.523   3.686   8.660  0.1404 -0.2613 -0.7224
 5843TIP3    H139164   4.597   3.746   8.652  0.8280 -0.9728  0.0914
 5843TIP3    H239165   4.463   3.713   8.590  0.2311  1.6060 -0.1430
 5844TIP3   OH239166   3.047   0.977   6.816  0.3852 -0.1933  0.2553
 5844TIP3    H139167   2.956   0.963   6.841  0.3843  0.2323  0.5059
 5844TIP3    H239168   3.086   0.890   6.814  0.1387 -0.3138  0.8002
 5845TIP3   OH239169   3.739   1.807   1.195  0.2007  0.1606  0.3542
 5845TIP3    H139170   3.797   1.792   1.121  0.6901  1.9761  0.3169
 5845TIP3    H239171   3.651   1.812   1.157  0.2771 -0.3815  0.1062
 5846TIP3   OH239172   4.973   2.879   8.154 -0.5629  0.1633  0.1460
 5846TIP3    H139173   5.031   2.891   8.080  0.5331  0.7224  1.0645
 5846TIP3    H239174   4.951   2.968   8.182  1.4271  0.0912  2.2750
 5847TIP3   OH239175   1.535   4.534   7.777  0.1735 -0.3085  0.1957
 5847TIP3    H139176   1.498   4.565   7.694 -0.4374  0.2754  0.6791
 5847TIP3    H239177   1.463   4.487   7.819  0.6608 -1.1202  0.1303
 5848TIP3   OH239178   3.400   3.555   6.441 -0.5717  0.6946 -0.6042
 5848TIP3    H139179   3.419   3.478   6.387 -1.3434  0.3096 -0.3484
 5848TIP3    H239180   3.473   3.561   6.502 -0.7334 -0.1224 -0.3175
 5849TIP3   OH239181   1.421   1.172   6.757  0.4155  0.2238 -0.1115
 5849TIP3    H139182   1.501   1.221   6.778  0.4842  1.3767 -2.7369
 5849TIP3    H239183   1.355   1.239   6.742 -0.0478 -0.5391 -1.6790
 5850TIP3   OH239184   4.276   3.970   1.471  0.1989 -0.3461  0.4459
 5850TIP3    H139185   4.253   4.031   1.402  0.6462 -1.0827 -0.3772
 5850TIP3    H239186   4.372   3.968   1.472  0.1911 -1.1680  0.3274
 5851TIP3   OH239187   2.169   4.477   1.889 -0.1071  0.1806  0.0556
 5851TIP3    H139188   2.208   4.390   1.902  2.1126  1.2302  0.8520
 5851TIP3    H239189   2.181   4.494   1.796 -1.5762 -0.7695 -0.3527
 5852TIP3   OH239190   1.531   5.643   2.409  0.2650  0.0869 -0.0938
 5852TIP3    H139191   1.506   5.551   2.401  1.7216 -0.4597  1.1584
 5852TIP3    H239192   1.588   5.658   2.333  1.1308 -0.4658  0.4262
 5853TIP3   OH239193   0.110   1.459   8.898  0.1136 -0.5003 -0.0246
 5853TIP3    H139194   0.139   1.473   8.808  2.8985  0.7414  0.9489
 5853TIP3    H239195   0.157   1.381   8.926 -0.9474 -1.0378  0.3314
 5854TIP3   OH239196   5.537   4.266   1.591 -0.4280 -0.2391 -0.6885
 5854TIP3    H139197   5.633   4.266   1.583 -0.1011 -2.6155  1.6315
 5854TIP3    H239198   5.509   4.192   1.538 -1.1077  0.7448 -1.7591
 5855TIP3   OH239199   2.834   1.437   0.100 -0.3002 -0.1008  0.4512
 5855TIP3    H139200   2.748   1.473   0.076  0.3017  0.4353 -1.0208
 5855TIP3    H239201   2.868   1.399   0.019  0.7282 -0.5943  1.0871
 5856TIP3   OH239202   1.822   0.443   8.257  0.4486 -0.1427 -0.3982
 5856TIP3    H139203   1.871   0.364   8.233 -1.5554 -1.5515 -0.0637
 5856TIP3    H239204   1.738   0.410   8.290 -0.0797  2.1029  0.6496
 5857TIP3   OH239205   4.866   6.440   6.851 -0.2271  0.0290  0.0001
 5857TIP3    H139206   4.916   6.481   6.921  1.9226  0.3401 -1.6237
 5857TIP3    H239207   4.844   6.511   6.792 -0.0626 -0.5360 -0.7569
 5858TIP3   OH239208   2.987   5.892   1.527  0.6049  0.5839 -0.6199
 5858TIP3    H139209   3.030   5.899   1.442  1.6200  0.5405 -0.1323
 5858TIP3    H239210   2.993   5.799   1.549 -0.7445  0.3832 -1.0363
 5859TIP3   OH239211   0.240   6.450   1.309 -0.1889 -0.1274 -0.5184
 5859TIP3    H139212   0.155   6.470   1.349 -2.2086 -3.6455 -2.5554
 5859TIP3    H239213   0.248   6.513   1.237 -0.1221  1.3781  0.7477
 5860TIP3   OH239214   1.594   5.900   1.879 -0.0261  0.1834 -0.4162
 5860TIP3    H139215   1.583   5.902   1.974 -2.0124  0.7499 -0.5969
 5860TIP3    H239216   1.687   5.911   1.864  0.1116  1.9693  1.4261
 5861TIP3   OH239217   5.707   2.750   1.362 -0.0970  0.2605 -0.4167
 5861TIP3    H139218   5.661   2.822   1.405  2.4814  0.7702  1.6897
 5861TIP3    H239219   5.653   2.673   1.379 -1.2012  1.1434  0.2003
 5862TIP3   OH239220   2.758   0.144   1.125 -0.2292 -0.4726  0.0295
 5862TIP3    H139221   2.776   0.052   1.147 -1.2415 -0.7490 -0.2368
 5862TIP3    H239222   2.794   0.194   1.198 -0.8487 -1.1758  0.8311
 5863TIP3   OH239223   1.274   2.782   1.959  0.4645 -0.1799  0.2539
 5863TIP3    H139224   1.337   2.809   1.892  2.2522 -2.1028  1.0809
 5863TIP3    H239225   1.250   2.864   2.003  1.6543  0.7192 -0.7023
 5864TIP3   OH239226   4.280   0.920   8.485 -0.0624 -0.5052 -0.3311
 5864TIP3    H139227   4.261   0.854   8.419  0.5060 -0.9854 -0.0290
 5864TIP3    H239228   4.202   0.975   8.487 -0.7096 -1.3946 -0.3254
 5865TIP3   OH239229   3.900   0.769   8.642 -0.2340  0.4905  0.4943
 5865TIP3    H139230   3.866   0.740   8.558 -0.1756  0.4614  0.4810
 5865TIP3    H239231   3.824   0.766   8.700 -0.2902  0.5823  0.4246
 5866TIP3   OH239232   1.448   6.023   7.328  0.6801 -0.2934  0.0733
 5866TIP3    H139233   1.459   6.050   7.237 -0.3912 -2.1189 -0.6604
 5866TIP3    H239234   1.377   6.078   7.360 -0.6266 -1.2569 -1.0082
 5867TIP3   OH239235   6.615   1.716   1.074 -0.5693 -0.1445  0.4591
 5867TIP3    H139236   6.545   1.708   1.008  0.0173 -0.5966 -0.1222
 5867TIP3    H239237   6.658   1.799   1.054 -0.6070 -0.1183  0.4862
 5868TIP3   OH239238   3.664   6.759   7.608  0.3924 -0.2788 -0.1068
 5868TIP3    H139239   3.601   6.696   7.573  1.6597 -0.9627 -1.2807
 5868TIP3    H239240   3.682   6.729   7.697  0.6479 -1.3401 -0.4968
 5869TIP3   OH239241   1.371   1.310   8.000 -0.0882 -0.2073 -0.3000
 5869TIP3    H139242   1.452   1.315   8.051  0.2970 -1.4956 -0.7504
 5869TIP3    H239243   1.307   1.271   8.060  0.2545 -1.3297 -0.6303
 5870TIP3   OH239244   2.124   3.349   8.049  0.0255 -0.3644  0.3139
 5870TIP3    H139245   2.056   3.304   7.998  1.2396 -0.7137 -1.0381
 5870TIP3    H239246   2.155   3.419   7.992  0.6275 -0.0316  1.0267
 5871TIP3   OH239247   6.274   5.165   7.577  0.7621 -0.1210 -0.1141
 5871TIP3    H139248   6.194   5.117   7.555  0.2643  0.3978  0.5308
 5871TIP3    H239249   6.321   5.107   7.636  0.0115  0.2955  0.9177
 5872TIP3   OH239250   0.272   5.319   7.627  0.2480  0.4221 -0.4994
 5872TIP3    H139251   0.267   5.325   7.722 -0.2040 -0.2068 -0.4783
 5872TIP3    H239252   0.365   5.309   7.608  0.2341 -0.5692 -0.0523
 5873TIP3   OH239253   3.413   6.252   2.197 -0.3567  0.5734  0.2095
 5873TIP3    H139254   3.320   6.231   2.185  0.1136 -0.9244 -1.1838
 5873TIP3    H239255   3.455   6.166   2.204  1.4351  0.9954 -3.5172
 5874TIP3   OH239256   2.199   2.403   8.251  0.2442  0.4591 -0.4207
 5874TIP3    H139257   2.195   2.483   8.305 -0.0293 -0.0886  0.3977
 5874TIP3    H239258   2.107   2.380   8.237  0.3109  0.6577 -1.2383
 5875TIP3   OH239259   2.042   0.906   6.837 -0.2949  0.0959  0.6667
 5875TIP3    H139260   2.060   0.812   6.841  0.6140  0.2109 -0.3181
 5875TIP3    H239261   2.128   0.947   6.840 -0.5440  0.8048 -0.8880
 5876TIP3   OH239262   5.496   4.019   0.442  0.2678  0.5976  0.4920
 5876TIP3    H139263   5.442   4.096   0.461  0.7162  0.6825  1.4394
 5876TIP3    H239264   5.535   4.038   0.356 -2.4291 -0.1659 -1.0027
 5877TIP3   OH239265   1.176   4.070   2.296 -0.1122 -0.1173 -0.1758
 5877TIP3    H139266   1.269   4.060   2.316 -0.3805 -0.4986  0.9747
 5877TIP3    H239267   1.160   4.164   2.305  0.5628  0.2622 -2.3801
 5878TIP3   OH239268   2.569   1.544   0.047 -0.8480  0.3020 -0.7465
 5878TIP3    H139269   2.517   1.473   0.087 -1.2615  0.8958 -0.2076
 5878TIP3    H239270   2.505   1.612   0.027 -0.1768  1.4758  0.8693
 5879TIP3   OH239271   5.115   0.884   1.557 -0.0235  0.2475 -0.2111
 5879TIP3    H139272   5.044   0.942   1.531 -0.0016  1.7569  2.6905
 5879TIP3    H239273   5.072   0.809   1.599 -0.0593 -2.1240 -4.0272
 5880TIP3   OH239274   5.020   6.082   7.214  0.1308  0.4957 -0.1116
 5880TIP3    H139275   4.962   6.076   7.290 -0.5494 -0.1909 -0.6663
 5880TIP3    H239276   4.962   6.068   7.139  1.3176 -2.3828 -0.6040
 5881TIP3   OH239277   5.812   4.387   1.523 -0.5824  0.4012  0.0308
 5881TIP3    H139278   5.818   4.397   1.428  0.1303  0.9680  0.1219
 5881TIP3    H239279   5.807   4.477   1.555 -0.7600  0.2119  0.5394
 5882TIP3   OH239280   3.626   0.553   7.565 -0.2945 -0.1641  0.2425
 5882TIP3    H139281   3.629   0.463   7.533 -0.6525  0.0807 -0.4950
 5882TIP3    H239282   3.541   0.586   7.536 -0.1807  0.4065  0.5377
 5883TIP3   OH239283   1.168   0.151   0.794 -0.1846  0.9433 -0.1175
 5883TIP3    H139284   1.097   0.176   0.854  1.3134  1.6854  1.4430
 5883TIP3    H239285   1.131   0.080   0.742 -1.2601 -0.5879  2.5111
 5884TIP3   OH239286   4.853   2.448   0.497 -0.2706  0.5794 -0.1952
 5884TIP3    H139287   4.826   2.392   0.570 -0.7249  1.7247  0.5497
 5884TIP3    H239288   4.792   2.522   0.501 -0.3445  0.6377 -1.7874
 5885TIP3   OH239289   1.498   0.726   1.284 -0.0752 -0.1663  0.4831
 5885TIP3    H139290   1.522   0.757   1.371 -1.0366 -1.4784  1.2493
 5885TIP3    H239291   1.428   0.785   1.256  0.4804  0.4819  0.4165
 5886TIP3   OH239292   4.208   3.108   7.055  0.0310 -0.2428 -0.1923
 5886TIP3    H139293   4.246   3.022   7.076 -1.0462 -0.2989  1.7678
 5886TIP3    H239294   4.163   3.134   7.135 -1.0144  1.4450 -1.2763
 5887TIP3   OH239295   2.970   0.410   2.263 -0.3201  0.0425 -0.5174
 5887TIP3    H139296   2.945   0.495   2.228 -0.6569  1.1174  2.0831
 5887TIP3    H239297   2.960   0.349   2.190  0.2821  2.2659 -2.5635
 5888TIP3   OH239298   1.513   1.895   8.897  0.1163 -0.3158  0.1636
 5888TIP3    H139299   1.561   1.817   8.925 -0.7759 -0.5482  1.1209
 5888TIP3    H239300   1.442   1.904   8.960 -0.7541  0.3596 -0.8583
 5889TIP3   OH239301   1.433   5.505   0.748  0.1635  0.3680  0.0316
 5889TIP3    H139302   1.456   5.417   0.779  0.1206 -0.3308 -1.8006
 5889TIP3    H239303   1.517   5.550   0.739  0.2164  0.3822  0.5341
 5890TIP3   OH239304   1.463   2.174   8.195 -0.1285  0.1217  0.0325
 5890TIP3    H139305   1.513   2.198   8.273  0.0701 -0.0889 -0.0310
 5890TIP3    H239306   1.521   2.195   8.122  0.0665 -0.6007 -0.0244
 5891TIP3   OH239307   1.927   5.247   2.504 -0.1896 -0.4516  0.5792
 5891TIP3    H139308   1.847   5.296   2.526 -0.6615 -1.9299  2.4312
 5891TIP3    H239309   1.998   5.303   2.536 -0.6524 -0.3708  1.5129
 5892TIP3   OH239310   2.313   4.044   1.345  0.3553 -0.3363 -0.2347
 5892TIP3    H139311   2.283   4.123   1.300  1.4010  0.0988 -0.2023
 5892TIP3    H239312   2.326   3.980   1.274  0.1071 -0.2744 -0.3339
 5893TIP3   OH239313   5.028   4.522   8.090  0.5559 -0.3777  0.3206
 5893TIP3    H139314   4.990   4.449   8.041  2.2917 -0.7983 -0.4731
 5893TIP3    H239315   4.952   4.568   8.127 -0.9382  0.2349 -3.1099
 5894TIP3   OH239316   0.306   2.331   1.852  0.3589  0.5063 -0.2037
 5894TIP3    H139317   0.384   2.343   1.907  0.3792 -2.3525  0.5358
 5894TIP3    H239318   0.233   2.352   1.910  0.4971  1.4045 -0.3409
 5895TIP3   OH239319   3.612   0.386   8.850 -0.4859  0.0170  0.1422
 5895TIP3    H139320   3.565   0.420   8.774  1.8675  0.7757 -1.0938
 5895TIP3    H239321   3.594   0.292   8.850 -3.2469  0.4843  0.7475
 5896TIP3   OH239322   3.623   3.110   0.719  0.3145  0.2383  0.2210
 5896TIP3    H139323   3.550   3.172   0.721  1.0095  1.1081 -0.3056
 5896TIP3    H239324   3.665   3.125   0.634  0.7767 -0.6290  0.2869
 5897TIP3   OH239325   3.148   3.947   6.299  0.4433 -0.3334 -0.5823
 5897TIP3    H139326   3.094   4.024   6.317  0.9920  0.1501 -0.9506
 5897TIP3    H239327   3.085   3.879   6.275  0.0520  0.8052 -3.1676
 5898TIP3   OH239328   4.986   5.772   0.348 -0.4087 -0.3193 -0.0369
 5898TIP3    H139329   4.899   5.776   0.308  0.7785 -1.6343 -3.0093
 5898TIP3    H239330   4.977   5.705   0.416 -2.3844  1.6486  1.7928
 5899TIP3   OH239331   1.718   3.986   2.338 -0.2756 -0.8673 -0.4000
 5899TIP3    H139332   1.681   3.920   2.396  0.4785 -0.2065  0.8662
 5899TIP3    H239333   1.805   3.952   2.317 -0.3752 -0.8843 -0.7922
 5900TIP3   OH239334   6.404   5.990   7.590  0.3857  0.0754 -0.0081
 5900TIP3    H139335   6.373   5.994   7.680 -0.1477 -0.1214 -0.1737
 5900TIP3    H239336   6.413   5.896   7.572 -0.5870  0.0649 -0.5037
 5901TIP3   OH239337   3.057   3.463   6.157 -0.3211  0.2775 -0.1602
 5901TIP3    H139338   3.137   3.411   6.147 -0.6534 -0.6705  1.6900
 5901TIP3    H239339   3.080   3.532   6.219 -1.1050 -0.4379  0.9530
 5902TIP3   OH239340   6.718   1.953   1.039 -0.0144 -0.3592 -0.2959
 5902TIP3    H139341   6.687   2.018   1.102 -0.5623 -0.9937  0.0999
 5902TIP3    H239342   6.751   2.005   0.965 -0.7013  0.3601 -0.1144
 5903TIP3   OH239343   5.494   5.555   0.910  0.2952  0.3209  0.7948
 5903TIP3    H139344   5.558   5.605   0.860 -0.0422 -0.0500 -0.0345
 5903TIP3    H239345   5.502   5.588   0.999  1.6409  0.2844  0.7164
 5904TIP3   OH239346   6.247   3.499   1.535  0.0081  0.4501  0.2539
 5904TIP3    H139347   6.178   3.508   1.601  0.5718 -3.2770  1.5762
 5904TIP3    H239348   6.215   3.430   1.477  0.8514  1.5938 -1.6415
 5905TIP3   OH239349   6.120   0.274   0.911 -0.1306  0.1179  0.3955
 5905TIP3    H139350   6.161   0.267   0.997 -1.1971 -2.3329  0.7787
 5905TIP3    H239351   6.105   0.183   0.883 -1.1541  0.8571 -1.7229
 5906TIP3   OH239352   4.668   4.399   7.295 -0.2336  0.5878  0.0474
 5906TIP3    H139353   4.658   4.312   7.334  0.4975 -0.6623 -2.2842
 5906TIP3    H239354   4.587   4.412   7.245 -0.3297  1.2429  0.3701
 5907TIP3   OH239355   4.594   5.747   6.383  0.3520 -0.3255  0.0095
 5907TIP3    H139356   4.526   5.683   6.362  0.1127 -0.5116  1.2693
 5907TIP3    H239357   4.666   5.727   6.323 -0.9011  0.2440 -1.7323
 5908TIP3   OH239358   3.471   1.713   8.400 -0.2662  0.0033 -0.4670
 5908TIP3    H139359   3.558   1.737   8.367 -0.6543  2.6230  0.1712
 5908TIP3    H239360   3.460   1.767   8.478 -1.4846 -2.1688  0.9306
 5909TIP3   OH239361   1.588   1.683   2.183 -0.5194 -0.3576  0.5054
 5909TIP3    H139362   1.621   1.769   2.156  2.6358 -1.3216  0.8337
 5909TIP3    H239363   1.615   1.675   2.274 -2.0733 -1.1698  0.9227
 5910TIP3   OH239364   5.704   3.333   8.984  0.1730  0.2963 -0.1189
 5910TIP3    H139365   5.675   3.398   9.048  0.5092 -1.8739  2.3983
 5910TIP3    H239366   5.743   3.385   8.913 -4.3990  3.0710 -0.9950
 5911TIP3   OH239367   2.148   4.363   7.133  0.0060  0.3387 -0.1884
 5911TIP3    H139368   2.191   4.395   7.213 -0.6291  1.2958 -0.2143
 5911TIP3    H239369   2.220   4.343   7.074  0.4428  2.1357 -0.3156
 5912TIP3   OH239370   4.903   3.837   1.387 -0.8951  0.3764  0.2105
 5912TIP3    H139371   4.819   3.863   1.425 -0.4148  1.9086  0.2667
 5912TIP3    H239372   4.908   3.884   1.305 -1.4384 -2.0952 -1.3594
 5913TIP3   OH239373   3.285   5.908   0.404 -0.5341 -0.2256 -0.1907
 5913TIP3    H139374   3.220   5.976   0.420 -0.5699 -0.1763 -0.5397
 5913TIP3    H239375   3.233   5.829   0.390 -0.6312  0.1505 -2.2784
 5914TIP3   OH239376   5.641   5.917   8.642 -0.1781 -0.2284 -0.4715
 5914TIP3    H139377   5.704   5.845   8.639  1.5120  1.1586 -0.4393
 5914TIP3    H239378   5.623   5.929   8.736 -0.6493 -0.7497 -0.4928
 5915TIP3   OH239379   3.348   1.120   1.239 -0.8680  0.6442 -0.0438
 5915TIP3    H139380   3.266   1.112   1.189 -0.8415 -0.7220  0.1184
 5915TIP3    H239381   3.334   1.197   1.295 -2.2524  0.1191  0.3742
 5916TIP3   OH239382   3.474   3.682   8.973  0.5459  0.2565  0.1324
 5916TIP3    H139383   3.388   3.720   8.993  0.8139  0.6590  0.5542
 5916TIP3    H239384   3.456   3.590   8.954 -0.1398  0.6071 -1.0182
 5917TIP3   OH239385   6.714   1.699   8.257  0.4028 -0.1805 -0.3152
 5917TIP3    H139386   6.768   1.747   8.194  0.0419  1.3391  0.4741
 5917TIP3    H239387   6.763   1.703   8.339  0.9443 -2.2733 -0.4687
 5918TIP3   OH239388   2.729   2.793   1.975 -0.2337 -0.1803 -0.5118
 5918TIP3    H139389   2.803   2.760   2.025 -0.7414 -1.5623 -0.6262
 5918TIP3    H239390   2.662   2.726   1.984 -2.4394  2.0820  1.6642
 5919TIP3   OH239391   1.586   0.324   0.594  0.1959  0.2436 -0.0133
 5919TIP3    H139392   1.526   0.256   0.625  2.1552 -0.8303  1.6272
 5919TIP3    H239393   1.631   0.284   0.519 -0.2223  0.6036 -0.4694
 5920TIP3   OH239394   4.612   2.033   7.493  0.2574 -0.1800  0.1062
 5920TIP3    H139395   4.548   2.103   7.486  0.4976  0.1604  1.1572
 5920TIP3    H239396   4.620   2.016   7.587  0.3809 -1.4550 -0.1045
 5921TIP3   OH239397   6.284   0.575   6.934  0.3632 -0.4259  0.4882
 5921TIP3    H139398   6.199   0.612   6.911 -0.0123 -1.0951  0.7307
 5921TIP3    H239399   6.340   0.650   6.952 -0.7364  0.0438  2.2770
 5922TIP3   OH239400   2.153   2.732   0.380  0.4257  0.1484  0.3965
 5922TIP3    H139401   2.230   2.749   0.434  1.0938 -1.9247  0.2055
 5922TIP3    H239402   2.095   2.682   0.437  0.2645 -0.3231 -0.1713
 5923TIP3   OH239403   5.908   4.426   7.628 -0.1114 -0.2844 -0.9309
 5923TIP3    H139404   5.853   4.500   7.657  0.3475 -0.3255  0.0606
 5923TIP3    H239405   5.847   4.353   7.621 -0.8158  0.4096 -3.0657
 5924TIP3   OH239406   4.701   1.794   8.587 -0.1088 -0.1863 -0.0350
 5924TIP3    H139407   4.655   1.745   8.519  0.4845  0.4773 -0.9624
 5924TIP3    H239408   4.715   1.731   8.658  0.0555 -1.1701 -0.9128
 5925TIP3   OH239409   5.752   4.918   0.129  0.4313 -0.1461  0.5327
 5925TIP3    H139410   5.812   4.845   0.142 -0.4471 -0.9500  0.2156
 5925TIP3    H239411   5.809   4.993   0.111  1.3457 -0.7651  0.7553
 5926TIP3   OH239412   0.533   0.480   7.886 -0.1832  0.3952 -0.3513
 5926TIP3    H139413   0.584   0.560   7.873  0.8547 -0.2979 -0.7463
 5926TIP3    H239414   0.496   0.488   7.974  0.5024  0.9889 -0.1130
 5927TIP3   OH239415   0.504   0.487   1.122 -0.5942 -0.3740  0.0594
 5927TIP3    H139416   0.563   0.561   1.105  0.8693 -2.2743 -4.6462
 5927TIP3    H239417   0.555   0.410   1.098 -2.5194 -2.9782  3.4531
 5928TIP3   OH239418   6.565   2.867   0.657 -0.6212 -0.0357 -0.2080
 5928TIP3    H139419   6.618   2.827   0.726 -0.6129 -1.0311 -0.7751
 5928TIP3    H239420   6.593   2.824   0.576 -0.7197  1.0225 -0.8267
 5929TIP3   OH239421   3.723   3.707   6.787 -0.2234 -0.0826  0.0662
 5929TIP3    H139422   3.670   3.667   6.718 -2.4057  0.6751  1.2195
 5929TIP3    H239423   3.751   3.634   6.841 -0.3003 -0.4740 -0.4176
 5930TIP3   OH239424   6.699   3.365   6.829 -0.1014  0.4315  0.1921
 5930TIP3    H139425   6.682   3.415   6.749 -0.5585 -0.3789 -0.2247
 5930TIP3    H239426   6.783   3.399   6.860  0.3768  0.3519 -0.9596
 5931TIP3   OH239427   6.710   0.143   0.426  0.0202  0.1131  0.5558
 5931TIP3    H139428   6.768   0.089   0.479 -0.0455 -0.6405 -0.1067
 5931TIP3    H239429   6.668   0.202   0.488  1.9792  1.1600  0.9793
 5932TIP3   OH239430   6.337   3.333   8.971  0.2689 -0.3759  0.6039
 5932TIP3    H139431   6.405   3.323   9.037  1.2611  2.3657  0.1049
 5932TIP3    H239432   6.348   3.422   8.938 -1.3910 -1.0069 -1.9335
 5933TIP3   OH239433   3.996   3.283   0.793  0.9735 -0.6481 -0.1730
 5933TIP3    H139434   3.924   3.345   0.788 -0.0787 -1.5165  2.2755
 5933TIP3    H239435   4.002   3.244   0.706 -0.5373  0.5053 -0.8204
 5934TIP3   OH239436   3.074   5.276   0.328  0.5487 -0.0859  0.3785
 5934TIP3    H139437   3.006   5.235   0.274  1.0002 -1.3230  0.6946
 5934TIP3    H239438   3.079   5.366   0.298  0.1262 -0.5032 -0.9915
 5935TIP3   OH239439   6.300   0.280   1.827 -0.4982 -0.2667 -0.7253
 5935TIP3    H139440   6.376   0.311   1.875  0.2064 -1.6923 -0.8617
 5935TIP3    H239441   6.225   0.319   1.871  0.2710  0.5295 -0.1041
 5936TIP3   OH239442   2.226   2.662   7.286 -0.1702 -0.3852 -0.4629
 5936TIP3    H139443   2.254   2.715   7.211 -1.9316 -0.9336 -1.5581
 5936TIP3    H239444   2.174   2.592   7.247  1.0825 -2.2306  1.0644
 5937TIP3   OH239445   1.726   4.435   1.463 -0.2093  0.3282  0.1456
 5937TIP3    H139446   1.812   4.469   1.488  0.3006  0.0446 -1.1722
 5937TIP3    H239447   1.672   4.445   1.542  1.7958 -2.1613  1.9823
 5938TIP3   OH239448   6.772   0.871   7.611 -0.3027 -0.1707  0.0877
 5938TIP3    H139449   6.698   0.921   7.577 -0.1781  0.1536  0.2944
 5938TIP3    H239450   6.736   0.783   7.628 -0.6828  0.0346  0.3563
 5939TIP3   OH239451   1.078   0.031   0.103  0.0865 -0.2086  0.0619
 5939TIP3    H139452   1.067   0.122   0.128 -0.2094 -0.6416  1.6477
 5939TIP3    H239453   0.994   0.006   0.064 -0.5647 -0.3248  1.4657
 5940TIP3   OH239454   3.582   4.323   7.489  0.2991 -0.0952  0.3874
 5940TIP3    H139455   3.571   4.401   7.434  1.4617  0.7461  1.2815
 5940TIP3    H239456   3.496   4.308   7.528 -0.0097  0.5679 -0.0214
 5941TIP3   OH239457   5.543   5.269   1.862 -0.0976 -0.5545  0.1135
 5941TIP3    H139458   5.617   5.287   1.920  0.3373  0.9827 -0.8768
 5941TIP3    H239459   5.566   5.311   1.780 -2.6121  1.0748  0.1491
 5942TIP3   OH239460   4.954   1.705   1.969  0.3693 -0.0710 -0.2851
 5942TIP3    H139461   4.937   1.684   1.877  0.3019 -1.1268 -0.0392
 5942TIP3    H239462   4.967   1.620   2.011  0.4398  0.4069  0.6770
 5943TIP3   OH239463   4.322   4.749   8.852 -0.0071  0.0122 -0.1930
 5943TIP3    H139464   4.270   4.820   8.888 -0.2355 -0.8566  1.2569
 5943TIP3    H239465   4.338   4.690   8.926  1.9616 -0.3982 -0.8714
 5944TIP3   OH239466   2.866   4.680   1.509 -0.0928 -0.2093  0.0966
 5944TIP3    H139467   2.883   4.719   1.595  2.1374 -2.8666  0.9846
 5944TIP3    H239468   2.779   4.639   1.518  0.4580 -1.1548  1.4150
 5945TIP3   OH239469   5.815   2.708   1.042  0.7698 -0.2326 -0.1308
 5945TIP3    H139470   5.776   2.698   1.128 -0.1981  1.5432 -0.3289
 5945TIP3    H239471   5.904   2.673   1.052  0.7527  0.1491  1.6401
 5946TIP3   OH239472   5.206   5.146   7.738  0.5596 -0.8087 -0.0216
 5946TIP3    H139473   5.190   5.198   7.659 -0.6994 -1.0361  0.0710
 5946TIP3    H239474   5.188   5.056   7.712 -0.6460 -0.7975  0.7220
 5947TIP3   OH239475   1.368   4.054   0.245  0.6657  0.3452 -0.2732
 5947TIP3    H139476   1.355   4.103   0.164  0.3764 -0.7987 -0.9461
 5947TIP3    H239477   1.423   3.979   0.219 -1.1340 -1.1847  0.1092
 5948TIP3   OH239478   4.887   5.849   8.932  0.2837  0.5693 -0.1865
 5948TIP3    H139479   4.880   5.761   8.969  1.6244 -0.2814 -1.8126
 5948TIP3    H239480   4.977   5.876   8.952 -0.2316  1.7685  0.6409
 5949TIP3   OH239481   0.798   3.205   8.408 -0.7556 -0.7904 -0.4244
 5949TIP3    H139482   0.890   3.179   8.409 -1.4085 -3.3595 -0.4320
 5949TIP3    H239483   0.789   3.259   8.330  0.6810 -0.7291 -0.5750
 5950TIP3   OH239484   3.325   1.005   2.292 -0.0432 -0.4739  0.6410
 5950TIP3    H139485   3.395   0.960   2.244  1.0070 -1.0927  2.6194
 5950TIP3    H239486   3.326   0.964   2.379 -1.3242  1.1052  1.4484
 5951TIP3   OH239487   6.413   0.630   7.989 -0.4828 -0.1689  0.7008
 5951TIP3    H139488   6.360   0.708   7.970 -1.1303 -0.6823  0.3412
 5951TIP3    H239489   6.350   0.567   8.026 -0.3338 -1.1337 -0.6188
 5952TIP3   OH239490   3.557   5.203   0.091  0.4807  0.5905  0.1847
 5952TIP3    H139491   3.491   5.163   0.035  0.1459  1.6782 -0.2290
 5952TIP3    H239492   3.526   5.293   0.104  1.3388  0.8008  0.8576
 5953TIP3   OH239493   0.579   3.423   1.865  0.4699 -0.3156  0.2813
 5953TIP3    H139494   0.593   3.517   1.878 -0.4499  0.0590 -1.1562
 5953TIP3    H239495   0.578   3.386   1.953  2.6301  0.7285  0.8151
 5954TIP3   OH239496   4.119   3.198   0.545 -0.2133  0.2515  0.3599
 5954TIP3    H139497   4.095   3.106   0.557 -1.9126  0.5743 -0.3173
 5954TIP3    H239498   4.180   3.197   0.471 -1.2446 -0.2233 -0.5110
 5955TIP3   OH239499   1.723   6.581   0.331  0.3551  0.1712 -0.4114
 5955TIP3    H139500   1.796   6.627   0.371  0.0197  0.2541  0.1041
 5955TIP3    H239501   1.674   6.649   0.284  1.0494 -0.0112 -1.4337
 5956TIP3   OH239502   2.749   3.855   6.654 -0.0187  0.1782  0.3117
 5956TIP3    H139503   2.663   3.826   6.623  0.0631  0.9910 -0.7470
 5956TIP3    H239504   2.763   3.938   6.609  0.9196  0.5134  1.1984
 5957TIP3   OH239505   6.750   1.148   1.527 -0.0979  0.1182 -0.0590
 5957TIP3    H139506   6.784   1.093   1.598 -0.3617 -0.4187 -0.3365
 5957TIP3    H239507   6.791   1.113   1.448 -0.9190 -0.2402 -0.3433
 5958TIP3   OH239508   1.679   4.559   8.799 -0.1744 -0.5066 -0.0045
 5958TIP3    H139509   1.760   4.606   8.779 -0.3912 -0.2413 -0.2742
 5958TIP3    H239510   1.705   4.467   8.804  0.5968 -0.2162  2.3126
 5959TIP3   OH239511   2.370   2.694   1.278 -0.3929 -0.4523  0.0609
 5959TIP3    H139512   2.322   2.773   1.301  1.3766  0.2897  1.4382
 5959TIP3    H239513   2.348   2.632   1.347 -0.1264 -0.4387  0.1584
 5960TIP3   OH239514   2.098   2.647   0.795  0.1841  0.5862  0.0877
 5960TIP3    H139515   2.142   2.563   0.801  2.5385  1.7471  0.3654
 5960TIP3    H239516   2.107   2.685   0.883 -3.0075  0.2083  0.7121
 5961TIP3   OH239517   4.579   1.030   7.267 -0.0325  0.3657 -0.5226
 5961TIP3    H139518   4.503   1.043   7.323 -0.5191 -0.4461 -0.9660
 5961TIP3    H239519   4.646   1.089   7.302 -1.1350  1.7303 -0.6505
 5962TIP3   OH239520   5.172   0.664   0.132 -0.9936  0.0322  0.8040
 5962TIP3    H139521   5.182   0.711   0.214  0.5989 -0.1801  0.7629
 5962TIP3    H239522   5.081   0.679   0.106 -0.9648  1.7364  1.5961
 5963TIP3   OH239523   0.784   2.275   8.058  0.1642 -0.4818  0.3665
 5963TIP3    H139524   0.827   2.203   8.103  0.0161 -0.8739 -0.1061
 5963TIP3    H239525   0.725   2.313   8.123  0.6722 -0.4115  0.7908
 5964TIP3   OH239526   6.372   5.104   2.198 -0.2470  0.1277  0.1235
 5964TIP3    H139527   6.303   5.082   2.135 -0.8647  0.5669  0.6479
 5964TIP3    H239528   6.354   5.049   2.274  1.0642 -1.1201 -0.4277
 5965TIP3   OH239529   5.450   3.629   0.862 -0.3763 -0.2843  1.0296
 5965TIP3    H139530   5.367   3.621   0.909 -0.2378 -0.0609  1.3158
 5965TIP3    H239531   5.431   3.687   0.789 -0.2406  0.5806  1.6630
 5966TIP3   OH239532   0.504   6.408   1.308 -0.1999  0.0230 -0.1275
 5966TIP3    H139533   0.414   6.408   1.338 -0.4407 -2.8712 -0.5775
 5966TIP3    H239534   0.508   6.339   1.241  2.4188 -0.2252  0.1635
 5967TIP3   OH239535   1.374   6.391   0.189  0.5110 -0.2455  0.3794
 5967TIP3    H139536   1.362   6.312   0.138  0.2391 -0.9911  1.5501
 5967TIP3    H239537   1.292   6.440   0.177  1.0895  0.3655 -1.1710
 5968TIP3   OH239538   2.529   0.071   7.838 -0.3417  0.3560 -0.0555
 5968TIP3    H139539   2.501  -0.017   7.810 -1.9072  1.2580 -1.5654
 5968TIP3    H239540   2.467   0.095   7.907  0.7336 -0.1062  1.0941
 5969TIP3   OH239541   0.631   2.600   0.157 -0.3144  0.0600  0.1876
 5969TIP3    H139542   0.652   2.509   0.137 -1.4084  0.4761 -3.4929
 5969TIP3    H239543   0.684   2.621   0.234  4.2626 -2.0519 -2.0460
 5970TIP3   OH239544   4.441   5.218   7.112 -0.1268 -0.3647 -0.1642
 5970TIP3    H139545   4.472   5.253   7.029 -1.0870 -0.8772 -0.7575
 5970TIP3    H239546   4.484   5.132   7.119 -2.2017 -1.5767 -1.5376
 5971TIP3   OH239547   6.003   3.047   8.759 -0.2036  0.1100 -0.9486
 5971TIP3    H139548   6.022   3.102   8.835 -0.0591  0.7183 -1.4115
 5971TIP3    H239549   5.999   3.109   8.686 -0.0682 -0.4996 -1.4774
 5972TIP3   OH239550   1.620   4.844   0.227  0.7037  0.6002  0.2412
 5972TIP3    H139551   1.698   4.875   0.273 -0.0851  1.8639  0.7910
 5972TIP3    H239552   1.632   4.875   0.137  2.1243 -1.6494 -0.4323
 5973TIP3   OH239553   1.317   5.736   1.897  0.0008 -0.3133 -0.1247
 5973TIP3    H139554   1.329   5.737   1.992  0.2938 -0.1189 -0.1624
 5973TIP3    H239555   1.251   5.668   1.882 -0.0429 -0.3501  0.2156
 5974TIP3   OH239556   1.737   6.081   8.726 -0.1640 -0.0427 -0.3854
 5974TIP3    H139557   1.754   6.070   8.819  0.1438  0.6012 -0.3604
 5974TIP3    H239558   1.675   6.155   8.722  0.6863  0.6606 -0.7522
 5975TIP3   OH239559   1.136   5.564   0.894  0.2170 -0.0666  0.2742
 5975TIP3    H139560   1.210   5.562   0.832  1.2314  2.1488  1.2852
 5975TIP3    H239561   1.063   5.598   0.843  0.0414 -1.5989 -0.5540
 5976TIP3   OH239562   5.773   3.850   8.576 -0.1277 -0.1184  0.2792
 5976TIP3    H139563   5.760   3.927   8.521 -1.2828 -0.5089 -0.0328
 5976TIP3    H239564   5.775   3.884   8.666 -0.4142  0.2992  0.1280
 5977TIP3   OH239565   4.846   5.736   6.221 -0.0393 -0.4738 -0.0986
 5977TIP3    H139566   4.914   5.670   6.236  1.1097  1.2110  2.6606
 5977TIP3    H239567   4.874   5.812   6.271 -2.3460  1.4684 -1.5466
 5978TIP3   OH239568   1.070   0.467   6.258  0.0478 -0.2433  0.0101
 5978TIP3    H139569   1.098   0.484   6.348  0.2131 -0.1462 -0.0602
 5978TIP3    H239570   1.077   0.552   6.214 -1.2304 -0.0038  0.2262
 5979TIP3   OH239571   3.248   4.641   0.838  0.5182  0.0141  0.3186
 5979TIP3    H139572   3.343   4.653   0.845  0.5633 -0.2082  0.0758
 5979TIP3    H239573   3.216   4.649   0.928  0.6270  1.3239  0.2655
 5980TIP3   OH239574   4.306   5.284   2.064  0.1649 -0.1009  0.1868
 5980TIP3    H139575   4.251   5.360   2.047 -2.2439 -1.7396  0.1668
 5980TIP3    H239576   4.306   5.235   1.982  1.3243 -0.3668  0.3291
 5981TIP3   OH239577   2.652   5.662   8.790 -0.1890 -0.3194  0.4223
 5981TIP3    H139578   2.667   5.629   8.879  2.0591 -1.5139 -0.3318
 5981TIP3    H239579   2.603   5.592   8.747  0.1849 -0.4778  0.2520
 5982TIP3   OH239580   4.851   0.987   0.158  0.1957 -0.0033  0.2912
 5982TIP3    H139581   4.757   0.975   0.148  0.5140 -1.3151 -1.8240
 5982TIP3    H239582   4.884   0.900   0.181  0.9243  0.3926  0.7700
 5983TIP3   OH239583   4.400   6.527   0.981 -0.0210 -0.4135  0.4848
 5983TIP3    H139584   4.428   6.443   0.944 -0.6122  0.0077 -0.9812
 5983TIP3    H239585   4.482   6.571   1.004  0.5269  0.0094 -1.9825
 5984TIP3   OH239586   1.540   5.127   7.932 -0.0556  0.9159  0.2364
 5984TIP3    H139587   1.512   5.120   7.841 -0.9795 -0.5546  0.6084
 5984TIP3    H239588   1.569   5.039   7.955 -0.0462  1.2154  1.4320
 5985TIP3   OH239589   3.225   6.151   1.910 -0.2020  0.0332 -0.4941
 5985TIP3    H139590   3.311   6.109   1.920  0.1120  1.0036  1.1008
 5985TIP3    H239591   3.186   6.147   1.997 -2.5053 -1.7978 -1.4941
 5986TIP3   OH239592   2.556   5.601   0.140 -0.3538 -0.0886  0.4767
 5986TIP3    H139593   2.588   5.669   0.199 -0.6392 -1.0394  1.7748
 5986TIP3    H239594   2.460   5.609   0.143 -0.3875 -0.5069  0.5923
 5987TIP3   OH239595   4.936   3.750   1.844 -0.0970  0.1060 -0.4542
 5987TIP3    H139596   4.877   3.677   1.823  1.9744 -1.6912 -0.3044
 5987TIP3    H239597   5.007   3.711   1.895  2.4438  1.6742 -2.5092
 5988TIP3   OH239598   2.541   1.842   0.767 -0.1069  0.3682 -0.3784
 5988TIP3    H139599   2.485   1.767   0.748 -0.6407  0.6959 -0.0980
 5988TIP3    H239600   2.483   1.918   0.761  0.0484  0.6159  1.0067
 5989TIP3   OH239601   1.322   5.734   0.654  0.4025  0.7273 -0.1594
 5989TIP3    H139602   1.349   5.651   0.693 -0.3977  0.5444  0.0251
 5989TIP3    H239603   1.274   5.709   0.575 -0.9440  0.9359  0.5581
 5990TIP3   OH239604   5.212   2.012   0.519 -0.2039  0.0341 -0.3045
 5990TIP3    H139605   5.279   2.068   0.557  1.0009  0.3282 -2.6474
 5990TIP3    H239606   5.258   1.931   0.496 -0.9584 -0.2953 -0.7121
 5991TIP3   OH239607   0.577   0.872   6.481 -0.4212  0.6154 -0.2081
 5991TIP3    H139608   0.654   0.858   6.426  0.1702 -2.2453  1.1566
 5991TIP3    H239609   0.504   0.838   6.429  0.0294 -1.3737  0.3646
 5992TIP3   OH239610   5.609   4.449   1.794  0.3679 -0.7250  0.3862
 5992TIP3    H139611   5.567   4.384   1.737 -0.6350 -0.8630  1.2557
 5992TIP3    H239612   5.567   4.532   1.770 -0.3116 -0.8389  1.1510
 5993TIP3   OH239613   4.037   3.008   8.299  0.1923 -0.1880  0.2299
 5993TIP3    H139614   3.984   2.937   8.334  2.2229 -2.0223 -0.1814
 5993TIP3    H239615   4.056   3.063   8.374 -1.6341  0.1090  0.5122
 5994TIP3   OH239616   1.268   1.717   1.309 -0.1868 -0.0753 -0.1724
 5994TIP3    H139617   1.296   1.753   1.393 -1.5763 -1.3228  0.8838
 5994TIP3    H239618   1.301   1.627   1.309 -0.3995 -0.1579 -0.8599
 5995TIP3   OH239619   0.019   2.408   8.126 -0.3995 -0.5389  0.0577
 5995TIP3    H139620   0.018   2.378   8.216  0.7489 -1.3098 -0.1709
 5995TIP3    H239621  -0.047   2.478   8.123  0.3517  0.2869  1.7604
 5996TIP3   OH239622   2.584   4.969   1.928 -0.1884  0.0361  0.0393
 5996TIP3    H139623   2.547   4.948   2.014  1.4689  0.0799  0.7902
 5996TIP3    H239624   2.678   4.958   1.939  0.3210  2.5510 -1.0471
 5997TIP3   OH239625   4.110   5.327   7.519  0.3303 -0.3486 -0.0946
 5997TIP3    H139626   4.131   5.349   7.428 -1.8811 -0.3061 -0.6426
 5997TIP3    H239627   4.172   5.257   7.541  1.3393  0.0947 -1.3893
 5998TIP3   OH239628   0.598   4.961   0.028  0.1958  0.4789  0.2206
 5998TIP3    H139629   0.595   4.936   0.120  1.6286 -0.9056 -0.0662
 5998TIP3    H239630   0.670   5.024   0.022 -0.6292  1.4399  0.2186
 5999TIP3   OH239631   5.484   5.050   1.228 -0.1940 -0.0734 -0.2219
 5999TIP3    H139632   5.460   5.132   1.272 -0.6740 -0.9021  1.1285
 5999TIP3    H239633   5.515   4.994   1.299 -3.3962 -2.3835 -0.4034
 6000TIP3   OH239634   0.446   2.298   8.412  0.0170  0.0514 -0.1532
 6000TIP3    H139635   0.529   2.337   8.383 -0.3906 -0.3399 -1.9662
 6000TIP3    H239636   0.385   2.372   8.417 -0.5610 -0.1304 -2.8794
 6001TIP3   OH239637   3.913   1.721   0.937 -0.1945 -0.1498  0.4123
 6001TIP3    H139638   3.985   1.659   0.924  1.7481  1.7773  1.4163
 6001TIP3    H239639   3.939   1.800   0.889 -1.9131  0.4364  0.3587
 6002TIP3   OH239640   3.982   3.677   2.338 -0.0618  0.8245  0.6681
 6002TIP3    H139641   4.014   3.651   2.424 -2.1564  0.3100  1.3577
 6002TIP3    H239642   4.004   3.603   2.281 -1.2357 -0.1718  1.4439
 6003TIP3   OH239643   5.991   4.499   1.828 -0.4570 -0.3084  0.3251
 6003TIP3    H139644   6.076   4.467   1.799 -0.6960  0.2807 -1.1279
 6003TIP3    H239645   6.009   4.586   1.864 -0.5907  0.4357 -1.3017
 6004TIP3   OH239646   0.873   1.425   0.589 -0.3267 -0.1778  0.2749
 6004TIP3    H139647   0.935   1.496   0.608 -0.6039 -0.0550  0.7321
 6004TIP3    H239648   0.908   1.384   0.509  0.6632 -0.4862  0.8400
 6005TIP3   OH239649   3.914   6.581   7.652  0.7266  0.1560 -0.3245
 6005TIP3    H139650   3.877   6.667   7.635  1.4910  0.4533 -0.5083
 6005TIP3    H239651   3.989   6.597   7.710 -0.4621 -0.6184  1.4960
 6006TIP3   OH239652   1.137   1.605   7.962 -0.0167  0.0887  0.8581
 6006TIP3    H139653   1.192   1.642   7.893 -1.0100 -0.5748 -0.3216
 6006TIP3    H239654   1.191   1.611   8.041  0.3889  2.7026  0.4456
 6007TIP3   OH239655   6.253   1.987   2.208 -0.3209  0.4778 -1.0520
 6007TIP3    H139656   6.326   1.936   2.174  0.2125  1.8757 -2.1289
 6007TIP3    H239657   6.293   2.061   2.253 -1.0734  0.0528  0.3824
 6008TIP3   OH239658   2.971   0.785   8.023  0.3754  0.0178  0.1156
 6008TIP3    H139659   2.880   0.787   7.994  0.4245 -2.3797 -0.3594
 6008TIP3    H239660   3.021   0.810   7.945  0.1652  1.4268  0.4016
 6009TIP3   OH239661   5.627   0.894   1.495 -0.2211  0.1832 -0.3828
 6009TIP3    H139662   5.586   0.808   1.511  0.5207  0.2276  2.2836
 6009TIP3    H239663   5.589   0.923   1.412 -2.9866 -1.2910  0.2171
 6010TIP3   OH239664   0.506   6.281   8.247  0.2026  0.4239  0.5049
 6010TIP3    H139665   0.514   6.324   8.162  2.0924 -0.8592 -0.0456
 6010TIP3    H239666   0.590   6.299   8.290  0.2355 -0.9582  1.0647
 6011TIP3   OH239667   3.112   0.711   0.280  0.3628  0.1656 -0.6915
 6011TIP3    H139668   3.118   0.693   0.186 -1.8257 -2.4023 -0.4407
 6011TIP3    H239669   3.036   0.661   0.310  1.2635  0.5033  2.5650
 6012TIP3   OH239670   3.992   3.952   0.746  0.0607 -0.5932 -0.2346
 6012TIP3    H139671   3.916   4.002   0.776  0.7999 -0.5708  1.7676
 6012TIP3    H239672   3.974   3.862   0.776  0.8251 -0.5729  0.3072
 6013TIP3   OH239673   0.461   1.493   1.809 -0.2700  0.5270 -0.3132
 6013TIP3    H139674   0.445   1.426   1.876 -3.0090  0.2558 -1.1232
 6013TIP3    H239675   0.529   1.455   1.753  0.2066 -0.3432  0.8045
 6014TIP3   OH239676   0.294   5.381   0.413  0.4782  0.2971 -0.0329
 6014TIP3    H139677   0.256   5.463   0.443 -0.6993 -0.7123  1.4289
 6014TIP3    H239678   0.383   5.381   0.450  0.6055  1.0562 -0.3352
 6015TIP3   OH239679   4.934   2.532   1.410  0.2097  0.5706  0.5791
 6015TIP3    H139680   5.014   2.486   1.385  0.3893  1.2710 -0.1688
 6015TIP3    H239681   4.956   2.625   1.401  0.1464  0.8723  2.9551
 6016TIP3   OH239682   2.763   0.075   1.622 -0.2406 -0.7588  0.2146
 6016TIP3    H139683   2.674   0.103   1.600 -0.0231  0.6459  0.9815
 6016TIP3    H239684   2.752   0.017   1.698 -0.6740 -2.6442 -1.2078
 6017TIP3   OH239685   5.877   1.613   0.522  0.0923  0.2617 -0.1287
 6017TIP3    H139686   5.840   1.607   0.611  0.3655  0.9577  0.0380
 6017TIP3    H239687   5.916   1.527   0.507  0.8344  0.4138  0.7906
 6018TIP3   OH239688   4.397   4.064   2.017  0.5385 -0.5031 -0.2656
 6018TIP3    H139689   4.421   3.975   2.044 -0.8252 -0.6704  0.4476
 6018TIP3    H239690   4.401   4.115   2.098 -1.7204 -0.6012 -0.0473
 6019TIP3   OH239691   6.136   6.490   7.162  0.7009 -0.0394 -0.5890
 6019TIP3    H139692   6.221   6.446   7.155  1.3492  0.7628  1.4110
 6019TIP3    H239693   6.158   6.583   7.167 -0.4804  0.3619 -2.2536
 6020TIP3   OH239694   0.432   1.831   1.812 -0.1309  0.5389  0.9554
 6020TIP3    H139695   0.403   1.913   1.774  1.4429  2.1810  3.0122
 6020TIP3    H239696   0.495   1.796   1.749  0.6383  1.9467  0.8988
 6021TIP3   OH239697   3.124   4.750   7.431 -0.0624  0.1914  0.4411
 6021TIP3    H139698   3.030   4.766   7.441 -0.2314  0.0014 -0.6842
 6021TIP3    H239699   3.155   4.732   7.520 -1.5488 -2.1761  0.5752
 6022TIP3   OH239700   2.837   5.335   7.469 -0.4982 -0.7698 -0.0790
 6022TIP3    H139701   2.853   5.241   7.466 -0.5367 -0.7708 -0.2945
 6022TIP3    H239702   2.892   5.367   7.540  2.3683 -0.3981 -2.3131
 6023TIP3   OH239703   2.998   2.780   7.882 -0.3052  0.0896 -0.3472
 6023TIP3    H139704   2.958   2.815   7.802 -0.0154 -1.3342 -1.1695
 6023TIP3    H239705   2.983   2.685   7.876 -2.1466  0.1113  2.3545
 6024TIP3   OH239706   0.650   6.429   0.778  0.2995  0.7708 -0.1774
 6024TIP3    H139707   0.702   6.482   0.839  0.2359  0.8435 -0.1874
 6024TIP3    H239708   0.609   6.492   0.719 -2.1256  0.9695  1.5840
 6025TIP3   OH239709   0.261   6.024   6.541  0.6740 -0.4221 -0.5244
 6025TIP3    H139710   0.334   6.010   6.601 -1.4980 -1.1162  2.1935
 6025TIP3    H239711   0.234   6.115   6.556 -0.4576 -0.8682  0.3670
 6026TIP3   OH239712   5.272   1.972   7.969 -0.2720 -0.3710  0.6583
 6026TIP3    H139713   5.212   1.985   8.043  0.1922 -0.5141  1.0597
 6026TIP3    H239714   5.353   2.016   7.996 -0.1359 -0.3275  0.1870
 6027TIP3   OH239715   6.530   0.795   7.459  0.7029 -0.6413  0.1718
 6027TIP3    H139716   6.562   0.707   7.437  0.7104 -0.6898  0.3766
 6027TIP3    H239717   6.435   0.787   7.453  0.6616 -0.8721  0.9472
 6028TIP3   OH239718   5.947   3.174   0.002  0.7086 -0.0200  0.2824
 6028TIP3    H139719   6.008   3.162   0.075  0.9662  1.0831  0.2512
 6028TIP3    H239720   5.873   3.222   0.040 -0.7666 -2.3685  0.6314
 6029TIP3   OH239721   1.004   1.126   8.821  0.3311 -0.3625 -0.1727
 6029TIP3    H139722   0.944   1.196   8.796  0.0691 -0.7151 -0.5450
 6029TIP3    H239723   1.044   1.157   8.902  0.4802  0.3695 -0.5166
 6030TIP3   OH239724   0.881   4.889   1.689 -0.4821 -0.3879  0.3632
 6030TIP3    H139725   0.895   4.963   1.748 -0.6544 -0.4110  0.4336
 6030TIP3    H239726   0.939   4.906   1.615 -1.4972  0.5173 -0.2571
 6031TIP3   OH239727   4.121   2.661   7.778  0.1515 -0.5640 -0.1400
 6031TIP3    H139728   4.162   2.659   7.864  1.3792 -0.0188 -0.6835
 6031TIP3    H239729   4.186   2.622   7.719  1.6862  3.7660 -1.6922
 6032TIP3   OH239730   2.461   2.299   8.303  0.0254  0.1243 -0.0304
 6032TIP3    H139731   2.476   2.216   8.259 -1.9236 -1.0110  1.2978
 6032TIP3    H239732   2.374   2.326   8.274  0.1572  1.1268  0.4595
 6033TIP3   OH239733   3.747   3.599   8.585  0.1548 -0.2967 -0.8592
 6033TIP3    H139734   3.722   3.572   8.673  0.2449  2.3360  0.0540
 6033TIP3    H239735   3.791   3.522   8.548 -0.9319 -1.8621  0.9108
 6034TIP3   OH239736   1.915   4.692   8.749 -0.4727 -0.7119  0.0434
 6034TIP3    H139737   1.896   4.716   8.658 -3.1059  1.2970  0.9632
 6034TIP3    H239738   1.976   4.760   8.779  0.0051 -1.0861 -0.0734
 6035TIP3   OH239739   5.002   1.930   7.218  0.0058 -0.3336  0.1115
 6035TIP3    H139740   4.976   1.844   7.186  2.5572 -0.3114 -2.4132
 6035TIP3    H239741   4.938   1.990   7.180 -2.0482 -1.0266  2.2287
 6036TIP3   OH239742   1.008   3.545   8.689 -0.5572  0.0027  0.0035
 6036TIP3    H139743   1.086   3.574   8.641  0.8618  0.7511  2.5798
 6036TIP3    H239744   1.004   3.451   8.672  1.1564 -0.1216  0.0798
 6037TIP3   OH239745   3.678   4.309   6.770  0.1710  0.2361 -0.6133
 6037TIP3    H139746   3.594   4.349   6.751 -0.8290 -1.3469  0.2642
 6037TIP3    H239747   3.702   4.343   6.857  0.4790  0.7355 -0.8903
 6038TIP3   OH239748   2.397   0.248   6.952 -0.0801  0.9048  0.2824
 6038TIP3    H139749   2.322   0.256   6.893  0.3424  1.3284 -0.2091
 6038TIP3    H239750   2.447   0.174   6.917  0.5956  1.6566 -0.3951
 6039TIP3   OH239751   4.846   5.687   7.137  0.1119 -0.2124 -0.2342
 6039TIP3    H139752   4.787   5.611   7.142  0.6963 -0.6107  0.8799
 6039TIP3    H239753   4.801   5.748   7.079 -0.9578 -0.9051 -0.1667
 6040TIP3   OH239754   5.029   2.991   0.678  0.2575  0.2049  0.4327
 6040TIP3    H139755   5.024   2.989   0.773  3.0244  2.5722  0.7839
 6040TIP3    H239756   4.999   2.905   0.650 -0.4495 -0.6333  3.4265
 6041TIP3   OH239757   4.136   6.373   0.554 -0.2803 -0.4838 -0.0498
 6041TIP3    H139758   4.166   6.307   0.492  0.3954 -1.0109  0.8160
 6041TIP3    H239759   4.142   6.456   0.505  0.1037 -0.9028 -0.7326
 6042TIP3   OH239760   1.398   5.585   1.316  0.6851  0.4981  0.6576
 6042TIP3    H139761   1.422   5.644   1.244  0.6425  0.3103  0.4926
 6042TIP3    H239762   1.477   5.534   1.332  1.3255  1.8441  2.0064
 6043TIP3   OH239763   1.305   6.679   0.768 -0.2500  0.2881 -0.1652
 6043TIP3    H139764   1.383   6.700   0.820 -0.3870 -0.4178  0.3436
 6043TIP3    H239765   1.232   6.685   0.829 -0.3934 -0.7332 -0.2095
 6044TIP3   OH239766   0.580   4.814   1.688 -0.0355  0.0699  0.3203
 6044TIP3    H139767   0.617   4.750   1.748 -0.8050 -0.7627 -0.0666
 6044TIP3    H239768   0.628   4.894   1.705 -0.5803 -0.0007  2.4000
 6045TIP3   OH239769   4.719   2.361   8.278  0.1521 -0.1118 -0.3445
 6045TIP3    H139770   4.684   2.272   8.270 -2.3490  0.4554  2.5482
 6045TIP3    H239771   4.653   2.417   8.236  0.1522  0.5680  0.5206
 6046TIP3   OH239772   0.066   1.592   7.201  0.2339  0.0384  0.0500
 6046TIP3    H139773  -0.020   1.631   7.216 -0.8098 -1.5256 -1.5464
 6046TIP3    H239774   0.075   1.527   7.270 -0.7788 -1.1698 -0.9131
 6047TIP3   OH239775   1.760   4.698   6.911  0.4465 -0.0603  0.5818
 6047TIP3    H139776   1.798   4.754   6.978  0.3380  1.0067 -0.2224
 6047TIP3    H239777   1.790   4.735   6.828  0.5529 -1.3331  0.0258
 6048TIP3   OH239778   1.936   3.410   8.703  0.0841  0.4531 -0.2758
 6048TIP3    H139779   1.979   3.439   8.622 -0.2645  1.4990 -0.1082
 6048TIP3    H239780   2.008   3.388   8.762  0.3547  0.3271 -0.6471
 6049TIP3   OH239781   0.190   6.543   8.023  0.1974 -0.3277  0.4568
 6049TIP3    H139782   0.135   6.568   8.097 -1.0069  0.7861 -0.7370
 6049TIP3    H239783   0.216   6.453   8.041 -0.0154 -0.0588  2.2391
 6050TIP3   OH239784   5.449   4.089   2.424 -0.1847 -0.2633 -0.8110
 6050TIP3    H139785   5.385   4.037   2.470 -0.8529  1.2925  0.1019
 6050TIP3    H239786   5.519   4.028   2.401 -0.2373 -1.2665  1.5015
 6051TIP3   OH239787   0.659   0.430   8.976  0.9925 -0.1394 -0.1349
 6051TIP3    H139788   0.594   0.364   8.954 -0.5944  0.9615  0.9710
 6051TIP3    H239789   0.622   0.512   8.943  2.3321  0.3938 -0.3912
 6052TIP3   OH239790   0.794   1.256   1.843 -0.3978  0.2014  0.1969
 6052TIP3    H139791   0.843   1.319   1.895 -0.6166 -1.0062  1.9619
 6052TIP3    H239792   0.727   1.222   1.903  0.1440 -2.2042 -0.4378
 6053TIP3   OH239793   6.407   0.306   0.343  0.0658  0.0260  0.0970
 6053TIP3    H139794   6.335   0.320   0.404 -0.7329  1.3648 -1.1034
 6053TIP3    H239795   6.446   0.392   0.331 -0.9156  0.1710 -2.6007
 6054TIP3   OH239796   2.897   5.024   1.403  0.1641 -0.2389 -0.0759
 6054TIP3    H139797   2.882   4.988   1.316  1.7689 -1.2138  0.0003
 6054TIP3    H239798   2.831   4.982   1.458  0.5569 -1.3705 -0.4255
 6055TIP3   OH239799   2.722   0.397   7.533 -0.1337 -0.2490 -0.4827
 6055TIP3    H139800   2.654   0.429   7.474 -1.3207 -0.2331  0.8333
 6055TIP3    H239801   2.777   0.473   7.551 -1.5269  0.5307  0.7394
 6056TIP3   OH239802   6.400   5.383   7.337 -0.1847 -0.4352 -0.1729
 6056TIP3    H139803   6.477   5.382   7.280 -1.5824 -2.1174 -2.2198
 6056TIP3    H239804   6.434   5.361   7.423  1.8006  0.3728 -0.6858
 6057TIP3   OH239805   5.027   5.016   0.105 -0.2134  0.5336  0.2001
 6057TIP3    H139806   5.029   4.921   0.091  0.5309  0.6353 -0.4347
 6057TIP3    H239807   5.050   5.053   0.020 -1.1687  1.3044  0.2676
 6058TIP3   OH239808   3.147   0.888   0.660  0.6677  0.1502 -0.5975
 6058TIP3    H139809   3.201   0.846   0.592 -0.6338 -2.7009 -0.0407
 6058TIP3    H239810   3.200   0.880   0.740  0.4835 -0.3375 -0.5205
 6059TIP3   OH239811   4.944   5.109   0.381  0.1043 -0.2811 -0.2338
 6059TIP3    H139812   5.025   5.133   0.425 -0.5324  3.0573 -0.6673
 6059TIP3    H239813   4.972   5.074   0.297  1.0977 -0.7106  0.2494
 6060TIP3   OH239814   0.722   1.562   1.991  0.8658 -0.2361  0.3990
 6060TIP3    H139815   0.808   1.539   1.956  1.1530  0.0638  0.8938
 6060TIP3    H239816   0.677   1.605   1.918  0.7118 -1.3866 -0.2092
 6061TIP3   OH239817   6.427   0.382   6.817  0.0143 -0.3076  0.4202
 6061TIP3    H139818   6.466   0.386   6.904 -0.3042  2.3660  0.5252
 6061TIP3    H239819   6.373   0.461   6.811  0.0622 -0.3848 -2.2164
 6062TIP3   OH239820   2.954   2.456   1.633 -0.1373 -0.5155  0.0883
 6062TIP3    H139821   2.877   2.463   1.689 -0.1257 -0.5001  0.1022
 6062TIP3    H239822   3.002   2.381   1.666  0.3938  0.0960  0.7332
 6063TIP3   OH239823   2.631   4.698   0.612 -0.0576  0.2809  0.0944
 6063TIP3    H139824   2.622   4.603   0.612  1.7126  0.0886  0.7144
 6063TIP3    H239825   2.725   4.714   0.615 -0.3455  2.0578  0.9723
 6064TIP3   OH239826   3.118   0.259   7.250  0.2955 -0.1274  0.2799
 6064TIP3    H139827   3.046   0.318   7.271 -0.1450 -0.9442  1.1937
 6064TIP3    H239828   3.108   0.186   7.312  1.3123 -0.7479 -0.2476
 6065TIP3   OH239829   4.435   3.666   8.367  0.4453  0.2896 -0.0380
 6065TIP3    H139830   4.505   3.668   8.302  2.2972 -0.6358  1.7976
 6065TIP3    H239831   4.404   3.576   8.366  1.4863 -0.1189  1.2810
 6066TIP3   OH239832   1.490   0.437   1.482 -0.0318 -0.0453  0.2160
 6066TIP3    H139833   1.484   0.525   1.519 -0.4713  0.0286 -0.0165
 6066TIP3    H239834   1.583   0.415   1.486  0.2017  0.7588 -0.4690
 6067TIP3   OH239835   4.772   3.049   8.920 -0.4282 -0.3020 -0.2376
 6067TIP3    H139836   4.847   3.018   8.971 -1.1210 -0.9352  0.4190
 6067TIP3    H239837   4.803   3.052   8.830  0.7393  0.5609  0.1660
 6068TIP3   OH239838   0.063   3.714   7.135 -0.2822 -0.5578 -0.2546
 6068TIP3    H139839   0.103   3.795   7.164 -1.7565 -0.3134  1.2677
 6068TIP3    H239840  -0.023   3.740   7.100 -0.8472 -1.4563  0.4190
 6069TIP3   OH239841   6.139   3.657   0.105 -0.4907  0.3427 -0.8202
 6069TIP3    H139842   6.160   3.565   0.088  0.1248  0.5162 -1.0208
 6069TIP3    H239843   6.225   3.699   0.116 -0.7548  0.9842 -1.2082
 6070TIP3   OH239844   1.429   6.500   1.848  0.0373 -0.7360 -0.3167
 6070TIP3    H139845   1.490   6.547   1.905  0.4819 -1.4336 -0.2154
 6070TIP3    H239846   1.408   6.563   1.779  0.8247 -0.4745 -0.3225
 6071TIP3   OH239847   6.743   2.225   1.858  0.1940  0.7124  0.1805
 6071TIP3    H139848   6.799   2.150   1.837  0.1368 -0.1759  2.8703
 6071TIP3    H239849   6.777   2.296   1.803  0.8456 -0.9985 -1.7601
 6072TIP3   OH239850   5.597   3.761   8.379  0.6600  0.6079  0.4978
 6072TIP3    H139851   5.648   3.842   8.377  0.9528  0.4577  1.5966
 6072TIP3    H239852   5.649   3.701   8.430 -0.4776  0.3530  1.4001
 6073TIP3   OH239853   2.053   3.592   0.576 -0.0760 -0.2052  0.4334
 6073TIP3    H139854   2.138   3.625   0.545 -0.8325  0.7310 -0.7588
 6073TIP3    H239855   2.054   3.499   0.554  0.2290  0.0231 -0.5839
 6074TIP3   OH239856   2.551   5.043   0.223  0.0097  0.2720 -0.2623
 6074TIP3    H139857   2.635   5.000   0.208  0.1575  0.2966  0.4482
 6074TIP3    H239858   2.541   5.043   0.318 -1.3383 -0.7958 -0.3642
 6075TIP3   OH239859   1.658   5.286   6.453 -0.4466  0.2933 -0.2424
 6075TIP3    H139860   1.610   5.239   6.384 -0.4620  0.0362 -0.0589
 6075TIP3    H239861   1.732   5.326   6.408  0.4827 -1.2290 -0.1570
 6076TIP3   OH239862   4.680   4.320   8.099 -0.3577 -0.3614 -0.1735
 6076TIP3    H139863   4.686   4.285   8.188 -0.4995 -0.8643 -0.3555
 6076TIP3    H239864   4.590   4.302   8.072  0.3432 -2.5742 -1.3438
 6077TIP3   OH239865   2.985   2.065   0.468 -0.2712  0.4763  0.1526
 6077TIP3    H139866   2.892   2.061   0.449 -1.4485 -2.3183  4.8085
 6077TIP3    H239867   2.997   2.146   0.516  0.2091  1.6886 -1.8888
 6078TIP3   OH239868   2.893   6.220   8.431 -0.7977 -0.8696  0.0503
 6078TIP3    H139869   2.833   6.233   8.358 -0.5192  0.7562  0.0832
 6078TIP3    H239870   2.978   6.205   8.390 -0.9174 -1.5160  0.0291
 6079TIP3   OH239871   5.641   6.113   1.847  0.5266  0.1909 -0.4011
 6079TIP3    H139872   5.731   6.137   1.867  0.9570 -1.0801 -0.6975
 6079TIP3    H239873   5.645   6.019   1.829 -0.8888  0.0827 -0.2496
 6080TIP3   OH239874   2.171   4.375   7.543 -0.5420 -0.0630 -0.1406
 6080TIP3    H139875   2.114   4.410   7.612 -0.9750 -1.9464  0.5193
 6080TIP3    H239876   2.114   4.318   7.491  0.3359 -0.5755 -0.5611
 6081TIP3   OH239877   3.337   3.287   7.900 -0.5682  0.5910 -0.5109
 6081TIP3    H139878   3.432   3.287   7.912 -0.6097  0.5205 -0.1777
 6081TIP3    H239879   3.316   3.196   7.878 -0.3183  0.9933 -2.5670
 6082TIP3   OH239880   6.337   0.161   7.798 -0.4264  0.1366  0.1482
 6082TIP3    H139881   6.415   0.113   7.825 -0.7121  0.0850  0.8916
 6082TIP3    H239882   6.270   0.094   7.785 -0.2726  0.1514 -0.7860
 6083TIP3   OH239883   1.094   4.795   8.589  0.2144 -0.3434 -0.2736
 6083TIP3    H139884   1.078   4.702   8.572  0.2921 -0.1663 -1.3805
 6083TIP3    H239885   1.184   4.798   8.622  1.2379 -0.4356 -2.7898
 6084TIP3   OH239886   0.242   5.578   0.099  0.2020  0.1812 -0.3379
 6084TIP3    H139887   0.274   5.531   0.023  0.8937 -0.3498  0.2764
 6084TIP3    H239888   0.150   5.551   0.107 -0.1498  0.9450 -1.5099
 6085TIP3   OH239889   4.146   0.561   0.212 -0.5393 -0.1678  0.1097
 6085TIP3    H139890   4.085   0.612   0.159 -1.7790  0.5798  2.0983
 6085TIP3    H239891   4.109   0.473   0.214 -0.7396 -0.0860  0.0723
 6086TIP3   OH239892   1.121   4.641   8.924  0.1543  0.5226  0.0758
 6086TIP3    H139893   1.118   4.615   8.832  0.8418  1.1246 -0.1329
 6086TIP3    H239894   1.212   4.668   8.937  0.0782  0.3580  0.9555
 6087TIP3   OH239895   3.054   1.434   8.216 -0.3958  0.3542  0.0620
 6087TIP3    H139896   2.986   1.423   8.282 -1.3702  0.9047 -0.8200
 6087TIP3    H239897   3.015   1.401   8.136 -0.1241  1.8927 -0.7335
 6088TIP3   OH239898   5.171   4.172   7.968 -0.2913 -0.1048 -0.5127
 6088TIP3    H139899   5.231   4.116   7.919 -0.0128  0.5203 -0.9011
 6088TIP3    H239900   5.216   4.189   8.051  1.1218  2.1395 -1.6317
 6089TIP3   OH239901   6.361   1.842   6.291 -0.5800 -0.0625  0.0353
 6089TIP3    H139902   6.350   1.750   6.268  1.4664 -0.5090  0.6635
 6089TIP3    H239903   6.368   1.842   6.386  0.4946  0.5850 -0.0261
 6090TIP3   OH239904   2.514   3.550   8.593  0.0356 -0.2843 -0.3087
 6090TIP3    H139905   2.602   3.512   8.602  0.4508  1.0932  2.7010
 6090TIP3    H239906   2.531   3.641   8.568 -0.3779  0.3196  1.4359
 6091TIP3   OH239907   4.929   3.183   8.123  0.5468  0.0927 -0.0395
 6091TIP3    H139908   5.009   3.190   8.071  2.0755 -0.6946  2.1066
 6091TIP3    H239909   4.954   3.211   8.210 -1.3321 -0.9376  0.8960
 6092TIP3   OH239910   4.029   2.159   2.211 -0.0736 -0.1699 -0.8642
 6092TIP3    H139911   4.059   2.094   2.147 -0.8530 -2.0749  0.5807
 6092TIP3    H239912   3.948   2.194   2.174 -0.2255 -0.8451 -1.1888
 6093TIP3   OH239913   3.784   3.969   6.551 -0.1484 -0.3105  0.2612
 6093TIP3    H139914   3.863   4.011   6.517 -0.6495  0.1867 -0.3252
 6093TIP3    H239915   3.721   3.975   6.479 -0.8832 -0.2172  0.9008
 6094TIP3   OH239916   2.118   6.499   0.201  0.2194  0.2438  0.0914
 6094TIP3    H139917   2.111   6.593   0.185 -0.9549  0.4801  1.7922
 6094TIP3    H239918   2.035   6.463   0.170  0.6142 -0.2372 -0.4388
 6095TIP3   OH239919   4.719   0.419   7.781  0.3888 -0.1589  0.0643
 6095TIP3    H139920   4.706   0.495   7.838  2.9386 -0.3328  1.0354
 6095TIP3    H239921   4.806   0.433   7.743  0.0306 -1.5912 -1.4016
 6096TIP3   OH239922   3.350   0.276   6.924 -0.0393 -0.3527 -0.2945
 6096TIP3    H139923   3.428   0.329   6.943  0.3953 -0.3957 -1.8207
 6096TIP3    H239924   3.323   0.303   6.836 -1.4159 -0.7607 -0.0189
 6097TIP3   OH239925   3.951   4.399   0.147 -0.2103 -0.2676  0.2589
 6097TIP3    H139926   3.974   4.485   0.111  1.1420 -0.3101  0.9537
 6097TIP3    H239927   3.911   4.352   0.074  1.9632 -0.1764 -1.0745
 6098TIP3   OH239928   1.153   1.320   0.365 -0.2679 -0.0889  0.1233
 6098TIP3    H139929   1.062   1.291   0.369  0.1520 -1.4138  1.0192
 6098TIP3    H239930   1.176   1.340   0.456  0.6121 -0.7715  0.0728
 6099TIP3   OH239931   0.099   4.184   7.841 -0.2590  0.1161 -0.1829
 6099TIP3    H139932   0.172   4.244   7.828  0.2119 -0.8147 -2.2725
 6099TIP3    H239933   0.123   4.135   7.920  0.1434  1.4839  0.5872
 6100TIP3   OH239934   6.342   0.588   8.822  0.2534 -0.1004 -0.2928
 6100TIP3    H139935   6.430   0.614   8.848  0.0220  0.4643 -0.0576
 6100TIP3    H239936   6.355   0.511   8.767  0.8740 -0.2054 -0.0112
 6101TIP3   OH239937   5.247   3.603   1.737  0.2549  0.6494 -0.1844
 6101TIP3    H139938   5.182   3.628   1.803  1.7950  0.3950  1.5378
 6101TIP3    H239939   5.318   3.667   1.749  1.1337 -0.2123 -0.6780
 6102TIP3   OH239940   6.323   0.851   8.176  0.0109 -0.0060  0.0900
 6102TIP3    H139941   6.300   0.788   8.245 -1.9310  2.1124  1.5664
 6102TIP3    H239942   6.265   0.829   8.103  0.6023 -0.9948 -0.0926
 6103TIP3   OH239943   5.663   1.505   0.934  0.8242 -0.2483  0.5239
 6103TIP3    H139944   5.602   1.470   0.868  0.6447 -1.0931  1.1187
 6103TIP3    H239945   5.746   1.513   0.887  0.6515 -0.6596  0.1356
 6104TIP3   OH239946   3.608   4.411   8.340  0.0211 -0.5851 -0.3934
 6104TIP3    H139947   3.667   4.473   8.298 -0.7871 -0.1433 -0.8978
 6104TIP3    H239948   3.521   4.436   8.309 -0.5266 -0.6721  1.0163
 6105TIP3   OH239949   2.355   6.116   6.771 -0.3525 -0.4401  0.0705
 6105TIP3    H139950   2.296   6.177   6.816  2.5907  1.0548  2.2591
 6105TIP3    H239951   2.334   6.030   6.808 -0.3769  0.2498  1.7560
 6106TIP3   OH239952   6.628   0.091   7.159 -0.8804  0.8992 -0.7386
 6106TIP3    H139953   6.684   0.099   7.083 -0.2297  1.1826 -0.2379
 6106TIP3    H239954   6.684   0.115   7.233 -1.5804  0.9146 -0.2029
 6107TIP3   OH239955   4.835   6.124   1.219 -0.5553 -0.5407 -0.1682
 6107TIP3    H139956   4.779   6.060   1.263 -1.1013 -0.0313 -0.1067
 6107TIP3    H239957   4.774   6.187   1.181 -0.0238  1.1715  1.5974
 6108TIP3   OH239958   4.953   3.991   1.965 -0.3241  0.2361 -0.2425
 6108TIP3    H139959   4.927   3.931   1.895 -1.6274  1.5006 -0.8919
 6108TIP3    H239960   4.891   4.064   1.959 -0.4187  0.4373  2.1801
 6109TIP3   OH239961   4.404   0.549   0.239  0.3324 -0.1689 -0.1334
 6109TIP3    H139962   4.319   0.541   0.196  0.6024 -0.3292 -0.6520
 6109TIP3    H239963   4.466   0.513   0.175  0.6288 -1.3787  0.7956
 6110TIP3   OH239964   1.650   4.363   0.883 -0.3588  0.5789 -0.2255
 6110TIP3    H139965   1.727   4.330   0.836 -0.4525  0.0818 -0.0324
 6110TIP3    H239966   1.680   4.446   0.922 -0.2462  0.9329 -1.0536
 6111TIP3   OH239967   2.486   4.287   1.053  0.3154  0.3199  0.4841
 6111TIP3    H139968   2.533   4.346   0.993  0.8282 -0.4662  0.0905
 6111TIP3    H239969   2.492   4.330   1.138  0.7324  0.8113  0.2166
 6112TIP3   OH239970   4.252   5.260   6.627  0.6855 -0.1712  0.0829
 6112TIP3    H139971   4.289   5.172   6.631  0.9902 -0.1328 -1.3181
 6112TIP3    H239972   4.226   5.279   6.717  2.7175 -0.7903  0.8757
 6113TIP3   OH239973   5.484   1.418   0.722  0.3082 -0.3741 -0.1742
 6113TIP3    H139974   5.403   1.394   0.767 -0.0334  0.5073 -0.3138
 6113TIP3    H239975   5.479   1.373   0.637  0.5377 -1.3018  0.2878
 6114TIP3   OH239976   3.230   3.576   8.271  0.1631  0.9839 -0.2512
 6114TIP3    H139977   3.149   3.607   8.230  0.7514  0.3007 -2.0039
 6114TIP3    H239978   3.236   3.484   8.247  0.4059  0.4482  1.6694
 6115TIP3   OH239979   4.415   5.833   1.496 -0.0994 -0.0961 -0.2419
 6115TIP3    H139980   4.432   5.840   1.590 -0.4671  0.2778 -0.1997
 6115TIP3    H239981   4.379   5.745   1.485 -0.9561  0.1929  0.1180
 6116TIP3   OH239982   2.080   4.176   2.122 -0.2175 -0.5364 -0.3130
 6116TIP3    H139983   2.047   4.162   2.033 -0.5181 -0.4005 -0.2236
 6116TIP3    H239984   2.173   4.151   2.117 -0.3142 -0.8467 -0.5826
 6117TIP3   OH239985   4.302   4.225   6.991 -0.0559  0.0171 -0.1051
 6117TIP3    H139986   4.305   4.205   6.897  1.0250  3.3544 -0.9257
 6117TIP3    H239987   4.228   4.285   7.000  0.5867  0.6722  0.9469
 6118TIP3   OH239988   4.198   0.142   2.296 -0.2151 -0.2596 -0.0073
 6118TIP3    H139989   4.109   0.124   2.266 -0.9733 -1.1349  2.5082
 6118TIP3    H239990   4.254   0.099   2.231 -1.6323 -0.4808 -1.1496
 6119TIP3   OH239991   0.753   2.268   1.348  0.2204  0.9966 -0.1157
 6119TIP3    H139992   0.740   2.349   1.396  0.7281 -0.5288  2.8133
 6119TIP3    H239993   0.670   2.221   1.358 -0.1537  1.1771 -1.9844
 6120TIP3   OH239994   0.219   6.103   0.966 -0.9118 -0.2657  0.1012
 6120TIP3    H139995   0.177   6.119   1.050  0.2128 -1.7506  1.0158
 6120TIP3    H239996   0.200   6.011   0.948 -0.9003 -0.0362 -1.1451
 6121TIP3   OH239997   5.910   6.013   6.437 -0.3529  0.3914 -0.2040
 6121TIP3    H139998   5.997   6.008   6.477 -0.5872 -1.4684  0.1914
 6121TIP3    H239999   5.853   5.964   6.497 -1.2122 -0.3840 -1.5804
 6122TIP3   OH240000   2.746   3.481   1.990 -0.5406 -0.1954 -0.1114
 6122TIP3    H140001   2.829   3.452   2.029 -0.8280 -0.0271  0.6440
 6122TIP3    H240002   2.762   3.479   1.896  0.6646  0.8276  0.0442
 6123TIP3   OH240003   1.402   4.671   0.039 -0.3286  0.1476 -0.0757
 6123TIP3    H140004   1.403   4.762   0.070 -1.3110 -0.3276  1.4873
 6123TIP3    H240005   1.490   4.639   0.055  0.1699  0.9530 -1.1026
 6124TIP3   OH240006   3.781   5.780   8.487  0.0266 -0.6683 -0.1932
 6124TIP3    H140007   3.720   5.731   8.542 -0.0845 -0.6924 -0.3350
 6124TIP3    H240008   3.729   5.853   8.453  0.2402 -0.3562  0.1550
 6125TIP3   OH240009   3.105   2.721   8.595 -0.1677 -0.2138 -0.0864
 6125TIP3    H140010   3.106   2.722   8.499 -0.3747 -0.7484 -0.0949
 6125TIP3    H240011   3.018   2.688   8.618  0.3953 -1.5057  0.2711
 6126TIP3   OH240012   2.049   0.143   1.286  0.0020 -0.3799 -0.1911
 6126TIP3    H140013   2.110   0.212   1.259 -1.6735  1.1224 -0.3157
 6126TIP3    H240014   1.965   0.188   1.298 -0.9592 -2.2585  0.5916
 6127TIP3   OH240015   2.371   5.891   1.681  0.0440 -0.3455  0.1890
 6127TIP3    H140016   2.392   5.963   1.741 -0.6232  0.2869 -0.3261
 6127TIP3    H240017   2.415   5.915   1.599 -0.1593 -0.5352  0.0232
 6128TIP3   OH240018   4.089   1.292   6.411  0.0860  0.1453 -0.2689
 6128TIP3    H140019   4.048   1.223   6.462  1.3567  0.3074  1.0175
 6128TIP3    H240020   4.068   1.373   6.458  0.0543  0.4650 -0.8175
 6129TIP3   OH240021   2.489   1.401   7.830  0.1633 -0.9167  0.1319
 6129TIP3    H140022   2.559   1.408   7.895  1.7227 -1.7799 -1.3535
 6129TIP3    H240023   2.441   1.483   7.838  3.0520  1.0306 -0.5846
 6130TIP3   OH240024   2.448   3.530   1.403  0.4886  0.5917 -0.9243
 6130TIP3    H140025   2.470   3.439   1.422 -0.4202  0.1117 -2.0751
 6130TIP3    H240026   2.531   3.577   1.414  0.5950 -0.0334  1.4984
 6131TIP3   OH240027   2.455   0.454   8.010  0.0849  0.7448  0.2535
 6131TIP3    H140028   2.447   0.494   8.097  0.6678 -0.3822  0.8498
 6131TIP3    H240029   2.528   0.502   7.969  1.4270 -0.3011  1.3332
 6132TIP3   OH240030   6.143   6.094   8.713  0.5900  0.4051 -0.3427
 6132TIP3    H140031   6.177   6.004   8.712 -0.0060  0.1541  0.4564
 6132TIP3    H240032   6.201   6.141   8.773 -0.3590  0.0059  0.9283
 6133TIP3   OH240033   5.362   5.071   8.133 -0.1981  0.2716 -0.1465
 6133TIP3    H140034   5.444   5.036   8.166 -0.0925  1.1158  0.5231
 6133TIP3    H240035   5.294   5.024   8.182 -0.0910  0.1835 -0.0827
 6134TIP3   OH240036   0.105   6.521   2.252  0.0628 -0.5991 -0.5736
 6134TIP3    H140037   0.017   6.552   2.229  0.0249 -0.7959 -0.6890
 6134TIP3    H240038   0.124   6.563   2.336 -0.3320 -0.9310 -0.3171
 6135TIP3   OH240039   1.397   3.565   7.515  0.1806  0.0881  0.0323
 6135TIP3    H140040   1.377   3.657   7.497  1.4384  1.0721  3.0797
 6135TIP3    H240041   1.337   3.540   7.585  0.0413 -1.3734 -0.5735
 6136TIP3   OH240042   2.731   5.976   1.542 -0.6521  0.2987  0.2734
 6136TIP3    H140043   2.826   5.970   1.532 -0.5872 -0.1633  1.1071
 6136TIP3    H240044   2.699   5.992   1.453  0.3523  2.6853  0.2591
 6137TIP3   OH240045   3.386   2.643   8.640  0.0361 -0.4024 -0.1712
 6137TIP3    H140046   3.300   2.636   8.600  0.3490  0.7655 -1.0865
 6137TIP3    H240047   3.372   2.615   8.731 -1.1304 -0.9767 -0.5075
 6138TIP3   OH240048   5.006   3.976   7.456 -0.3756  0.8718 -0.1937
 6138TIP3    H140049   4.919   4.015   7.456 -0.4618  0.6867 -0.5187
 6138TIP3    H240050   5.030   3.969   7.548 -0.8708  0.5557 -0.0825
 6139TIP3   OH240051   3.082   3.032   0.269  0.1278  0.5310 -0.4030
 6139TIP3    H140052   3.114   3.060   0.183  1.1372  0.6110 -0.0072
 6139TIP3    H240053   3.160   3.003   0.316 -0.7381 -2.3616 -0.5292
 6140TIP3   OH240054   4.744   6.617   1.291  0.3358 -0.1451 -0.3968
 6140TIP3    H140055   4.829   6.659   1.303 -0.0561  0.1704  1.5236
 6140TIP3    H240056   4.755   6.529   1.327 -0.3113  0.1134  0.4555
 6141TIP3   OH240057   6.606   5.206   2.278  0.2041 -0.5204 -0.4536
 6141TIP3    H140058   6.596   5.232   2.369  0.0027  0.1205 -0.6560
 6141TIP3    H240059   6.520   5.171   2.253  0.8552 -2.8280  0.2462
 6142TIP3   OH240060   5.981   1.890   0.716 -0.4063  0.3266 -0.6528
 6142TIP3    H140061   6.029   1.892   0.799  0.0817 -1.2147 -0.8708
 6142TIP3    H240062   6.044   1.923   0.652 -0.5950  0.9731 -0.5173
 6143TIP3   OH240063   5.923   1.535   7.343 -0.4586  0.3475  0.1616
 6143TIP3    H140064   5.863   1.588   7.292 -0.9836  2.1314  2.4670
 6143TIP3    H240065   5.971   1.597   7.397  0.3116 -1.3676  1.5761
 6144TIP3   OH240066   6.760   4.042   8.358 -0.2979 -0.1743 -0.3928
 6144TIP3    H140067   6.671   4.075   8.362 -0.4871 -0.7856  0.7322
 6144TIP3    H240068   6.759   3.964   8.413  0.9389 -0.1630 -0.3320
 6145TIP3   OH240069   3.651   6.655   7.964 -0.3193 -0.3612 -0.3552
 6145TIP3    H140070   3.671   6.585   7.901 -2.0193 -0.4053 -0.9192
 6145TIP3    H240071   3.704   6.634   8.041  0.3604 -1.4021 -1.0702
 6146TIP3   OH240072   5.667   2.234   8.681  0.1367 -0.1946  0.0804
 6146TIP3    H140073   5.713   2.266   8.603  2.0413  0.3560  1.3487
 6146TIP3    H240074   5.706   2.283   8.753  0.0347 -2.2712  1.6231
 6147TIP3   OH240075   6.524   0.833   0.281  0.3503 -0.1006 -0.2685
 6147TIP3    H140076   6.521   0.901   0.213 -0.1997  1.1946  1.0126
 6147TIP3    H240077   6.566   0.758   0.238  2.6441  1.6352 -1.1997
 6148TIP3   OH240078   4.304   6.756   1.109  0.0554 -0.2765  0.1773
 6148TIP3    H140079   4.376   6.750   1.171  1.0590  2.0278 -0.6633
 6148TIP3    H240080   4.325   6.690   1.042  0.2905 -1.0097  0.9608
 6149TIP3   OH240081   5.308   1.678   0.884 -0.2831 -0.4524  0.1742
 6149TIP3    H140082   5.286   1.601   0.831  1.8290 -0.3363 -0.9811
 6149TIP3    H240083   5.327   1.642   0.971 -2.0243 -0.8687  0.4106
 6150TIP3   OH240084   4.572   4.641   6.568  0.6772 -0.0887  0.6494
 6150TIP3    H140085   4.635   4.667   6.501 -0.1649 -0.0603 -0.1564
 6150TIP3    H240086   4.538   4.724   6.602  0.3190 -0.1033  0.3376
 6151TIP3   OH240087   3.322   2.849   7.705 -0.2827  0.6101  0.6352
 6151TIP3    H140088   3.287   2.760   7.695 -2.2994  1.4713 -0.4288
 6151TIP3    H240089   3.403   2.848   7.655 -1.1888 -0.1733 -0.8945
 6152TIP3   OH240090   3.301   6.243   0.730  0.5844  0.3955  0.2174
 6152TIP3    H140091   3.309   6.337   0.742  0.2576  0.2600  1.6775
 6152TIP3    H240092   3.326   6.228   0.639  1.2180  1.8192  0.1325
 6153TIP3   OH240093   3.030   6.645   0.239 -0.3630  0.2885  0.0047
 6153TIP3    H140094   3.002   6.703   0.167  0.0081  1.8385  1.0520
 6153TIP3    H240095   3.110   6.685   0.272 -0.5798 -0.3297  1.3434
 6154TIP3   OH240096   4.016   4.253   1.677  0.2578  0.0739 -0.1969
 6154TIP3    H140097   4.082   4.228   1.742 -0.1114  0.2118  0.2309
 6154TIP3    H240098   4.008   4.348   1.685 -0.7229 -0.0459  0.4654
 6155TIP3   OH240099   6.007   5.884   1.809  0.1991 -0.1352  0.1586
 6155TIP3    H140100   6.044   5.799   1.786  0.2375  0.1076 -0.7267
 6155TIP3    H240101   6.036   5.900   1.899 -0.7561 -1.5622  0.7506
 6156TIP3   OH240102   5.422   4.186   8.370 -0.1554  0.1035  0.1708
 6156TIP3    H140103   5.493   4.247   8.388  0.5216 -0.4942 -0.4349
 6156TIP3    H240104   5.375   4.226   8.297  0.3676 -0.1618 -0.3149
 6157TIP3   OH240105   2.702   5.839   2.361  0.0027 -0.1571  0.1022
 6157TIP3    H140106   2.645   5.767   2.387  0.2207 -0.0367  0.9329
 6157TIP3    H240107   2.652   5.886   2.294 -0.3558 -0.7685 -0.0629
 6158TIP3   OH240108   1.920   5.666   7.465  0.9684 -0.6765  0.4330
 6158TIP3    H140109   1.944   5.755   7.440  1.1818 -0.7745  0.2816
 6158TIP3    H240110   1.947   5.658   7.556 -1.1174  0.1540  1.1800
 6159TIP3   OH240111   1.073   1.910   7.360 -0.2438  0.0852 -0.2772
 6159TIP3    H140112   1.128   1.873   7.291 -0.4697 -1.9324  0.5487
 6159TIP3    H240113   1.127   1.904   7.439 -0.1083  2.0577 -0.1795
 6160TIP3   OH240114   3.577   5.680   8.681 -0.1228 -0.0175 -0.1776
 6160TIP3    H140115   3.654   5.683   8.738  0.1643 -0.9816 -0.4913
 6160TIP3    H240116   3.508   5.644   8.738  0.1644 -0.9823 -0.4184
 6161TIP3   OH240117   1.788   5.173   8.817 -0.0454 -0.2267  0.4177
 6161TIP3    H140118   1.783   5.267   8.830  1.6040  0.0457 -0.6652
 6161TIP3    H240119   1.805   5.137   8.904 -0.5396  0.4597  0.8094
 6162TIP3   OH240120   3.594   5.070   0.326 -0.3099  0.3539  0.0673
 6162TIP3    H140121   3.592   5.111   0.240  1.3498  0.9977  0.2998
 6162TIP3    H240122   3.602   4.976   0.308 -1.4874  0.3338 -0.4573
 6163TIP3   OH240123   1.204   1.330   0.641 -0.2363  0.0213 -0.3314
 6163TIP3    H140124   1.300   1.329   0.651 -0.4442 -0.5208  3.2077
 6163TIP3    H240125   1.181   1.422   0.641  0.1964  0.2447  2.5465
 6164TIP3   OH240126   2.776   0.835   0.178  0.5976 -0.0826 -0.4276
 6164TIP3    H140127   2.778   0.740   0.188 -3.5977 -0.1779  1.5986
 6164TIP3    H240128   2.831   0.868   0.249  0.4997 -0.9872  0.0750
 6165TIP3   OH240129   5.517   6.680   7.848 -0.2973  0.2598 -0.2270
 6165TIP3    H140130   5.428   6.715   7.840  0.1262  1.4233 -0.0736
 6165TIP3    H240131   5.556   6.693   7.762  0.0459  0.6931 -0.0117
 6166TIP3   OH240132   5.415   3.423   1.078 -0.6262  0.1777 -0.3731
 6166TIP3    H140133   5.389   3.409   1.169  1.6616  0.3745  0.3677
 6166TIP3    H240134   5.370   3.353   1.030 -0.3245 -1.1794  1.2094
 6167TIP3   OH240135   2.294   4.246   0.351 -0.1206 -0.6899 -0.0904
 6167TIP3    H140136   2.263   4.321   0.403  0.0479  0.8862 -2.1516
 6167TIP3    H240137   2.250   4.171   0.391 -2.2669  0.7920  0.5621
 6168TIP3   OH240138   4.343   4.636   0.113 -0.3259  0.6537 -0.1690
 6168TIP3    H140139   4.432   4.630   0.148  0.0189 -0.5203 -1.1762
 6168TIP3    H240140   4.293   4.679   0.182  1.1582  1.9798  0.1394
 6169TIP3   OH240141   2.719   4.758   6.911  0.3485 -0.2245  0.2785
 6169TIP3    H140142   2.658   4.685   6.897  1.3604 -1.1235  0.4095
 6169TIP3    H240143   2.738   4.791   6.824 -1.0907  0.7468  0.2888
 6170TIP3   OH240144   3.061   0.666   1.463  0.0647 -0.2798  0.0589
 6170TIP3    H140145   3.058   0.626   1.549  1.7865 -0.4844  0.0467
 6170TIP3    H240146   3.124   0.614   1.413 -2.0254 -1.1464 -1.8659
 6171TIP3   OH240147   1.513   5.561   7.068 -0.4888 -0.1059  0.6967
 6171TIP3    H140148   1.591   5.538   7.118 -1.8713 -0.5388  2.8110
 6171TIP3    H240149   1.477   5.638   7.113 -0.9474  0.5053 -0.6351
 6172TIP3   OH240150   2.654   2.427   1.048  0.0324  0.4496  0.3875
 6172TIP3    H140151   2.747   2.418   1.029  0.5553  2.4884  1.6106
 6172TIP3    H240152   2.650   2.489   1.121 -2.3096  1.0037 -0.1090
 6173TIP3   OH240153   4.850   1.873   0.747  0.2926  0.5443  0.3446
 6173TIP3    H140154   4.815   1.787   0.727  0.7432  0.2387  0.8238
 6173TIP3    H240155   4.945   1.861   0.744  0.3584  1.0901  0.1407
 6174TIP3   OH240156   4.793   5.229   7.425 -0.4152  0.0097 -0.1282
 6174TIP3    H140157   4.812   5.169   7.353 -1.9259  0.0396 -0.5748
 6174TIP3    H240158   4.714   5.275   7.398 -0.4022  0.7861  1.0897
 6175TIP3   OH240159   5.554   5.803   7.125  0.1066 -0.6012 -0.6202
 6175TIP3    H140160   5.534   5.710   7.136 -0.1959 -0.4053  0.7636
 6175TIP3    H240161   5.615   5.822   7.196 -3.2253  1.1986  2.0444
 6176TIP3   OH240162   5.089   3.685   7.590  0.1021 -1.2696 -0.7637
 6176TIP3    H140163   5.010   3.710   7.542  0.8161 -1.2778 -1.9907
 6176TIP3    H240164   5.062   3.681   7.682 -0.6744  1.4870 -0.7870
 6177TIP3   OH240165   0.494   3.982   8.979 -0.0802  0.1294  0.0169
 6177TIP3    H140166   0.429   4.052   8.985 -0.2914 -0.1018  0.4361
 6177TIP3    H240167   0.565   4.020   8.926 -0.3173  0.5612  0.0024
 6178TIP3   OH240168   6.361   6.252   0.642 -0.4390  0.1448  0.1071
 6178TIP3    H140169   6.385   6.179   0.699 -1.1768  0.7569  1.2352
 6178TIP3    H240170   6.399   6.229   0.557 -0.9164 -1.7111  0.3369
 6179TIP3   OH240171   4.260   5.179   8.804  0.0530 -0.3737  0.1732
 6179TIP3    H140172   4.326   5.159   8.738  1.8714 -0.7555  2.0093
 6179TIP3    H240173   4.246   5.097   8.851  0.2767  0.2967  1.4821
 6180TIP3   OH240174   2.595   2.461   0.133  0.1851 -0.1497  0.2552
 6180TIP3    H140175   2.585   2.544   0.179  1.0199  0.6944 -1.0331
 6180TIP3    H240176   2.634   2.484   0.049  0.7072 -1.8799 -0.0211
 6181TIP3   OH240177   2.204   0.854   0.714  0.2097  0.2490 -0.2283
 6181TIP3    H140178   2.231   0.911   0.786  1.3160 -0.0890 -0.3614
 6181TIP3    H240179   2.283   0.806   0.690 -0.0259  0.6184 -1.9085
 6182TIP3   OH240180   5.844   4.983   8.557 -0.1516 -0.1223  0.5351
 6182TIP3    H140181   5.754   4.971   8.586 -0.0465 -0.6921  0.6411
 6182TIP3    H240182   5.851   5.077   8.537 -0.7184 -0.0479  0.6770
 6183TIP3   OH240183   0.728   6.536   7.626  0.1246 -0.1953  0.3096
 6183TIP3    H140184   0.724   6.632   7.630  0.9614 -0.1003 -0.7047
 6183TIP3    H240185   0.637   6.508   7.634 -0.1633  0.7086  0.2966
 6184TIP3   OH240186   4.390   6.213   6.625  0.1068  0.7438  0.4003
 6184TIP3    H140187   4.465   6.255   6.582 -0.8440  0.7250 -1.3715
 6184TIP3    H240188   4.400   6.120   6.607 -0.7956  0.8296 -0.6488
 6185TIP3   OH240189   3.554   5.347   1.940 -0.5493 -0.5144 -0.1350
 6185TIP3    H140190   3.586   5.437   1.939 -0.1857 -0.6435 -0.3609
 6185TIP3    H240191   3.593   5.307   1.862 -2.0139 -0.4247 -0.9402
 6186TIP3   OH240192   4.749   6.623   8.943 -0.1302 -0.1176 -0.0584
 6186TIP3    H140193   4.760   6.569   8.865 -0.4536  0.2889 -0.3875
 6186TIP3    H240194   4.663   6.600   8.977  0.2301 -0.6840  0.4870
 6187TIP3   OH240195   0.238   6.170   1.474  0.3441 -0.2770 -0.0325
 6187TIP3    H140196   0.291   6.148   1.551  0.3250 -1.1389 -0.2509
 6187TIP3    H240197   0.271   6.112   1.405  1.1322  1.2712 -1.0099
 6188TIP3   OH240198   3.999   1.290   1.677 -0.0751  0.4419 -0.0940
 6188TIP3    H140199   3.984   1.369   1.729  1.4118 -0.1331  1.3099
 6188TIP3    H240200   4.045   1.321   1.600  2.0898  0.8283  1.2654
 6189TIP3   OH240201   4.103   4.932   1.834 -0.2400  1.0285  0.1691
 6189TIP3    H140202   4.168   4.949   1.901  1.6683 -1.8881 -0.7694
 6189TIP3    H240203   4.153   4.903   1.758 -2.5712 -1.4033 -0.5960
 6190TIP3   OH240204   3.195   4.222   0.248 -0.2686  0.4736 -0.0467
 6190TIP3    H140205   3.150   4.261   0.322  0.1135 -1.6357  1.3867
 6190TIP3    H240206   3.225   4.137   0.280 -1.5275 -1.2971 -3.0916
 6191TIP3   OH240207   5.885   5.916   1.428 -0.1684 -0.6373 -0.1393
 6191TIP3    H140208   5.933   5.993   1.397  0.2963 -1.6374 -2.0841
 6191TIP3    H240209   5.793   5.940   1.420 -0.0269  0.1645  0.5382
 6192TIP3   OH240210   5.894   0.165   8.942 -0.0972  0.3521 -0.2118
 6192TIP3    H140211   5.981   0.190   8.913 -0.3549  3.2013  1.1612
 6192TIP3    H240212   5.908   0.087   8.996  1.3791 -0.0901 -1.1984
 6193TIP3   OH240213   0.010   0.025   8.816  0.3940 -0.3322 -0.4430
 6193TIP3    H140214   0.019   0.120   8.813  1.0062 -0.3537  0.2203
 6193TIP3    H240215  -0.016  -0.000   8.728  0.6176  0.4152 -0.7284
 6194TIP3   OH240216   3.793   6.379   6.977  0.1844  0.5321  0.4630
 6194TIP3    H140217   3.748   6.317   6.919  1.6727  0.9384 -1.2108
 6194TIP3    H240218   3.754   6.464   6.955 -1.0051  0.4012  1.9004
 6195TIP3   OH240219   5.567   2.529   7.283  0.0566 -0.3037  0.2887
 6195TIP3    H140220   5.520   2.479   7.349 -0.3640  2.3509  2.1729
 6195TIP3    H240221   5.512   2.523   7.205 -0.5700 -1.7090  0.8050
 6196TIP3   OH240222   4.359   4.352   7.788 -0.4918  0.1730  0.1955
 6196TIP3    H140223   4.269   4.331   7.763 -0.3513  1.1853 -1.2761
 6196TIP3    H240224   4.362   4.334   7.882 -1.3327 -2.8750 -0.2279
 6197TIP3   OH240225   2.036   6.451   0.559  0.0217  0.1792  0.2597
 6197TIP3    H140226   2.015   6.513   0.628  0.3050  0.8071 -0.2101
 6197TIP3    H240227   2.008   6.494   0.478  0.3604 -0.2348 -0.0876
 6198TIP3   OH240228   5.368   1.407   8.020 -0.4982 -0.1901  0.0594
 6198TIP3    H140229   5.415   1.326   7.999 -0.0091 -0.1458  0.9282
 6198TIP3    H240230   5.324   1.388   8.103  0.3434  0.7121  0.7290
 6199TIP3   OH240231   1.572   5.137   2.306 -0.1364  0.1997 -0.0139
 6199TIP3    H140232   1.565   5.085   2.226  0.5626 -0.8310  0.5732
 6199TIP3    H240233   1.630   5.086   2.363  0.9630  1.8416  0.4119
 6200TIP3   OH240234   0.845   6.516   0.961  0.0594 -0.3528 -0.3717
 6200TIP3    H140235   0.918   6.474   1.007 -1.0414  0.0972  1.8956
 6200TIP3    H240236   0.824   6.593   1.014 -2.6628 -0.9604 -0.4234
 6201TIP3   OH240237   0.104   2.724   8.073  1.0156 -0.0332 -0.3930
 6201TIP3    H140238   0.162   2.799   8.065  1.1459 -0.0200  0.5227
 6201TIP3    H240239   0.028   2.757   8.122 -0.2895  0.2240 -2.4582
 6202TIP3   OH240240   1.477   2.433   2.622 -0.1609  0.5819 -0.4010
 6202TIP3    H140241   1.475   2.514   2.674  1.9109  0.7770 -0.5393
 6202TIP3    H240242   1.387   2.401   2.624 -0.2535  0.7078  3.1092
 6203TIP3   OH240243   0.024   3.960   8.693 -0.4088  0.5103 -0.1671
 6203TIP3    H140244   0.020   3.933   8.785 -0.8625 -0.8321 -0.5584
 6203TIP3    H240245  -0.036   4.033   8.686 -0.7709  0.2814  0.5046
 6204TIP3   OH240246   5.949   6.285   8.918 -0.1351 -0.3357 -0.3000
 6204TIP3    H140247   5.868   6.236   8.926  0.4320 -1.3749 -0.7337
 6204TIP3    H240248   5.957   6.305   8.825 -1.3642  2.4071  0.0767
 6205TIP3   OH240249   4.515   3.504   6.677 -0.3484 -0.7777 -0.1878
 6205TIP3    H140250   4.497   3.516   6.770  0.6671 -0.0004 -0.0664
 6205TIP3    H240251   4.437   3.538   6.632 -1.5467 -2.6443  0.3807
 6206TIP3   OH240252   4.543   2.499   8.008 -0.3856  0.3025  0.4019
 6206TIP3    H140253   4.548   2.575   7.950 -0.9002  0.4401  0.5294
 6206TIP3    H240254   4.531   2.536   8.095  1.8291  0.1438  0.8311
 6207TIP3   OH240255   1.012   2.425   8.576  0.6767 -0.1603  0.2361
 6207TIP3    H140256   0.982   2.499   8.630  2.1657  0.9588 -0.4055
 6207TIP3    H240257   1.037   2.465   8.492 -0.7144 -1.7318 -1.0127
 6208TIP3   OH240258   4.503   6.719   6.717  0.0554 -0.1853  0.1373
 6208TIP3    H140259   4.493   6.707   6.623  1.0579 -0.4314  0.0541
 6208TIP3    H240260   4.477   6.810   6.733 -2.1361 -0.7042 -0.0466
 6209TIP3   OH240261   0.439   0.432   7.390 -0.3177 -0.3225 -0.0025
 6209TIP3    H140262   0.486   0.410   7.470  2.2666  2.1340 -0.6624
 6209TIP3    H240263   0.410   0.522   7.404 -0.8375 -0.2582 -1.3623
 6210TIP3   OH240264   5.095   5.637   7.013 -0.6063 -0.3597  0.0837
 6210TIP3    H140265   5.097   5.728   6.982 -0.3957 -0.3494  0.1291
 6210TIP3    H240266   5.004   5.623   7.040 -0.7441 -0.3007 -0.3411
 6211TIP3   OH240267   3.790   3.535   0.681 -0.4886  0.2035 -0.4851
 6211TIP3    H140268   3.846   3.569   0.612 -0.4054  1.8883  0.3788
 6211TIP3    H240269   3.703   3.531   0.642  0.0325 -1.7853 -1.6138
 6212TIP3   OH240270   3.464   6.519   8.120 -0.2281  0.4914 -0.0619
 6212TIP3    H140271   3.418   6.462   8.059 -1.3230  1.2972 -0.0194
 6212TIP3    H240272   3.486   6.597   8.069 -0.5760  0.8964  0.3991
 6213TIP3   OH240273   6.488   1.659   1.766  0.1795 -0.2747  0.1274
 6213TIP3    H140274   6.497   1.678   1.672  3.0286  0.2365  0.4349
 6213TIP3    H240275   6.559   1.707   1.807 -0.4185 -1.2736  2.4703
 6214TIP3   OH240276   0.568   3.108   7.134  0.0597  0.0868 -0.4042
 6214TIP3    H140277   0.577   3.104   7.229 -0.1776 -0.6473 -0.3997
 6214TIP3    H240278   0.641   3.162   7.105 -1.9782  3.6050  0.4707
 6215TIP3   OH240279   3.452   0.006   6.765  0.2495 -0.2686 -0.0290
 6215TIP3    H140280   3.485  -0.077   6.798  0.3875 -0.7511 -1.3253
 6215TIP3    H240281   3.447  -0.006   6.670 -3.0905 -0.0455  0.0030
 6216TIP3   OH240282   3.777   0.619   7.799  0.0712 -0.3587 -0.1940
 6216TIP3    H140283   3.736   0.592   7.717 -2.6123  0.9420  0.6324
 6216TIP3    H240284   3.798   0.711   7.787 -0.7109 -0.0508  0.6929
 6217TIP3   OH240285   1.705   6.653   0.649  0.1893 -0.0692  0.4362
 6217TIP3    H140286   1.654   6.573   0.658 -1.7213  0.9449 -0.7859
 6217TIP3    H240287   1.779   6.641   0.709 -1.8873 -1.2751  2.9588
 6218TIP3   OH240288   2.402   2.877   0.839  0.1632  0.1463  0.0085
 6218TIP3    H140289   2.494   2.890   0.817  0.2132 -2.3984 -1.7320
 6218TIP3    H240290   2.357   2.953   0.801  1.6194  2.3367  2.3828
 6219TIP3   OH240291   2.018   1.504   1.752 -0.2967 -0.2718  0.2970
 6219TIP3    H140292   1.961   1.568   1.709  1.1109  1.6216  1.1163
 6219TIP3    H240293   1.981   1.496   1.840  0.2192  0.3423  0.5733
 6220TIP3   OH240294   5.623   5.929   1.387 -0.2511  0.3424 -0.0774
 6220TIP3    H140295   5.568   5.911   1.311 -0.9865 -1.1672  0.7672
 6220TIP3    H240296   5.574   5.992   1.438 -0.4915  0.1592 -0.0810
 6221TIP3   OH240297   4.746   6.623   7.100 -0.4042  0.3881  0.3522
 6221TIP3    H140298   4.677   6.588   7.044  0.0952  0.1521 -0.1177
 6221TIP3    H240299   4.757   6.556   7.168 -0.6690  0.4496  0.4576
 6222TIP3   OH240300   3.507   5.919   7.583 -0.6588 -0.5492 -0.0202
 6222TIP3    H140301   3.469   6.006   7.594 -0.5492 -0.4894 -0.1230
 6222TIP3    H240302   3.511   5.906   7.488 -1.8776 -1.1837 -0.0135
 6223TIP3   OH240303   1.380   6.077   1.536  0.1738  0.4644 -0.2376
 6223TIP3    H140304   1.419   6.163   1.554 -0.4361  0.7738 -0.3811
 6223TIP3    H240305   1.332   6.055   1.616  1.1514 -0.2121  0.1855
 6224TIP3   OH240306   4.424   1.261   1.366 -0.1133 -0.3863 -0.0755
 6224TIP3    H140307   4.337   1.270   1.328 -0.1743 -1.5311 -0.2376
 6224TIP3    H240308   4.453   1.351   1.382 -0.8388  0.0529 -1.1157
 6225TIP3   OH240309   0.527   3.611   0.180  0.0279 -0.3563  0.1518
 6225TIP3    H140310   0.482   3.583   0.101 -0.2402 -0.7083  0.4251
 6225TIP3    H240311   0.602   3.661   0.149 -0.6313  0.3716 -0.3175
 6226TIP3   OH240312   0.699   4.606   7.607 -0.1794  0.3637 -0.2217
 6226TIP3    H140313   0.635   4.675   7.622 -0.3283  0.3532 -0.7953
 6226TIP3    H240314   0.781   4.641   7.643 -0.4546  0.4667  0.3070
 6227TIP3   OH240315   2.676   1.268   0.270 -0.3811  0.1413 -0.0729
 6227TIP3    H140316   2.623   1.344   0.295 -1.1259  0.1785 -1.6564
 6227TIP3    H240317   2.765   1.302   0.263  0.2316 -0.1797  3.8591
 6228TIP3   OH240318   1.730   5.713   1.105 -0.2814  0.0954 -0.4838
 6228TIP3    H140319   1.771   5.786   1.151  0.2818 -0.0842 -0.6882
 6228TIP3    H240320   1.636   5.734   1.105 -0.1097  0.8916 -0.6774
 6229TIP3   OH240321   2.048   6.673   7.004 -0.6444 -0.2829 -0.0546
 6229TIP3    H140322   1.966   6.625   7.018 -0.3247 -0.7358  0.2778
 6229TIP3    H240323   2.117   6.610   7.027 -0.1303 -0.5751 -2.1532
 6230TIP3   OH240324   1.009   2.216   7.338 -0.1945  0.1187  0.1557
 6230TIP3    H140325   0.956   2.242   7.262  0.3366 -2.8506 -1.3936
 6230TIP3    H240326   0.990   2.123   7.349  0.5003  0.2207  3.1378
 6231TIP3   OH240327   1.025   5.689   8.241  0.3312 -0.8978  0.2944
 6231TIP3    H140328   0.962   5.720   8.176  0.6688 -0.3534  0.2189
 6231TIP3    H240329   1.099   5.750   8.233  1.1891 -1.9603 -0.1339
 6232TIP3   OH240330   3.031   4.103   1.456  0.2716  0.0311  0.0991
 6232TIP3    H140331   3.080   4.182   1.478 -1.2377  1.6648 -1.9535
 6232TIP3    H240332   2.940   4.133   1.449 -0.3923 -1.9579 -0.5312
 6233TIP3   OH240333   1.546   6.774   0.207  0.2324  0.0619 -0.1055
 6233TIP3    H140334   1.496   6.808   0.133  0.1518  0.9058  0.3212
 6233TIP3    H240335   1.481   6.728   0.260  0.5331 -1.7584 -1.2301
 6234TIP3   OH240336   1.601   0.693   2.296  0.6273  0.3123  0.5883
 6234TIP3    H140337   1.526   0.721   2.349  1.4260  0.3683  1.7256
 6234TIP3    H240338   1.677   0.729   2.342  1.3985 -0.3152 -0.1762
 6235TIP3   OH240339   3.773   6.325   8.836 -0.8915 -0.3433  0.3222
 6235TIP3    H140340   3.718   6.389   8.791  0.5776 -0.2474 -1.4403
 6235TIP3    H240341   3.745   6.330   8.927 -1.4522  2.1667  0.0977
 6236TIP3   OH240342   4.795   5.643   7.447  0.3529 -0.3261  0.0973
 6236TIP3    H140343   4.706   5.679   7.454  0.3624 -0.1645 -0.6076
 6236TIP3    H240344   4.785   5.552   7.474 -0.3864 -0.8204 -1.6905
 6237TIP3   OH240345   3.100   6.203   2.159 -0.4166  0.3728  0.5450
 6237TIP3    H140346   3.021   6.256   2.169 -2.5283 -2.1944 -1.2271
 6237TIP3    H240347   3.074   6.116   2.191  0.9225 -1.1180 -2.1298
 6238TIP3   OH240348   0.392   3.533   2.495 -0.4223  0.1868  0.1839
 6238TIP3    H140349   0.363   3.446   2.521 -2.7374  1.4599  2.2485
 6238TIP3    H240350   0.479   3.542   2.535  0.2328 -1.4523 -0.8084
 6239TIP3   OH240351   1.267   1.683   8.262 -0.4498  0.4611  0.5334
 6239TIP3    H140352   1.229   1.766   8.292 -3.2052 -0.2168 -0.7609
 6239TIP3    H240353   1.250   1.621   8.333 -3.0610 -0.1224 -0.4960
 6240TIP3   OH240354   4.563   4.101   1.620  0.2179  0.5918  0.2310
 6240TIP3    H140355   4.654   4.074   1.620 -0.4297 -1.8804  0.9680
 6240TIP3    H240356   4.531   4.075   1.533 -0.4824 -1.4741  1.0450
 6241TIP3   OH240357   1.979   0.951   1.239 -0.0179  0.1694  0.1817
 6241TIP3    H140358   1.921   0.881   1.207  0.9227 -0.6112  0.1276
 6241TIP3    H240359   1.964   1.024   1.179 -0.9533 -0.0149  0.1802
 6242TIP3   OH240360   1.493   0.360   7.671  0.0465  0.1500  0.3505
 6242TIP3    H140361   1.589   0.364   7.661  0.4001  0.4180  3.1703
 6242TIP3    H240362   1.473   0.425   7.738 -2.1522  0.0947 -0.1862
 6243TIP3   OH240363   5.846   1.078   0.446 -0.7323  0.1320 -0.2357
 6243TIP3    H140364   5.932   1.036   0.454 -0.3378  0.1000 -3.4655
 6243TIP3    H240365   5.806   1.066   0.532  1.5730 -1.9131  0.6801
 6244TIP3   OH240366   5.911   5.310   7.254  0.8443 -0.1946  0.2193
 6244TIP3    H140367   5.847   5.292   7.186  1.1083 -0.6504  0.0931
 6244TIP3    H240368   5.892   5.400   7.281  2.7151  1.2499 -2.6675
 6245TIP3   OH240369   0.487   6.143   1.183 -0.6458 -0.3342  0.1055
 6245TIP3    H140370   0.524   6.063   1.146 -0.8918  0.8577 -3.0531
 6245TIP3    H240371   0.409   6.115   1.230  0.0966 -2.0793  0.3495
 6246TIP3   OH240372   5.850   5.745   1.219 -0.1831 -0.2156 -0.1625
 6246TIP3    H140373   5.863   5.832   1.181 -0.7640  0.2071  0.5771
 6246TIP3    H240374   5.878   5.753   1.310 -0.6530 -0.6746  0.0324
 6247TIP3   OH240375   0.675   1.153   2.077 -0.3270 -0.2484 -0.1509
 6247TIP3    H140376   0.749   1.166   2.136  0.0047 -1.0984 -0.3703
 6247TIP3    H240377   0.642   1.066   2.098  0.1411 -0.7968 -1.5723
 6248TIP3   OH240378   3.483   1.902   0.786 -0.7267  0.3343  0.5053
 6248TIP3    H140379   3.399   1.873   0.752 -0.5842  0.8708 -0.3352
 6248TIP3    H240380   3.505   1.839   0.855 -1.1885 -0.5769 -0.1759
 6249TIP3   OH240381   1.120   4.374   6.675 -0.2789 -0.3910 -0.5222
 6249TIP3    H140382   1.188   4.442   6.674 -0.6002 -0.0168 -2.4999
 6249TIP3    H240383   1.168   4.292   6.675  0.1178 -0.2019  1.3340
 6250TIP3   OH240384   0.815   4.411   1.253 -0.5430  0.2899 -0.1240
 6250TIP3    H140385   0.798   4.318   1.268  1.8297 -0.2374 -0.3360
 6250TIP3    H240386   0.895   4.430   1.303 -1.5455  2.5070  0.7714
 6251TIP3   OH240387   0.197   5.137   1.309  0.6093 -0.6951  0.0169
 6251TIP3    H140388   0.291   5.133   1.328  0.4151 -3.6450  0.9170
 6251TIP3    H240389   0.183   5.069   1.244 -0.7733  0.4645 -0.9459
 6252TIP3   OH240390   0.969   3.917   1.470 -0.1755  0.4595  0.0816
 6252TIP3    H140391   0.990   3.849   1.534 -0.2783 -0.6002 -0.9748
 6252TIP3    H240392   0.940   3.991   1.523 -0.0408 -0.3043  1.2700
 6253TIP3   OH240393   5.598   5.658   1.134  0.5017  0.1227 -0.0700
 6253TIP3    H140394   5.686   5.695   1.136 -0.1019  1.6190  1.0320
 6253TIP3    H240395   5.542   5.729   1.167 -1.0774 -0.8873 -0.4848
 6254TIP3   OH240396   1.375   5.756   7.241  0.7153 -0.6528 -0.3105
 6254TIP3    H140397   1.299   5.743   7.297 -0.6201  1.2233 -1.5485
 6254TIP3    H240398   1.408   5.843   7.264  1.1177 -0.5178 -1.3198
 6255TIP3   OH240399   3.248   6.453   0.171  0.9169  0.4036 -0.5757
 6255TIP3    H140400   3.180   6.515   0.198  0.4824 -0.1697 -0.3284
 6255TIP3    H240401   3.330   6.494   0.200  0.4347 -0.7166  2.9100
 6256TIP3   OH240402   6.260   4.921   1.023  0.1547  0.7051  0.2331
 6256TIP3    H140403   6.289   4.845   1.074  0.5397 -0.3224 -1.4509
 6256TIP3    H240404   6.261   4.993   1.086 -0.6465 -0.7348  2.0025
 6257TIP3   OH240405   5.104   4.895   0.604 -0.7142  0.1127  0.1422
 6257TIP3    H140406   5.097   4.908   0.699  0.4664 -0.9407  0.3860
 6257TIP3    H240407   5.159   4.967   0.574  2.0479 -1.5528  0.8461
 6258TIP3   OH240408   2.200   1.143   0.198 -0.0162 -0.1107 -0.3955
 6258TIP3    H140409   2.292   1.140   0.171  0.4118  0.6566  0.8923
 6258TIP3    H240410   2.202   1.119   0.291 -1.0279  0.6939 -0.1506
 6259TIP3   OH240411   0.183   0.725   8.004 -0.5162  0.1632 -0.6402
 6259TIP3    H140412   0.124   0.652   7.984 -0.0939 -0.1440 -0.7789
 6259TIP3    H240413   0.145   0.800   7.958 -0.3337 -0.2203 -1.4242
 6260TIP3   OH240414   3.677   2.787   6.989  0.5457  0.2783 -0.1391
 6260TIP3    H140415   3.632   2.724   7.044 -0.4456  1.1091  0.0238
 6260TIP3    H240416   3.698   2.739   6.909 -1.5742  0.1152 -0.6570
 6261TIP3   OH240417   3.937   1.926   0.757  0.4797  0.1654  0.5007
 6261TIP3    H140418   3.864   1.980   0.727  1.3727  1.2108  0.1473
 6261TIP3    H240419   3.998   1.987   0.798  0.9405 -0.7546  1.2340
 6262TIP3   OH240420   2.669   3.639   6.926 -0.0174 -0.0447  0.3410
 6262TIP3    H140421   2.599   3.654   6.863  0.7040  0.7426 -0.3046
 6262TIP3    H240422   2.710   3.725   6.937  1.4096 -0.6505  0.0101
 6263TIP3   OH240423   4.803   6.327   7.196  0.3486  0.4232 -0.1751
 6263TIP3    H140424   4.721   6.320   7.245  0.7203 -3.3648  0.2387
 6263TIP3    H240425   4.783   6.292   7.109  1.3228  0.0629 -0.2773
 6264TIP3   OH240426   2.364   3.162   7.213 -0.1900  0.2880 -0.0571
 6264TIP3    H140427   2.287   3.146   7.268 -0.1969  1.7722  0.4247
 6264TIP3    H240428   2.330   3.173   7.125 -0.3504 -0.5924 -0.1100
 6265TIP3   OH240429   0.032   5.657   1.569 -0.6496 -0.1943  0.3062
 6265TIP3    H140430   0.010   5.745   1.539  0.3036  0.5401  1.6640
 6265TIP3    H240431   0.052   5.667   1.662  1.8129 -1.3843 -0.0157
 6266TIP3   OH240432   1.918   3.990   1.205 -0.3358 -0.0912  0.8469
 6266TIP3    H140433   1.887   3.900   1.213  1.4134 -0.6441  2.0467
 6266TIP3    H240434   1.956   3.996   1.118  2.3597 -1.5260  1.8299
 6267TIP3   OH240435   0.120   4.693   7.355  0.2107  0.1151  0.2198
 6267TIP3    H140436   0.069   4.660   7.429 -1.5425 -0.6709 -1.2341
 6267TIP3    H240437   0.151   4.614   7.310 -1.0153  0.4409 -1.3125
 6268TIP3   OH240438   5.385   2.517   1.120 -0.4630 -0.5775  0.3681
 6268TIP3    H140439   5.372   2.604   1.083 -0.6134 -0.1856  1.3308
 6268TIP3    H240440   5.300   2.494   1.159  0.0070 -0.4938  1.4759
 6269TIP3   OH240441   5.216   2.043   1.366  0.4001  0.1554 -0.1674
 6269TIP3    H140442   5.216   2.059   1.271  3.2509  2.5609  0.1062
 6269TIP3    H240443   5.166   2.116   1.403 -0.7658 -0.8135  0.2351
 6270TIP3   OH240444   1.824   0.161   7.639  0.1418  0.1124 -0.0429
 6270TIP3    H140445   1.875   0.112   7.574 -0.5688  0.5921 -0.9888
 6270TIP3    H240446   1.882   0.231   7.667  1.5864 -1.7878  2.1280
 6271TIP3   OH240447   6.156   5.194   2.049  0.3584  0.0835 -0.3420
 6271TIP3    H140448   6.165   5.271   2.104  0.9373  0.0728 -0.4170
 6271TIP3    H240449   6.090   5.140   2.093 -0.4501  0.8637 -0.5741
 6272TIP3   OH240450   4.741   1.320   8.165  0.2561 -0.2918 -0.4855
 6272TIP3    H140451   4.767   1.230   8.182 -2.7470 -1.5133 -1.5643
 6272TIP3    H240452   4.725   1.357   8.252  0.6007 -1.1142 -0.0638
 6273TIP3   OH240453   3.106   0.004   6.495  0.0977  0.7111  0.6531
 6273TIP3    H140454   3.077   0.093   6.474 -0.6225 -0.0004 -1.6431
 6273TIP3    H240455   3.028  -0.040   6.529  0.2978  0.7720  1.1979
 6274TIP3   OH240456   0.092   0.970   7.865  0.5733 -0.0236  0.1316
 6274TIP3    H140457   0.108   0.946   7.774  1.7156 -1.1048  0.5925
 6274TIP3    H240458  -0.003   0.982   7.870  0.2260 -2.0815 -0.7062
 6275TIP3   OH240459   6.071   1.816   7.737  0.0680  0.0438  0.6621
 6275TIP3    H140460   6.041   1.730   7.764  2.1707 -0.5139  1.3732
 6275TIP3    H240461   6.065   1.814   7.641 -1.9933 -0.0272  0.7384
 6276TIP3   OH240462   0.153   3.198   7.524 -0.0931  0.2102 -0.3894
 6276TIP3    H140463   0.088   3.133   7.497  0.7613 -0.7365 -0.2423
 6276TIP3    H240464   0.104   3.259   7.580 -1.3701  0.9057 -2.1610
 6277TIP3   OH240465   1.085   6.261   0.134 -0.1240  0.2102  0.7971
 6277TIP3    H140466   1.104   6.196   0.202  1.2065 -0.8356 -0.4905
 6277TIP3    H240467   1.120   6.343   0.169  0.7689 -0.3607  1.2993
 6278TIP3   OH240468   0.003   6.280   1.358 -0.2380 -0.8156 -0.5212
 6278TIP3    H140469  -0.012   6.272   1.264  0.0730 -0.5912 -0.5901
 6278TIP3    H240470   0.091   6.247   1.371 -0.3175 -0.9399 -0.2930
 6279TIP3   OH240471   2.192   1.358   7.188  0.1377  0.1590  0.4196
 6279TIP3    H140472   2.185   1.430   7.126  0.3874 -0.4980 -0.3925
 6279TIP3    H240473   2.281   1.365   7.223  0.0141  0.5031  0.6628
 6280TIP3   OH240474   4.622   2.850   7.409 -0.0954 -0.0556 -0.1546
 6280TIP3    H140475   4.650   2.928   7.362 -1.8474  0.5481 -0.3012
 6280TIP3    H240476   4.588   2.884   7.492  0.6938 -0.8519  0.5061
 6281TIP3   OH240477   3.378   4.662   8.554  0.2380  0.4917  0.1555
 6281TIP3    H140478   3.301   4.625   8.511 -0.0264 -0.9019  1.7230
 6281TIP3    H240479   3.350   4.748   8.584 -0.5531  0.2182  0.2258
 6282TIP3   OH240480   6.255   2.292   1.437 -0.9326  0.3104  0.0959
 6282TIP3    H140481   6.350   2.295   1.423 -1.1069  4.6571 -1.3551
 6282TIP3    H240482   6.218   2.283   1.350 -1.8983  0.0151  0.5239
 6283TIP3   OH240483   0.339   0.519   0.568 -0.0786  0.0114 -0.4878
 6283TIP3    H140484   0.274   0.474   0.622  0.1459  0.6326  0.3198
 6283TIP3    H240485   0.288   0.570   0.505 -0.3469 -0.3497 -0.5648
 6284TIP3   OH240486   2.241   0.592   1.152  0.1958  0.2678 -0.2606
 6284TIP3    H140487   2.289   0.674   1.140  0.8745 -0.0371  0.3225
 6284TIP3    H240488   2.219   0.564   1.064 -1.4302  1.8714 -0.4294
 6285TIP3   OH240489   5.151   3.371   0.665 -0.4641  0.3530  0.6156
 6285TIP3    H140490   5.144   3.446   0.607  0.7458  0.7682  0.9868
 6285TIP3    H240491   5.210   3.311   0.621  0.3275  0.5947  1.3214
 6286TIP3   OH240492   5.704   5.066   0.403 -0.0204  0.5286  0.3443
 6286TIP3    H140493   5.763   5.122   0.455  0.6876 -1.2181  1.5204
 6286TIP3    H240494   5.762   5.001   0.363 -0.5459  1.7934 -2.7569
 6287TIP3   OH240495   0.257   5.381   1.636 -0.1489 -0.2738 -0.0308
 6287TIP3    H140496   0.321   5.452   1.630  0.4895 -0.6347  1.8632
 6287TIP3    H240497   0.234   5.377   1.729 -0.5551 -2.2317 -0.1720
 6288TIP3   OH240498   3.205   5.310   7.606  0.4315 -0.1524 -0.2317
 6288TIP3    H140499   3.236   5.220   7.610  0.1046 -0.2676 -0.2165
 6288TIP3    H240500   3.189   5.326   7.513 -0.5259 -0.4718 -0.1395
 6289TIP3   OH240501   3.492   3.525   6.914  0.1909  0.3235  0.1006
 6289TIP3    H140502   3.504   3.449   6.857 -0.0732  0.7418 -0.5175
 6289TIP3    H240503   3.537   3.501   6.995  0.7323 -0.1948 -0.3467
 6290TIP3   OH240504   6.213   4.675   0.465  0.2000 -0.3881 -0.0132
 6290TIP3    H140505   6.130   4.632   0.448 -0.7106  0.9242  0.9308
 6290TIP3    H240506   6.276   4.603   0.471 -0.9087 -1.4278 -0.4039
 6291TIP3   OH240507   1.871   1.304   0.516  0.4857 -0.5694 -0.3051
 6291TIP3    H140508   1.819   1.245   0.571  0.3997 -0.0809  0.1439
 6291TIP3    H240509   1.955   1.310   0.560  0.2371  0.2488  0.0679
 6292TIP3   OH240510   0.970   4.370   6.906 -0.2372  0.0270  0.2500
 6292TIP3    H140511   0.946   4.289   6.951 -1.2522  0.1286 -0.0861
 6292TIP3    H240512   1.022   4.341   6.831  1.2004 -0.1620  1.2849
 6293TIP3   OH240513   0.208   1.389   1.727  0.2592  0.4115  0.2200
 6293TIP3    H140514   0.229   1.312   1.675  1.4647  0.0942  1.1174
 6293TIP3    H240515   0.292   1.436   1.736 -0.5448  2.1234 -0.7439
 6294TIP3   OH240516   2.637   2.019   1.276  0.5063 -0.0152  0.6558
 6294TIP3    H140517   2.680   2.099   1.306  0.1363 -0.6688  3.1804
 6294TIP3    H240518   2.689   1.948   1.316 -0.3380 -0.9750  0.0999
 6295TIP3   OH240519   5.131   6.518   7.032  0.0510 -0.0397  0.2876
 6295TIP3    H140520   5.182   6.580   7.084 -1.5700  0.7256  1.0348
 6295TIP3    H240521   5.165   6.528   6.943  1.5295  0.0611  0.8355
 6296TIP3   OH240522   6.035   1.237   8.306  0.2497  0.4215 -0.1804
 6296TIP3    H140523   6.115   1.185   8.297 -0.1791  0.1550 -3.9535
 6296TIP3    H240524   5.993   1.231   8.221 -2.1164  3.3513  0.6288
 6297TIP3   OH240525   0.056   2.844   8.642  0.1894 -0.2096 -0.8075
 6297TIP3    H140526   0.094   2.789   8.573 -0.9513 -0.9761 -0.8429
 6297TIP3    H240527   0.029   2.782   8.710  0.3888  0.4589 -0.1030
 6298TIP3   OH240528   1.631   0.729   8.599  0.4803  0.1285  0.6277
 6298TIP3    H140529   1.661   0.730   8.690  2.4328 -0.2068  0.0380
 6298TIP3    H240530   1.678   0.656   8.560  2.2627  2.2236 -1.4244
 6299TIP3   OH240531   6.617   4.475   8.456 -0.2442  0.2267  0.1354
 6299TIP3    H140532   6.696   4.448   8.408  0.3899  0.6037  0.9410
 6299TIP3    H240533   6.647   4.485   8.547 -1.4860 -0.7916  0.6910
 6300TIP3   OH240534   5.132   5.283   2.139 -0.1786  0.6585 -0.6472
 6300TIP3    H140535   5.175   5.351   2.087 -0.4564  1.1988 -0.1849
 6300TIP3    H240536   5.050   5.324   2.169  0.1327  0.4779  0.4928
 6301TIP3   OH240537   4.316   0.851   8.733  0.6483  0.1895  0.1180
 6301TIP3    H140538   4.298   0.875   8.643 -0.8846 -0.2276  0.2868
 6301TIP3    H240539   4.230   0.838   8.773  1.3027 -1.2834  1.1871
 6302TIP3   OH240540   1.246   0.315   0.175  0.3696  0.0286  0.2418
 6302TIP3    H140541   1.235   0.262   0.254  0.9229 -1.0865 -0.3967
 6302TIP3    H240542   1.341   0.316   0.159  0.1618 -1.8008 -1.6832
 6303TIP3   OH240543   3.096   4.164   8.670  0.3046 -0.1505  0.5118
 6303TIP3    H140544   3.113   4.083   8.717 -0.2252 -0.2333  0.5709
 6303TIP3    H240545   3.002   4.179   8.682  0.7511  1.7299  2.5917
 6304TIP3   OH240546   1.849   3.430   7.843  0.0401  0.6262  0.4906
 6304TIP3    H140547   1.879   3.507   7.892 -0.0392  0.1809  1.2568
 6304TIP3    H240548   1.917   3.415   7.778  0.0495  1.3578  0.3231
 6305TIP3   OH240549   4.380   4.859   7.001  0.5941 -0.4464  0.1543
 6305TIP3    H140550   4.356   4.907   6.922  2.0709 -1.2113 -0.8004
 6305TIP3    H240551   4.296   4.839   7.044 -0.2116  0.2129 -1.0621
 6306TIP3   OH240552   6.075   4.414   8.775  0.3875  0.2018  0.2439
 6306TIP3    H140553   6.119   4.341   8.820 -0.5433  0.3010  1.3679
 6306TIP3    H240554   5.984   4.386   8.769  0.2572  0.7571 -0.4264
 6307TIP3   OH240555   1.940   5.785   7.021 -0.9194  0.3752  0.1713
 6307TIP3    H140556   1.892   5.801   6.940 -1.8878 -0.5717  0.5304
 6307TIP3    H240557   1.964   5.692   7.017  0.3366  0.6741  0.3003
 6308TIP3   OH240558   2.254   2.489   1.101  0.0537  0.2195  0.0207
 6308TIP3    H140559   2.276   2.466   1.011 -1.5102 -0.1029 -0.3226
 6308TIP3    H240560   2.336   2.483   1.149  1.2545  1.9045 -1.6653
 6309TIP3   OH240561   1.816   2.001   7.079 -0.1494  0.1728  0.4058
 6309TIP3    H140562   1.783   1.965   6.996  0.5637 -0.4073  0.3593
 6309TIP3    H240563   1.761   2.077   7.096 -0.9149 -0.2503 -0.1187
 6310TIP3   OH240564   6.381   0.664   1.839 -0.2756 -0.0088  0.0986
 6310TIP3    H140565   6.296   0.622   1.825 -0.4630  0.3869  0.0367
 6310TIP3    H240566   6.361   0.744   1.887  0.0204  0.2643 -0.2236
 6311TIP3   OH240567   0.993   4.677   0.186 -0.2170 -0.2948 -0.5417
 6311TIP3    H140568   0.967   4.765   0.213 -0.5549 -0.5281 -0.0905
 6311TIP3    H240569   1.027   4.688   0.097 -1.0983  0.1617 -0.8366
 6312TIP3   OH240570   4.728   2.042   1.783  0.4570  0.2069 -0.3867
 6312TIP3    H140571   4.805   2.002   1.826  1.2723  1.6424 -0.4647
 6312TIP3    H240572   4.690   2.098   1.851  1.3621  1.9731 -1.2792
 6313TIP3   OH240573   0.867   2.797   2.078 -0.2280  0.3553 -0.1758
 6313TIP3    H140574   0.914   2.880   2.092 -0.1516  0.6401 -1.8666
 6313TIP3    H240575   0.930   2.741   2.032 -0.5492 -0.3570  0.2388
 6314TIP3   OH240576   0.879   3.926   0.337  0.6060  0.1425 -0.3098
 6314TIP3    H140577   0.958   3.887   0.374  0.6119  0.2090 -0.2518
 6314TIP3    H240578   0.858   3.998   0.396  0.5347  0.1610 -0.3575
 6315TIP3   OH240579   0.189   0.489   1.125 -0.2171 -0.1031  0.4164
 6315TIP3    H140580   0.216   0.397   1.128  0.6629 -0.0062 -2.1737
 6315TIP3    H240581   0.096   0.487   1.150 -0.4030 -1.7903 -0.2520
 6316TIP3   OH240582   1.188   2.967   8.385 -0.2207  0.4119 -0.2333
 6316TIP3    H140583   1.118   3.013   8.339  1.9812  1.9836 -2.2919
 6316TIP3    H240584   1.204   3.020   8.463  0.3513  1.6081 -1.1143
 6317TIP3   OH240585   5.061   5.883   7.864 -0.0956  0.5822  0.1228
 6317TIP3    H140586   5.119   5.811   7.889 -0.6191  0.0619 -0.1343
 6317TIP3    H240587   5.011   5.849   7.790 -0.3603  1.2094  0.0056
 6318TIP3   OH240588   0.750   0.431   0.828 -0.1237  0.2613 -0.6828
 6318TIP3    H140589   0.725   0.379   0.752 -0.7366 -0.5108  0.0305
 6318TIP3    H240590   0.701   0.513   0.817 -0.9643 -0.2212 -0.6465
 6319TIP3   OH240591   6.756   4.423   7.935 -0.0519 -0.1972 -0.3645
 6319TIP3    H140592   6.804   4.343   7.914  0.4539 -0.3916  1.4038
 6319TIP3    H240593   6.676   4.416   7.883  1.2992 -0.3790 -2.5437
 6320TIP3   OH240594   0.967   3.662   6.729  0.3747 -0.3963 -0.3458
 6320TIP3    H140595   0.922   3.660   6.645  2.3665 -0.5480 -1.4762
 6320TIP3    H240596   1.011   3.747   6.731  1.2891 -0.8598  0.0047
 6321TIP3   OH240597   3.286   1.347   7.779 -0.3163 -0.5433  0.2494
 6321TIP3    H140598   3.305   1.254   7.793 -0.1458 -0.7718 -1.3134
 6321TIP3    H240599   3.268   1.354   7.685 -0.6935  0.9465  0.4060
 6322TIP3   OH240600   3.235   6.662   8.958  0.8435  0.3214 -0.3187
 6322TIP3    H140601   3.311   6.637   8.906  3.4775 -1.9341  3.9630
 6322TIP3    H240602   3.184   6.581   8.966  0.8846  0.3994  1.0067
 6323TIP3   OH240603   4.652   3.475   0.199 -0.3789  0.5248 -0.2014
 6323TIP3    H140604   4.657   3.394   0.147 -0.6476  0.0940  0.4323
 6323TIP3    H240605   4.670   3.545   0.136  0.4956 -0.0666 -0.6374
 6324TIP3   OH240606   5.129   1.201   8.838 -0.0467 -0.2939 -0.1776
 6324TIP3    H140607   5.067   1.263   8.875 -0.1324 -0.7293  0.4234
 6324TIP3    H240608   5.147   1.235   8.750 -1.7772 -0.6268 -0.6893
 6325TIP3   OH240609   2.514   3.607   1.979 -0.5783  0.0579 -0.1174
 6325TIP3    H140610   2.603   3.581   1.999 -0.6359 -0.8059 -0.9231
 6325TIP3    H240611   2.460   3.533   2.007 -0.8431 -0.2922 -1.4727
 6326TIP3   OH240612   2.046   6.712   8.137  0.5248  0.1231  0.4172
 6326TIP3    H140613   2.110   6.665   8.084 -1.5436 -3.3222  0.6832
 6326TIP3    H240614   1.978   6.738   8.075 -0.8023 -1.9001  0.9505
 6327TIP3   OH240615   0.703   1.158   0.619 -0.4340 -0.0893 -0.0930
 6327TIP3    H140616   0.763   1.227   0.591 -0.0970 -0.4423 -0.2543
 6327TIP3    H240617   0.708   1.159   0.715  0.9512 -1.0739 -0.1274
 6328TIP3   OH240618   6.600   1.931   8.526 -0.3615  0.1708 -0.1714
 6328TIP3    H140619   6.667   1.928   8.457  0.1210  1.3620  0.2266
 6328TIP3    H240620   6.548   1.852   8.511 -0.7394  0.7592 -2.3676
 6329TIP3   OH240621   1.864   1.561   8.280  0.3714 -0.4206  0.2288
 6329TIP3    H140622   1.830   1.527   8.363 -2.2663  2.1306  0.3897
 6329TIP3    H240623   1.885   1.653   8.299 -0.3151  0.2318 -1.8688
 6330TIP3   OH240624   0.347   6.360   0.510  0.0606 -0.3692  0.0286
 6330TIP3    H140625   0.420   6.385   0.454 -0.2054 -2.7373 -1.4844
 6330TIP3    H240626   0.343   6.430   0.575  2.3237  0.9115 -1.0686
 6331TIP3   OH240627   0.993   4.393   1.457  0.3813 -0.4156  0.0486
 6331TIP3    H140628   1.043   4.384   1.538 -0.1054 -2.4097  0.1668
 6331TIP3    H240629   0.926   4.459   1.477  1.4364  0.5157  0.6329
 6332TIP3   OH240630   2.378   2.420   1.388 -0.2487  0.0479 -0.5713
 6332TIP3    H140631   2.320   2.352   1.422  1.0021  0.1902  2.1634
 6332TIP3    H240632   2.465   2.380   1.389  0.4451  1.4639  0.6841
 6333TIP3   OH240633   3.331   3.711   2.596  0.1334 -0.0284  0.5746
 6333TIP3    H140634   3.295   3.796   2.622  0.3531  0.6702 -1.3019
 6333TIP3    H240635   3.282   3.686   2.518  1.7049 -0.4497 -0.3263
 6334TIP3   OH240636   6.169   1.292   8.668  0.0898 -0.6679 -0.1695
 6334TIP3    H140637   6.131   1.374   8.699  2.1601 -0.0768  1.0704
 6334TIP3    H240638   6.142   1.227   8.732  1.3802 -0.1764  0.9221
 6335TIP3   OH240639   4.215   6.389   1.284  0.6758  0.4093  0.0757
 6335TIP3    H140640   4.155   6.380   1.210 -1.7144 -1.4163  2.0827
 6335TIP3    H240641   4.185   6.467   1.331  0.7044  0.2249  0.3995
 6336TIP3   OH240642   5.378   3.374   6.793 -0.3916 -0.4604  0.3814
 6336TIP3    H140643   5.371   3.445   6.730 -1.7764 -1.6719 -0.9120
 6336TIP3    H240644   5.471   3.369   6.815 -0.2236  1.5206  0.2906
 6337TIP3   OH240645   4.235   5.887   7.431 -0.3740  0.7016  0.4549
 6337TIP3    H140646   4.176   5.962   7.438  0.6967  1.6352 -0.0957
 6337TIP3    H240647   4.316   5.917   7.473 -0.1703 -0.4251  0.8910
 6338TIP3   OH240648   2.308   5.637   0.956  0.1486 -0.6592  0.5110
 6338TIP3    H140649   2.347   5.650   1.042  1.1207 -0.6177  0.0779
 6338TIP3    H240650   2.383   5.618   0.899 -0.2644  1.0915 -0.6910
 6339TIP3   OH240651   3.098   4.100   0.002  0.3220 -0.3481  0.2556
 6339TIP3    H140652   3.129   4.123   0.090  0.2011 -1.7581  0.6972
 6339TIP3    H240653   3.007   4.128   0.000  0.5610  0.4467  0.2750
 6340TIP3   OH240654   1.281   3.735   0.317  0.1673 -0.1204 -0.0925
 6340TIP3    H140655   1.347   3.672   0.286 -1.4744 -1.8810 -0.1975
 6340TIP3    H240656   1.249   3.777   0.237  0.8420  0.4560 -0.0753
 6341TIP3   OH240657   6.193   1.992   8.514 -0.7436 -0.1614 -0.3106
 6341TIP3    H140658   6.258   2.028   8.575 -1.5731  2.2351 -0.7448
 6341TIP3    H240659   6.144   1.928   8.566  0.2873 -0.1396  0.7335
 6342TIP3   OH240660   3.629   6.595   1.258 -0.5180 -0.1965 -0.3693
 6342TIP3    H140661   3.608   6.651   1.183  0.1786  0.7126  0.0945
 6342TIP3    H240662   3.653   6.657   1.327  0.1443 -1.0697  0.1944
 6343TIP3   OH240663   6.630   5.125   2.874 -0.2924  0.0643  0.0059
 6343TIP3    H140664   6.654   5.190   2.808 -1.0721 -1.7288 -2.1881
 6343TIP3    H240665   6.535   5.131   2.881 -0.4813 -1.3424 -0.8650
 6344TIP3   OH240666   2.836   5.765   0.574 -0.0069 -0.3706 -0.2595
 6344TIP3    H140667   2.776   5.691   0.570 -2.0709  1.2433 -1.3821
 6344TIP3    H240668   2.842   5.787   0.667  0.1183 -1.5155  0.0157
 6345TIP3   OH240669   1.696   3.721   7.614 -0.4047  0.0408  0.0564
 6345TIP3    H140670   1.679   3.800   7.666  0.7259  0.7526 -0.5948
 6345TIP3    H240671   1.638   3.655   7.650  0.8492  0.2788  2.7116
 6346TIP3   OH240672   0.836   5.432   6.704 -0.5226  0.2523  0.4870
 6346TIP3    H140673   0.743   5.420   6.685 -0.5154  0.6500  0.1900
 6346TIP3    H240674   0.881   5.384   6.636 -0.4983  1.5795 -0.4724
 6347TIP3   OH240675   3.235   0.281   1.164  0.0747 -0.2582  0.3581
 6347TIP3    H140676   3.238   0.343   1.237  0.7925 -0.9311  0.9301
 6347TIP3    H240677   3.312   0.226   1.178  0.4680 -0.1213 -1.1671
 6348TIP3   OH240678   2.320   3.655   8.770 -0.2351 -0.1557 -0.1184
 6348TIP3    H140679   2.402   3.622   8.734  0.3613 -1.3268  2.1042
 6348TIP3    H240680   2.251   3.617   8.716  0.6396  0.5653 -1.7987
 6349TIP3   OH240681   3.425   4.888   7.867 -0.4753 -0.3931  0.0577
 6349TIP3    H140682   3.483   4.907   7.941 -1.2596 -0.1585  0.6279
 6349TIP3    H240683   3.377   4.810   7.893 -2.8515  1.2891  1.1137
 6350TIP3   OH240684   0.122   2.600   8.846  0.3033  0.1989 -0.2291
 6350TIP3    H140685   0.044   2.557   8.882 -0.5545  0.6811 -1.4272
 6350TIP3    H240686   0.169   2.633   8.922  1.4788 -3.5376  0.8673
 6351TIP3   OH240687   5.158   0.174   7.483  0.2558 -0.0455 -0.5956
 6351TIP3    H140688   5.204   0.093   7.460  0.3807 -0.3701  0.7208
 6351TIP3    H240689   5.128   0.160   7.572 -0.8247  0.8844 -0.7972
 6352TIP3   OH240690   6.729   4.027   7.675  0.2335 -0.0784  0.0099
 6352TIP3    H140691   6.648   4.009   7.723  0.6985  0.3307  0.9716
 6352TIP3    H240692   6.788   4.065   7.740  0.8728  0.5356 -0.8928
 6353TIP3   OH240693   6.236   3.326   6.957  0.2850 -0.5057 -0.0161
 6353TIP3    H140694   6.300   3.314   7.027  0.3509  1.6837  0.3545
 6353TIP3    H240695   6.244   3.247   6.904  2.0369 -1.0785  1.0196
 6354TIP3   OH240696   3.957   5.107   1.135  0.1892  0.0160  0.0828
 6354TIP3    H140697   3.883   5.154   1.097 -0.1870  0.8927  1.7970
 6354TIP3    H240698   3.930   5.088   1.225  1.1021 -1.8337  0.0109
 6355TIP3   OH240699   0.703   2.300   8.326 -0.4710 -0.1493  0.7370
 6355TIP3    H140700   0.743   2.243   8.392  0.1964  1.1320  1.4586
 6355TIP3    H240701   0.758   2.378   8.324  0.7398 -0.8824 -2.7645
 6356TIP3   OH240702   2.935   4.226   0.710 -0.1075 -0.4546  0.1094
 6356TIP3    H140703   2.912   4.167   0.638  0.6756 -2.6542  1.5842
 6356TIP3    H240704   2.863   4.289   0.713 -0.6734 -0.9140 -1.9025
 6357TIP3   OH240705   4.790   4.038   7.623 -0.2282  0.2155 -0.0007
 6357TIP3    H140706   4.730   3.964   7.624 -0.4735  0.4090 -0.4626
 6357TIP3    H240707   4.853   4.019   7.693  0.2573 -0.8816 -0.7098
 6358TIP3   OH240708   3.664   0.561   1.528  0.3744 -0.2624  0.2253
 6358TIP3    H140709   3.643   0.626   1.596  1.1936  1.5740 -1.1868
 6358TIP3    H240710   3.756   0.579   1.506 -0.2735  0.2595 -2.4043
 6359TIP3   OH240711   1.450   5.854   8.621 -0.1460 -0.1953 -0.0101
 6359TIP3    H140712   1.383   5.791   8.593 -0.1559 -1.1022  1.8973
 6359TIP3    H240713   1.401   5.925   8.663 -0.1544  1.3009 -2.3784
 6360TIP3   OH240714   5.059   0.648   0.465 -0.1339  0.0673 -0.1372
 6360TIP3    H140715   5.117   0.576   0.486 -1.0127 -0.4732  0.5053
 6360TIP3    H240716   5.112   0.706   0.410  0.4495 -1.2601 -1.0303
 6361TIP3   OH240717   3.859   0.564   0.746 -0.2922 -0.8657 -0.4989
 6361TIP3    H140718   3.893   0.652   0.729  0.0556 -1.1643 -1.4188
 6361TIP3    H240719   3.935   0.506   0.732 -0.5532 -1.3230 -0.0455
 6362TIP3   OH240720   5.745   5.152   8.037  0.3214 -0.1437 -0.2733
 6362TIP3    H140721   5.663   5.131   7.993 -0.4142  1.5852  0.1955
 6362TIP3    H240722   5.721   5.167   8.128  1.2587 -0.2050 -0.0017
 6363TIP3   OH240723   6.750   4.173   7.154  0.4572  0.0739  0.2356
 6363TIP3    H140724   6.682   4.119   7.114  0.4470  0.9229 -0.9383
 6363TIP3    H240725   6.743   4.155   7.248 -0.0182 -1.3864 -0.0674
 6364TIP3   OH240726   5.949   0.430   1.919  0.0361  0.0594  0.3776
 6364TIP3    H140727   5.913   0.353   1.964 -0.1069 -0.1725 -0.1255
 6364TIP3    H240728   5.934   0.412   1.826  1.0712  0.1591  0.1794
 6365TIP3   OH240729   1.022   2.134   1.380 -0.5213  0.2233  0.3756
 6365TIP3    H140730   1.091   2.164   1.440 -0.8841 -0.4358  1.1386
 6365TIP3    H240731   0.948   2.191   1.399 -0.4819  0.3341  0.1999
 6366TIP3   OH240732   4.058   6.631   1.078 -0.0764  0.1866  0.4767
 6366TIP3    H140733   4.063   6.592   0.991 -0.8126  1.2087 -0.0361
 6366TIP3    H240734   4.146   6.666   1.094  0.2033 -0.4481  0.3800
 6367TIP3   OH240735   5.345   3.392   7.780  0.0766  0.0167 -0.6656
 6367TIP3    H140736   5.382   3.314   7.822  0.6054  0.7813  0.3231
 6367TIP3    H240737   5.368   3.382   7.687  0.3623 -0.8763 -0.5080
 6368TIP3   OH240738   3.636   5.100   6.454  0.1964 -0.4145  0.2183
 6368TIP3    H140739   3.701   5.071   6.390 -0.6680 -0.0498 -0.8565
 6368TIP3    H240740   3.677   5.175   6.497  0.0426  0.6017 -1.3243
 6369TIP3   OH240741   0.256   0.687   8.673 -0.1360  0.5535 -0.1646
 6369TIP3    H140742   0.236   0.680   8.766  0.0906 -0.1917 -0.1611
 6369TIP3    H240743   0.171   0.683   8.630 -0.1865  0.0249 -0.0260
 6370TIP3   OH240744   1.549   5.581   1.936  0.5085  0.1178  0.5611
 6370TIP3    H140745   1.617   5.532   1.889 -1.4655 -2.6040  0.2878
 6370TIP3    H240746   1.581   5.585   2.026  0.9542 -1.4170  0.5142
 6371TIP3   OH240747   2.824   5.287   0.528 -0.5155 -0.0587  0.0645
 6371TIP3    H140748   2.798   5.221   0.464  0.6936 -2.3302  1.7894
 6371TIP3    H240749   2.918   5.299   0.513 -0.3137 -0.2940  1.1255
 6372TIP3   OH240750   3.172   4.493   8.952 -0.1606  0.3316  0.2849
 6372TIP3    H140751   3.246   4.476   9.010  0.4637  2.3902  0.1733
 6372TIP3    H240752   3.197   4.453   8.869 -0.4005 -1.3282  0.9716
 6373TIP3   OH240753   0.724   4.529   0.109 -0.1533 -0.0982 -0.2632
 6373TIP3    H140754   0.668   4.589   0.160 -1.3345 -1.3179 -0.0613
 6373TIP3    H240755   0.810   4.571   0.108 -0.4261  0.5872  1.6335
 6374TIP3   OH240756   4.236   5.080   7.540  0.2476 -0.4380  0.4598
 6374TIP3    H140757   4.313   5.063   7.486  0.5399  2.1712 -0.0887
 6374TIP3    H240758   4.230   5.005   7.599  2.6903 -1.1050 -0.0620
 6375TIP3   OH240759   3.440   4.873   1.520  0.2873 -0.3301  0.1495
 6375TIP3    H140760   3.360   4.896   1.567 -0.7512 -3.1721  0.0013
 6375TIP3    H240761   3.410   4.842   1.435  1.7808  0.6452 -0.7718
 6376TIP3   OH240762   5.828   0.259   7.270 -0.6255  0.0695  0.0185
 6376TIP3    H140763   5.835   0.294   7.181 -0.1542  1.2963  0.5081
 6376TIP3    H240764   5.918   0.256   7.302 -0.7049 -1.2198  0.1507
 6377TIP3   OH240765   5.651   3.475   1.708  0.1955 -0.5240 -0.9961
 6377TIP3    H140766   5.671   3.452   1.617  1.8423  0.5066 -0.9400
 6377TIP3    H240767   5.626   3.567   1.704 -0.4392 -0.6715 -0.4881
 6378TIP3   OH240768   1.791   5.202   1.840 -0.0016  0.3247 -0.0768
 6378TIP3    H140769   1.796   5.289   1.801  1.2383  1.3110  2.1146
 6378TIP3    H240770   1.870   5.158   1.809  0.2128  0.5683  0.1203
 6379TIP3   OH240771   4.645   3.265   0.040 -0.4564  0.3596 -0.1702
 6379TIP3    H140772   4.689   3.191  -0.002 -0.3060  0.0150  0.5723
 6379TIP3    H240773   4.559   3.268  -0.002 -1.0813 -1.2783  0.9100
 6380TIP3   OH240774   4.603   4.883   1.878 -0.1866  0.9407 -0.6363
 6380TIP3    H140775   4.626   4.891   1.971  0.6356  0.3505 -0.7790
 6380TIP3    H240776   4.661   4.814   1.845 -1.5977 -0.0281 -1.2001
 6381TIP3   OH240777   1.651   3.109   1.217 -0.5109  0.5537  0.8872
 6381TIP3    H140778   1.565   3.113   1.174 -1.5971 -2.7393  2.3925
 6381TIP3    H240779   1.638   3.158   1.299 -0.0821  2.2922 -0.0487
 6382TIP3   OH240780   4.242   6.258   0.241 -0.2102 -0.3774 -0.6195
 6382TIP3    H140781   4.185   6.193   0.281  0.0956  0.1694  0.7450
 6382TIP3    H240782   4.313   6.206   0.202  0.2693 -0.8642  0.8378
 6383TIP3   OH240783   3.298   4.604   1.524  0.4725  0.1415 -0.0940
 6383TIP3    H140784   3.377   4.560   1.493  0.5711  0.7316 -0.7125
 6383TIP3    H240785   3.330   4.682   1.569  0.3385 -0.8170  1.7320
 6384TIP3   OH240786   5.807   1.887   1.099  0.1350 -0.3949 -0.1896
 6384TIP3    H140787   5.730   1.831   1.094 -0.1857 -0.2675  2.1555
 6384TIP3    H240788   5.773   1.976   1.097  0.1550 -0.3388  1.1002
 6385TIP3   OH240789   4.367   1.468   0.787  0.5440 -0.3654  0.0774
 6385TIP3    H140790   4.280   1.459   0.826  0.2656  0.3700 -0.3397
 6385TIP3    H240791   4.362   1.417   0.706  1.7844 -3.6781  1.8948
 6386TIP3   OH240792   4.544   1.662   0.048 -0.0017  0.3093 -0.6528
 6386TIP3    H140793   4.540   1.567   0.046  1.8165  0.1811 -0.1038
 6386TIP3    H240794   4.592   1.683   0.129 -1.3558  1.7463 -0.1691
 6387TIP3   OH240795   4.459   4.249   8.663  0.3424 -0.6554 -0.5503
 6387TIP3    H140796   4.426   4.327   8.707  1.4351 -1.1947  1.3740
 6387TIP3    H240797   4.388   4.185   8.671  0.0383 -0.3427 -0.7310
 6388TIP3   OH240798   4.056   5.349   0.427 -0.2220 -0.1260 -0.0622
 6388TIP3    H140799   3.999   5.418   0.393 -1.3824 -0.6471  0.7543
 6388TIP3    H240800   3.996   5.286   0.468  0.7614 -1.8819 -1.2038
 6389TIP3   OH240801   4.713   0.151   7.489  0.3892  0.6324 -0.0865
 6389TIP3    H140802   4.663   0.232   7.492 -0.9325 -0.1404 -0.2370
 6389TIP3    H240803   4.736   0.141   7.397  2.1546  1.7403  0.1992
 6390TIP3   OH240804   1.920   4.582   7.570 -0.6344 -0.4168 -0.5411
 6390TIP3    H140805   1.925   4.558   7.662 -0.0483  2.0379  0.1329
 6390TIP3    H240806   1.827   4.572   7.547 -1.1365  0.7841  0.8766
 6391TIP3   OH240807   3.269   1.126   0.477 -0.3031  0.5213  0.5667
 6391TIP3    H140808   3.350   1.159   0.515  0.1497  1.6270 -1.2215
 6391TIP3    H240809   3.276   1.031   0.484  1.4577  0.5607 -0.0912
 6392TIP3   OH240810   2.977   0.239   1.641  0.2883  0.2146  0.1551
 6392TIP3    H140811   3.034   0.179   1.689  2.6291  1.2994 -1.1113
 6392TIP3    H240812   2.897   0.188   1.625  1.9713 -2.4365 -0.4462
 6393TIP3   OH240813   5.565   3.436   1.417  0.2293  0.1373  0.3661
 6393TIP3    H140814   5.517   3.518   1.428  0.0945  0.0702  0.2827
 6393TIP3    H240815   5.509   3.383   1.360  1.0530  0.5952 -0.9208
 6394TIP3   OH240816   4.728   1.437   7.517 -0.2684 -0.1362  0.1897
 6394TIP3    H140817   4.634   1.447   7.535  0.2508  1.4357  2.5621
 6394TIP3    H240818   4.755   1.364   7.572  0.4836  1.7561  2.5210
 6395TIP3   OH240819   2.732   1.837   1.447 -0.2472 -0.2561 -0.3045
 6395TIP3    H140820   2.773   1.754   1.421 -0.5252 -0.5841  0.2963
 6395TIP3    H240821   2.803   1.887   1.487 -0.4830 -0.9567  1.0377
 6396TIP3   OH240822   0.209   1.349   7.042  0.3642 -0.1288  0.2929
 6396TIP3    H140823   0.277   1.314   7.099  1.5743 -0.0920 -1.0585
 6396TIP3    H240824   0.240   1.437   7.019  0.1642 -0.3163 -0.7665
 6397TIP3   OH240825   2.995   1.837   0.852  0.3497  0.1979 -0.6349
 6397TIP3    H140826   3.012   1.840   0.946 -0.7301  0.2253 -0.4262
 6397TIP3    H240827   3.003   1.928   0.823 -0.8153  0.4338 -0.2712
 6398TIP3   OH240828   2.330   3.515   6.170  0.2621  0.0110 -0.1082
 6398TIP3    H140829   2.361   3.571   6.241  0.6991  0.1586 -0.4135
 6398TIP3    H240830   2.390   3.532   6.098 -0.0139 -0.3451 -0.4257
 6399TIP3   OH240831   4.974   6.454   7.372  0.0919  0.3946  0.1277
 6399TIP3    H140832   4.908   6.393   7.339 -0.6248  0.2643  1.7244
 6399TIP3    H240833   5.056   6.423   7.334 -0.3852 -1.0469  0.2256
 6400TIP3   OH240834   4.477   5.665   0.376  0.1799 -0.2955 -0.0723
 6400TIP3    H140835   4.397   5.687   0.425  0.2440 -0.5647  0.1583
 6400TIP3    H240836   4.533   5.622   0.441  0.2892 -0.6071 -0.3702
 6401TIP3   OH240837   1.026   5.623   1.156  0.2335  0.4028 -0.0405
 6401TIP3    H140838   1.082   5.665   1.221  0.9743  0.9833 -1.0165
 6401TIP3    H240839   1.087   5.598   1.086 -0.4889 -0.5301 -0.3577
 6402TIP3   OH240840   0.256   2.565   7.609 -0.4667  0.6182 -0.1931
 6402TIP3    H140841   0.290   2.554   7.698 -0.4111  0.2913 -0.2531
 6402TIP3    H240842   0.299   2.643   7.577  1.4284 -0.6202 -0.8123
 6403TIP3   OH240843   6.766   0.098   6.353 -0.8139 -0.4473  0.3070
 6403TIP3    H140844   6.862   0.105   6.355 -0.8949  0.6517  0.6664
 6403TIP3    H240845   6.750   0.004   6.351  0.2991 -0.6482 -1.7207
 6404TIP3   OH240846   5.641   4.719   8.410  0.2367  0.4063  0.3567
 6404TIP3    H140847   5.632   4.624   8.403  0.1323  0.5228 -1.2534
 6404TIP3    H240848   5.556   4.748   8.445 -0.6332  0.1093 -1.4054
 6405TIP3   OH240849   4.752   2.887   7.929  0.3489 -0.2476  0.1135
 6405TIP3    H140850   4.829   2.858   7.977  1.2178  0.9823 -0.4772
 6405TIP3    H240851   4.746   2.981   7.949 -0.6561 -0.2149 -0.3082
 6406TIP3   OH240852   5.717   5.363   7.787  0.2681 -0.4675  0.5992
 6406TIP3    H140853   5.813   5.357   7.785  0.2429 -0.7698  0.0708
 6406TIP3    H240854   5.692   5.314   7.865  0.5809  0.2297  1.1483
 6407TIP3   OH240855   6.112   6.259   7.764 -0.2883 -0.0960  0.1392
 6407TIP3    H140856   6.024   6.242   7.729 -0.7010  0.3339  0.9531
 6407TIP3    H240857   6.161   6.179   7.744 -0.6226 -0.0344 -1.0291
 6408TIP3   OH240858   5.511   1.775   8.470 -0.4595 -0.1327  0.2512
 6408TIP3    H140859   5.598   1.747   8.497  0.2739  2.8668  1.3838
 6408TIP3    H240860   5.504   1.865   8.501 -3.8262 -0.1178 -0.1912
 6409TIP3   OH240861   3.544   4.599   1.267 -0.4338 -0.5802 -0.2977
 6409TIP3    H140862   3.622   4.582   1.214 -1.1778 -1.6156 -1.1278
 6409TIP3    H240863   3.531   4.519   1.317 -1.6373 -0.9124 -1.0965
 6410TIP3   OH240864   4.222   1.420   1.179 -0.7367  0.0437 -0.9891
 6410TIP3    H140865   4.288   1.454   1.239 -0.8953  1.0262 -1.3506
 6410TIP3    H240866   4.181   1.498   1.141 -0.0843 -0.5050 -2.9741
 6411TIP3   OH240867   2.962   5.958   1.241 -0.3088 -0.5618  0.3101
 6411TIP3    H140868   2.917   6.010   1.174  0.4532 -0.5031 -0.1671
 6411TIP3    H240869   3.021   6.020   1.283 -0.7506 -0.6123  1.0167
 6412TIP3   OH240870   1.004   3.079   8.225  0.3341 -0.3669 -0.0682
 6412TIP3    H140871   0.968   3.008   8.172  0.8724 -0.3726 -0.4370
 6412TIP3    H240872   1.031   3.145   8.161 -1.0180  0.5911  0.3073
 6413TIP3   OH240873   2.372   4.271   6.991 -0.6057 -0.0463  0.0193
 6413TIP3    H140874   2.426   4.350   6.987 -1.8069  0.9285  1.9315
 6413TIP3    H240875   2.425   4.208   7.040  0.0271 -0.1998 -0.8290
 6414TIP3   OH240876   5.584   2.984   1.476  0.7116  0.7055 -0.4182
 6414TIP3    H140877   5.614   3.049   1.540 -1.6872  1.6186 -0.0908
 6414TIP3    H240878   5.540   2.917   1.528  1.9227 -0.4960 -0.8753
 6415TIP3   OH240879   1.636   3.878   0.889 -1.0017  0.0973  0.4930
 6415TIP3    H140880   1.617   3.971   0.890 -2.4727 -0.1791  0.8152
 6415TIP3    H240881   1.721   3.871   0.846 -1.5129  1.4756 -0.8364
 6416TIP3   OH240882   4.260   1.151   7.087  0.1553  0.0235  0.6306
 6416TIP3    H140883   4.197   1.190   7.026  0.0601 -0.0190  0.6990
 6416TIP3    H240884   4.221   1.066   7.110 -0.3902  0.5156  1.6242
 6417TIP3   OH240885   2.206   3.008   8.076  0.3863  0.2290 -0.4775
 6417TIP3    H140886   2.248   3.093   8.091 -0.1365  0.5853 -1.0192
 6417TIP3    H240887   2.265   2.962   8.016 -0.1733  0.8746 -1.5365
 6418TIP3   OH240888   3.072   5.667   0.717  0.2249  0.1931  0.1938
 6418TIP3    H140889   3.085   5.760   0.734 -2.0233  0.2689  1.9028
 6418TIP3    H240890   2.988   5.646   0.757  0.3546 -2.4601 -0.6897
 6419TIP3   OH240891   2.186   4.417   0.754  0.1380  0.7953  0.6645
 6419TIP3    H140892   2.126   4.486   0.784 -0.0612  1.7578 -1.7172
 6419TIP3    H240893   2.145   4.336   0.783 -0.0248  1.5896  2.8657
 6420TIP3   OH240894   6.141   0.724   0.064 -0.3947 -0.2873  0.0308
 6420TIP3    H140895   6.121   0.659  -0.004  1.3615 -1.0764  0.2167
 6420TIP3    H240896   6.167   0.673   0.140  1.3588  0.5823  0.0791
 6421TIP3   OH240897   6.491   2.016   6.117  0.2087  0.2543 -0.0488
 6421TIP3    H140898   6.450   1.985   6.198 -0.0850 -0.0505 -0.3122
 6421TIP3    H240899   6.419   2.025   6.055  0.0422  2.8647  0.4231
 6422TIP3   OH240900   5.500   3.799   8.661 -0.3709  0.6339  0.0499
 6422TIP3    H140901   5.489   3.712   8.622 -1.4559  0.0635  1.5505
 6422TIP3    H240902   5.593   3.818   8.651  0.1393 -1.2552  0.7847
 6423TIP3   OH240903   5.204   0.367   8.733  0.2033  0.1120 -0.7569
 6423TIP3    H140904   5.287   0.327   8.707  0.4552  0.5166 -0.5780
 6423TIP3    H240905   5.209   0.373   8.828  0.5121  1.2899 -0.8285
 6424TIP3   OH240906   5.497   0.146   2.245 -0.7210 -0.0864  0.4404
 6424TIP3    H140907   5.491   0.055   2.216  0.3473  0.3992 -1.5378
 6424TIP3    H240908   5.587   0.155   2.274 -1.1068  0.1012  1.6084
 6425TIP3   OH240909   4.932   2.759   0.927 -0.3252 -0.1903 -0.2663
 6425TIP3    H140910   4.979   2.831   0.969 -1.6894  0.6800 -0.1626
 6425TIP3    H240911   4.917   2.696   0.997  0.9706 -0.6540 -0.3799
 6426TIP3   OH240912   1.971   3.351   0.779  0.7205  0.0794 -0.3457
 6426TIP3    H140913   2.053   3.349   0.730 -0.6372  0.1705 -2.7824
 6426TIP3    H240914   1.938   3.440   0.768  0.0633 -0.0889  0.1757
 6427TIP3   OH240915   3.783   1.553   0.770 -0.0284  0.2444  0.2623
 6427TIP3    H140916   3.700   1.528   0.808  0.2115  0.1600  0.7380
 6427TIP3    H240917   3.826   1.606   0.837 -0.1758  1.2493 -0.4026
 6428TIP3   OH240918   3.771   4.349   8.564 -0.1431 -0.1628  0.0560
 6428TIP3    H140919   3.767   4.438   8.598 -0.9204 -0.1223 -0.1052
 6428TIP3    H240920   3.719   4.352   8.483  0.3698 -0.6101 -0.3022
 6429TIP3   OH240921   2.898   2.653   8.859  0.7132  0.2772  0.8666
 6429TIP3    H140922   2.811   2.613   8.865  1.3128 -1.0325  1.0366
 6429TIP3    H240923   2.881   2.747   8.867 -0.7158  0.0666  0.5662
 6430TIP3   OH240924   5.567   5.769   7.801  0.2725 -0.8657 -0.2579
 6430TIP3    H140925   5.530   5.683   7.784 -0.4231 -0.6730  0.2382
 6430TIP3    H240926   5.502   5.831   7.769  2.1888 -0.4275 -3.7789
 6431TIP3   OH240927   0.067   3.276   1.351 -0.2438  0.5156  0.0173
 6431TIP3    H140928   0.018   3.214   1.297  0.8905  0.9132 -1.5469
 6431TIP3    H240929   0.076   3.354   1.295  1.6468  0.6549  0.4460
 6432TIP3   OH240930   6.492   5.526   6.510  0.2099  0.4676 -0.1783
 6432TIP3    H140931   6.410   5.573   6.497 -0.1379 -0.7012 -2.8380
 6432TIP3    H240932   6.558   5.578   6.465  0.7964  0.8731  1.0822
 6433TIP3   OH240933   6.376   1.141   0.739  0.8329  0.2868 -0.2219
 6433TIP3    H140934   6.331   1.210   0.788 -0.1103 -0.5791  0.1718
 6433TIP3    H240935   6.306   1.085   0.707  1.5360 -0.0474 -1.2345
 6434TIP3   OH240936   0.638   0.102   1.461  0.6762 -0.2845 -0.3389
 6434TIP3    H140937   0.643   0.007   1.450  1.9695 -0.4158  0.9584
 6434TIP3    H240938   0.722   0.126   1.500 -0.5318  1.0294  1.6759
 6435TIP3   OH240939   4.208   2.667   7.313  0.3989 -0.0362  0.1591
 6435TIP3    H140940   4.177   2.577   7.299 -1.3742 -0.0613  3.2014
 6435TIP3    H240941   4.296   2.656   7.349  0.5390 -0.4947 -0.3064
 6436TIP3   OH240942   6.132   6.690   8.786 -0.2163  0.2560  0.4387
 6436TIP3    H140943   6.061   6.646   8.833 -1.2976  0.3914 -0.9983
 6436TIP3    H240944   6.088   6.734   8.713  1.3131  0.6283 -0.2854
 6437TIP3   OH240945   6.240   4.411   7.111 -0.1714 -0.2363  0.6324
 6437TIP3    H140946   6.164   4.409   7.170 -0.0444  0.8919  0.8430
 6437TIP3    H240947   6.227   4.335   7.053 -1.1339 -0.4170  1.0698
 6438TIP3   OH240948   0.762   0.658   7.614 -0.3509 -0.3956 -0.1438
 6438TIP3    H140949   0.780   0.645   7.707  0.6246  0.8910 -0.1158
 6438TIP3    H240950   0.681   0.709   7.612 -1.1067 -1.5549 -0.0707
 6439TIP3   OH240951   6.023   2.558   1.983 -0.6198 -0.9217 -0.9141
 6439TIP3    H140952   5.968   2.496   1.935 -1.3956 -0.1689 -1.0193
 6439TIP3    H240953   5.964   2.598   2.047 -1.4123  2.9358 -3.7084
 6440TIP3   OH240954   1.553   6.330   1.601  0.3803  0.5471  0.2693
 6440TIP3    H140955   1.562   6.268   1.673  0.5872 -0.5847 -0.6895
 6440TIP3    H240956   1.539   6.415   1.643 -0.1421 -0.1824  1.6094
 6441TIP3   OH240957   0.339   3.337   7.679 -0.8277  0.4786  0.0715
 6441TIP3    H140958   0.305   3.421   7.711 -0.5335  0.4259  0.5339
 6441TIP3    H240959   0.262   3.288   7.653 -0.9385  1.3582 -1.3803
 6442TIP3   OH240960   3.049   2.736   1.637 -0.2886 -0.5706 -0.0893
 6442TIP3    H140961   3.046   2.644   1.663 -0.9095  0.0218  2.2280
 6442TIP3    H240962   2.957   2.761   1.625 -0.1560 -0.1439 -0.2477
 6443TIP3   OH240963   6.577   1.462   7.584 -0.3386 -0.5940 -0.0616
 6443TIP3    H140964   6.655   1.439   7.533 -0.6636  1.5487 -1.6592
 6443TIP3    H240965   6.602   1.541   7.632 -1.1062 -0.6500  0.4458
 6444TIP3   OH240966   4.517   3.809   1.598 -0.1868 -0.3008 -0.6311
 6444TIP3    H140967   4.425   3.825   1.620 -0.0406 -0.2869  0.0139
 6444TIP3    H240968   4.566   3.850   1.670  0.2334 -2.9165  0.6893
 6445TIP3   OH240969   2.383   0.167   0.352 -0.0552 -0.0624  0.1352
 6445TIP3    H140970   2.314   0.225   0.320 -0.2979 -0.8775 -0.8704
 6445TIP3    H240971   2.421   0.129   0.273  2.3850  1.2501  0.5863
 6446TIP3   OH240972   0.701   5.621   0.424 -0.4811 -0.4613  0.0948
 6446TIP3    H140973   0.741   5.672   0.494 -1.4604  0.9378 -0.3207
 6446TIP3    H240974   0.719   5.670   0.345 -0.9327 -1.0738 -0.4001
 6447TIP3   OH240975   5.840   4.768   1.866  0.4159  0.4472  0.1356
 6447TIP3    H140976   5.781   4.787   1.939  1.2583  0.7745  0.7534
 6447TIP3    H240977   5.917   4.823   1.883 -0.4103  2.6514 -2.4135
 6448TIP3   OH240978   4.244   3.856   0.916 -0.5713 -0.2339 -0.1751
 6448TIP3    H140979   4.250   3.814   1.001  0.8765  0.7217  0.2351
 6448TIP3    H240980   4.191   3.796   0.863  0.4668 -2.0067  0.6978
 6449TIP3   OH240981   1.388   3.388   1.125  0.1191  0.2238 -0.0395
 6449TIP3    H140982   1.331   3.327   1.078 -0.2478 -0.3522  1.1202
 6449TIP3    H240983   1.329   3.458   1.154  0.5570  1.2281 -1.4668
 6450TIP3   OH240984   4.548   1.050   7.871  0.4255  0.3769  0.0238
 6450TIP3    H140985   4.524   1.141   7.888 -0.7497  0.1923 -0.6129
 6450TIP3    H240986   4.564   1.047   7.776  0.9744  0.0261  0.1224
 6451TIP3   OH240987   6.745   5.969   7.933  0.5515 -0.4813  0.4990
 6451TIP3    H140988   6.673   5.949   7.993  0.4514 -0.8753  0.2512
 6451TIP3    H240989   6.720   5.928   7.850 -0.3320  1.8273 -0.4764
 6452TIP3   OH240990   1.509   4.241   0.087  0.1982 -0.7080 -0.0431
 6452TIP3    H140991   1.508   4.250   0.182 -1.3159 -0.2328 -0.0673
 6452TIP3    H240992   1.435   4.294   0.057  0.3421 -1.2385 -1.4430
 6453TIP3   OH240993   2.053   4.198   2.569 -0.1030  0.2438 -0.0395
 6453TIP3    H140994   1.969   4.232   2.600  0.0432  1.0094 -0.4536
 6453TIP3    H240995   2.076   4.254   2.495  0.6407 -0.1330 -0.1050
 6454TIP3   OH240996   3.342   5.552   1.853  0.3324 -0.2115  0.1598
 6454TIP3    H140997   3.327   5.591   1.767 -0.2828 -0.4280  0.1660
 6454TIP3    H240998   3.293   5.608   1.913 -0.5166 -0.9512  0.1754
 6455TIP3   OH240999   2.360   0.998   0.865 -0.6089  0.5155 -0.2323
 6455TIP3    H141000   2.340   1.055   0.939  1.5554 -1.8016  2.3469
 6455TIP3    H241001   2.440   1.035   0.827 -0.0172  0.0483  0.5334
 6456TIP3   OH241002   6.199   1.801   2.413  0.2222 -0.1472  0.4259
 6456TIP3    H141003   6.254   1.837   2.483 -0.7961  0.1024  1.1230
 6456TIP3    H241004   6.210   1.862   2.340  0.5929  0.0932  0.6788
 6457TIP3   OH241005   3.417   6.105   0.274  0.3003  0.1517 -0.4759
 6457TIP3    H141006   3.359   6.050   0.326 -0.8780  0.4872 -1.3880
 6457TIP3    H241007   3.423   6.187   0.324  0.8723 -0.2676  0.1527
 6458TIP3   OH241008   1.913   4.736   8.486 -0.1006 -0.7662  0.1979
 6458TIP3    H141009   1.998   4.702   8.459 -1.1078 -2.7129 -0.7211
 6458TIP3    H241010   1.897   4.810   8.427  0.9184 -0.3876  0.3720
 6459TIP3   OH241011   0.528   1.855   2.397  0.5275 -0.6936 -0.4948
 6459TIP3    H141012   0.546   1.936   2.350  1.7448  0.8921  2.3923
 6459TIP3    H241013   0.433   1.854   2.409  0.6302  1.3060  0.9200
 6460TIP3   OH241014   3.294   3.320   8.687  0.0388  0.4364  0.1893
 6460TIP3    H141015   3.384   3.347   8.670  1.3506 -1.6101  3.0250
 6460TIP3    H241016   3.258   3.389   8.743  0.7602  0.0687  1.1363
 6461TIP3   OH241017   5.838   0.357   7.007 -0.0755  0.3187 -0.2022
 6461TIP3    H141018   5.803   0.269   6.995  1.7158 -0.4210 -0.2610
 6461TIP3    H241019   5.781   0.413   6.954 -2.1885 -0.5303  1.0742
 6462TIP3   OH241020   2.596   4.025   6.908  0.6050  0.0977 -0.4740
 6462TIP3    H141021   2.557   4.062   6.828  1.0524  2.7887  0.4712
 6462TIP3    H241022   2.539   4.055   6.979  1.3329 -0.5576  0.4084
 6463TIP3   OH241023   0.576   2.032   0.860 -0.4677 -0.2821 -0.0975
 6463TIP3    H141024   0.631   1.968   0.906 -0.6590 -0.6370 -0.3528
 6463TIP3    H241025   0.586   2.113   0.910  0.9706 -0.1013 -0.6216
 6464TIP3   OH241026   4.782   3.864   0.220 -0.4412  0.4489  0.0236
 6464TIP3    H141027   4.876   3.852   0.232 -0.2464  0.2947 -1.3902
 6464TIP3    H241028   4.772   3.954   0.189 -0.6973  0.3201 -0.2846
 6465TIP3   OH241029   3.682   6.610   6.872 -0.1431 -0.1252 -0.0091
 6465TIP3    H141030   3.718   6.616   6.784  1.5714  0.3678  0.6890
 6465TIP3    H241031   3.701   6.694   6.912 -2.8140  0.4797  0.1900
 6466TIP3   OH241032   3.091   0.455   8.199  0.3182  0.5162 -0.0391
 6466TIP3    H141033   3.143   0.384   8.161 -1.3074 -0.9228  0.2673
 6466TIP3    H241034   3.130   0.535   8.164  3.7784 -0.3140  1.5130
 6467TIP3   OH241035   4.154   6.643   0.418 -0.1387 -0.2443 -0.3919
 6467TIP3    H141036   4.100   6.679   0.489 -1.2556 -0.6607 -1.0007
 6467TIP3    H241037   4.123   6.688   0.339  0.7060 -0.1897 -0.7015
 6468TIP3   OH241038   3.485   0.181   0.283 -0.1478  0.1823 -0.4819
 6468TIP3    H141039   3.444   0.135   0.355 -0.4940  2.9902  1.2760
 6468TIP3    H241040   3.413   0.204   0.224 -0.0146 -1.1604 -1.1977
 6469TIP3   OH241041   0.146   6.579   6.976 -1.1007  0.5124 -0.6414
 6469TIP3    H141042   0.160   6.627   6.893  0.2971 -0.9840 -1.3264
 6469TIP3    H241043   0.225   6.596   7.026 -1.1867 -0.0138 -0.3315
 6470TIP3   OH241044   4.132   4.928   7.118  0.5384  0.5503 -0.1751
 6470TIP3    H141045   4.166   5.003   7.168 -2.5658  1.3663  0.9767
 6470TIP3    H241046   4.084   4.968   7.046  0.5446 -0.4281 -0.7318
 6471TIP3   OH241047   0.244   1.900   7.633 -0.3457  0.2068  0.3669
 6471TIP3    H141048   0.186   1.838   7.588 -1.1738 -0.1934  1.8903
 6471TIP3    H241049   0.207   1.986   7.614  1.2007  0.3580 -2.3212
 6472TIP3   OH241050   6.542   0.750   8.560  0.2428  0.0385  0.4313
 6472TIP3    H141051   6.527   0.843   8.578  1.9084  0.0357  2.2261
 6472TIP3    H241052   6.490   0.704   8.625  0.7939 -0.2141  0.7046
 6473TIP3   OH241053   0.451   0.583   1.992  0.6508  0.0377  0.4919
 6473TIP3    H141054   0.546   0.575   1.983  0.8717  3.3249 -1.6416
 6473TIP3    H241055   0.418   0.496   1.970  3.1049 -0.8207 -0.1643
 6474TIP3   OH241056   0.552   4.321   2.116 -0.0567  0.1515  0.7439
 6474TIP3    H141057   0.514   4.406   2.139 -0.0336  0.1494  0.7899
 6474TIP3    H241058   0.534   4.312   2.022  0.2145  0.3488  0.6703
 6475TIP3   OH241059   2.370   3.349   7.645 -0.0864 -0.2498  0.2954
 6475TIP3    H141060   2.361   3.370   7.552 -0.7825 -1.0273  0.1782
 6475TIP3    H241061   2.341   3.258   7.652  0.2772 -0.2997  1.2216
 6476TIP3   OH241062   0.338   3.765   1.467  0.0808 -0.4487 -0.0544
 6476TIP3    H141063   0.377   3.773   1.554  1.3035  1.8521 -0.7170
 6476TIP3    H241064   0.244   3.756   1.482  0.3451 -0.8318  1.4878
 6477TIP3   OH241065   6.766   4.390   6.627 -0.4028  0.2780  0.2135
 6477TIP3    H141066   6.861   4.383   6.638  0.1814  1.0944 -3.2038
 6477TIP3    H241067   6.746   4.481   6.646 -0.1391  0.6061 -1.0384
 6478TIP3   OH241068   2.057   3.286   7.668 -0.0072 -0.0120  0.3457
 6478TIP3    H141069   2.117   3.212   7.664  0.0177 -0.2275  3.0699
 6478TIP3    H241070   2.041   3.309   7.576  0.8712 -2.6382 -0.5448
 6479TIP3   OH241071   2.716   4.205   7.544  0.1166  0.0355  0.6522
 6479TIP3    H141072   2.629   4.218   7.584 -0.5175  1.0139 -0.9588
 6479TIP3    H241073   2.737   4.289   7.505  1.0938 -0.6323 -0.3141
 6480TIP3   OH241074   4.585   0.984   0.099  0.6888 -0.3655  0.1763
 6480TIP3    H141075   4.569   0.890   0.098  0.7787 -0.3852  0.5061
 6480TIP3    H241076   4.525   1.019   0.033  1.1913 -0.7339 -0.4859
 6481TIP3   OH241077   3.202   3.308   8.144  0.2675 -0.3050 -0.5709
 6481TIP3    H141078   3.255   3.305   8.065 -0.5337 -1.4097 -1.0931
 6481TIP3    H241079   3.262   3.281   8.214  1.3619  2.0134 -0.5169
 6482TIP3   OH241080   2.887   2.744   7.330 -0.7032  0.1284 -0.2950
 6482TIP3    H141081   2.911   2.745   7.237  1.3013 -0.8108  0.1442
 6482TIP3    H241082   2.802   2.788   7.334 -0.4420  0.9578 -2.4570
 6483TIP3   OH241083   5.989   5.431   0.409  0.2862 -0.1539  1.0937
 6483TIP3    H141084   5.982   5.336   0.401  1.8056 -0.2370  0.3014
 6483TIP3    H241085   6.017   5.446   0.499 -1.0828 -0.3568  1.5721
 6484TIP3   OH241086   4.824   4.622   7.103 -0.0385  0.3501  0.7558
 6484TIP3    H141087   4.816   4.529   7.082  1.1496  0.2884  0.4917
 6484TIP3    H241088   4.734   4.655   7.104 -0.3675 -0.3880 -1.0541
 6485TIP3   OH241089   3.064   4.470   1.560 -0.4090 -0.1388 -0.5660
 6485TIP3    H141090   2.979   4.510   1.541  0.3178  1.8316  0.1209
 6485TIP3    H241091   3.128   4.536   1.534  0.8028  0.0156  2.4747
 6486TIP3   OH241092   1.378   1.729   8.655 -0.2304  0.3508  0.7295
 6486TIP3    H141093   1.296   1.755   8.697 -0.0715 -1.4984  2.3549
 6486TIP3    H241094   1.446   1.770   8.709 -0.0536  1.5353 -0.3635
 6487TIP3   OH241095   3.876   6.236   6.469  0.3355 -0.2176  0.0782
 6487TIP3    H141096   3.927   6.221   6.548  0.7440  3.0538  0.5733
 6487TIP3    H241097   3.786   6.220   6.495  0.6004 -0.6164  0.7721
 6488TIP3   OH241098   2.555   0.925   8.046 -0.2583  0.0278 -0.2852
 6488TIP3    H141099   2.573   1.003   8.099  0.8604 -0.9015  0.7449
 6488TIP3    H241100   2.536   0.856   8.109  0.2629 -0.9121 -1.1203
 6489TIP3   OH241101   6.750   5.980   8.595  0.5089 -0.0940 -0.0691
 6489TIP3    H141102   6.792   6.054   8.638  0.2646  0.2408 -0.3990
 6489TIP3    H241103   6.793   5.903   8.632  1.0801  0.2259 -0.0568
 6490TIP3   OH241104   6.535   4.232   8.340  0.6336  0.5159  0.0386
 6490TIP3    H141105   6.450   4.198   8.368  0.5284  1.0623  0.4088
 6490TIP3    H241106   6.538   4.320   8.377  1.5270  0.3613  0.3600
 6491TIP3   OH241107   3.089   4.670   7.147 -0.0222 -0.2041 -0.5040
 6491TIP3    H141108   3.053   4.666   7.235  0.5151  1.8202 -0.1505
 6491TIP3    H241109   3.041   4.602   7.099 -1.1205 -0.5819  1.0419
 6492TIP3   OH241110   5.509   6.045   7.460  0.2108 -0.5046 -0.3985
 6492TIP3    H141111   5.485   6.101   7.534  0.5192 -2.4157  1.2272
 6492TIP3    H241112   5.428   6.001   7.436 -0.1250  0.8765 -1.9504
 6493TIP3   OH241113   5.606   4.218   0.928  0.0328 -0.3009  0.2080
 6493TIP3    H141114   5.585   4.129   0.955 -0.4950 -0.1493  0.3077
 6493TIP3    H241115   5.524   4.267   0.939  0.2389  0.1301 -0.1219
 6494TIP3   OH241116   6.528   0.702   1.120  0.3348  0.2879  0.2035
 6494TIP3    H141117   6.454   0.760   1.143  0.2125 -0.1593  0.9880
 6494TIP3    H241118   6.488   0.631   1.070  0.4588  0.7944 -0.6148
 6495TIP3   OH241119   4.070   0.319   1.884 -0.2170  0.0403  0.1273
 6495TIP3    H141120   4.114   0.384   1.829  0.2489  0.9757  1.5533
 6495TIP3    H241121   3.979   0.348   1.889 -0.9634 -1.5356 -2.2826
 6496TIP3   OH241122   6.054   2.089   0.961 -0.0689 -0.3724  0.2544
 6496TIP3    H141123   5.960   2.093   0.946 -0.1498 -0.6965  0.6518
 6496TIP3    H241124   6.063   2.043   1.045  0.4498 -0.6211  0.0692
 6497TIP3   OH241125   4.062   3.379   6.121 -0.1011  0.3063  0.0070
 6497TIP3    H141126   4.037   3.421   6.039  0.7708  0.8954  0.0280
 6497TIP3    H241127   4.153   3.350   6.106  0.4683  1.4494  1.1433
 6498TIP3   OH241128   3.675   6.667   8.502 -0.4180 -0.2514  0.0915
 6498TIP3    H141129   3.625   6.746   8.482 -0.8271 -0.7264 -0.8490
 6498TIP3    H241130   3.698   6.631   8.416 -0.6442 -1.3988  0.4891
 6499TIP3   OH241131   0.921   1.919   0.078  1.2692  0.0344 -0.1409
 6499TIP3    H141132   0.854   1.959   0.134  0.1341 -1.2683 -0.5143
 6499TIP3    H241133   0.955   1.846   0.130  2.2046  0.4914 -0.0839
 6500TIP3   OH241134   4.240   5.559   7.614 -0.3787  0.4630  0.1103
 6500TIP3    H141135   4.224   5.466   7.601  1.7448  0.2367 -1.2040
 6500TIP3    H241136   4.162   5.590   7.661 -1.6690 -1.7095 -0.4704
 6501TIP3   OH241137   3.129   0.597   0.914  0.4458  0.2873 -0.0363
 6501TIP3    H141138   3.200   0.629   0.969  0.3964 -0.1512  0.2887
 6501TIP3    H241139   3.104   0.513   0.953  1.0780 -0.5209 -1.2872
 6502TIP3   OH241140   5.295   5.745   2.003  0.2230 -0.1442  0.0446
 6502TIP3    H141141   5.261   5.835   1.999  0.5297  0.0177  0.8023
 6502TIP3    H241142   5.379   5.753   2.049  0.3119 -0.8028  0.0102
 6503TIP3   OH241143   4.625   1.447   1.029  0.3241  0.0096  1.0304
 6503TIP3    H141144   4.550   1.507   1.035  0.4224  0.0628  2.0433
 6503TIP3    H241145   4.587   1.360   1.043  0.1731 -0.1882 -0.4966
 6504TIP3   OH241146   4.875   4.820   8.642 -0.0046 -0.1729  0.3358
 6504TIP3    H141147   4.806   4.842   8.705 -0.5349 -0.7741 -0.0177
 6504TIP3    H241148   4.888   4.725   8.653 -0.9398 -0.5240 -1.2564
 6505TIP3   OH241149   1.938   5.206   1.168  0.6208 -0.0779  0.1810
 6505TIP3    H141150   1.991   5.283   1.144  2.1338 -0.8632  0.8626
 6505TIP3    H241151   1.965   5.186   1.257  0.7934 -1.8157 -0.2233
 6506TIP3   OH241152   0.218   1.267   0.056 -0.0718 -0.1696  0.0746
 6506TIP3    H141153   0.246   1.179   0.030  0.3508  0.3565 -1.3803
 6506TIP3    H241154   0.273   1.288   0.131  0.6055 -0.7346 -0.2449
 6507TIP3   OH241155   0.047   3.787   8.175  0.1398 -0.2978 -0.1889
 6507TIP3    H141156   0.025   3.802   8.267 -3.0127 -1.2668 -0.6758
 6507TIP3    H241157   0.066   3.693   8.170  1.8488  0.0218 -0.3114
 6508TIP3   OH241158   4.588   2.822   8.432 -0.5962  0.0306 -0.8441
 6508TIP3    H141159   4.678   2.822   8.465 -1.2232 -0.5905  1.0551
 6508TIP3    H241160   4.537   2.860   8.504 -2.0516 -1.1848 -1.1884
 6509TIP3   OH241161   3.677   4.668   8.599  0.1871 -0.2748 -0.1692
 6509TIP3    H141162   3.718   4.748   8.568  2.2582 -0.9728  0.6065
 6509TIP3    H241163   3.583   4.685   8.593  0.5717  1.7556 -1.1170
 6510TIP3   OH241164   4.165   5.262   2.449  0.1951 -0.0917  0.1954
 6510TIP3    H141165   4.256   5.254   2.477  0.2476 -0.7437 -0.1623
 6510TIP3    H241166   4.123   5.180   2.476 -0.7117  0.8497  1.8572
 6511TIP3   OH241167   4.695   3.072   1.759  0.0808  0.4038  0.4402
 6511TIP3    H141168   4.763   3.020   1.804 -0.4106 -0.8634 -0.2143
 6511TIP3    H241169   4.613   3.027   1.779 -0.1333 -0.3805 -1.8731
 6512TIP3   OH241170   5.710   1.663   0.209 -0.3143 -0.0447 -0.3434
 6512TIP3    H141171   5.662   1.722   0.151 -1.0910 -0.3184  0.0054
 6512TIP3    H241172   5.779   1.717   0.246 -0.1014  0.2552 -1.1605
 6513TIP3   OH241173   3.677   2.405   7.760  0.1035 -0.6704 -0.8044
 6513TIP3    H141174   3.597   2.450   7.733 -0.1678 -0.3984  0.3951
 6513TIP3    H241175   3.647   2.337   7.821  0.9095  0.6282  1.1339
 6514TIP3   OH241176   0.689   0.346   0.270  0.3015  0.1532  0.0730
 6514TIP3    H141177   0.728   0.397   0.198  0.8286 -0.7041 -0.2680
 6514TIP3    H241178   0.596   0.344   0.250  0.4837 -0.3622 -0.7934
 6515TIP3   OH241179   2.584   5.921   0.040 -0.4773 -0.1999 -0.3817
 6515TIP3    H141180   2.646   5.947   0.108 -1.5314 -0.7859  0.8395
 6515TIP3    H241181   2.574   6.000  -0.013 -0.5025  0.6363  0.8160
 6516TIP3   OH241182   6.356   2.232   1.007  0.5067 -0.2513  0.5673
 6516TIP3    H141183   6.383   2.323   1.013  3.5128 -1.0042  0.1339
 6516TIP3    H241184   6.395   2.200   0.926 -1.4507 -1.6659  0.1116
 6517TIP3   OH241185   1.282   3.390   1.493 -0.4664  0.0608  0.3115
 6517TIP3    H141186   1.329   3.467   1.523 -0.4541 -0.0672  0.6253
 6517TIP3    H241187   1.191   3.417   1.488 -0.7898 -0.4489  2.3763
 6518TIP3   OH241188   5.930   3.156   1.381 -0.3711  0.3445  0.2940
 6518TIP3    H141189   6.024   3.159   1.364 -0.5905  0.3702 -1.0587
 6518TIP3    H241190   5.905   3.247   1.393 -0.3317  0.3989 -0.0294
 6519TIP3   OH241191   4.984   1.518   7.634 -0.0160  0.4209  0.6173
 6519TIP3    H141192   5.024   1.581   7.573  0.3632 -0.5082 -0.1276
 6519TIP3    H241193   4.894   1.509   7.604 -0.2966  1.1815  1.2052
 6520TIP3   OH241194   6.719   3.727   1.763  0.2889 -0.4014  0.0032
 6520TIP3    H141195   6.691   3.675   1.839 -0.4574  0.4035  0.3088
 6520TIP3    H241196   6.764   3.802   1.801 -0.7304  0.3907 -0.2802
 6521TIP3   OH241197   4.626   2.572   6.264  0.0452 -0.1023  0.1047
 6521TIP3    H141198   4.705   2.578   6.210 -1.3389  0.8826 -1.9536
 6521TIP3    H241199   4.633   2.487   6.307  1.5930 -0.6268 -1.0682
 6522TIP3   OH241200   1.610   6.271   8.164 -0.6185  0.0115 -0.1324
 6522TIP3    H141201   1.563   6.188   8.162 -0.0833 -0.2979 -0.3826
 6522TIP3    H241202   1.632   6.285   8.256 -0.9368  0.0054 -0.0571
 6523TIP3   OH241203   1.417   2.938   1.783 -0.4489  0.0382  0.1467
 6523TIP3    H141204   1.507   2.915   1.760  1.0392  0.5261  4.4719
 6523TIP3    H241205   1.412   3.032   1.768 -1.0422 -0.2859 -2.0426
 6524TIP3   OH241206   6.308   6.312   8.814  0.4191 -0.0869  0.4260
 6524TIP3    H141207   6.219   6.347   8.808  0.4596 -0.0381  0.0427
 6524TIP3    H241208   6.364   6.389   8.810  0.5134 -0.1831 -0.5389
 6525TIP3   OH241209   3.373   3.849   7.884 -0.3255 -0.2101  0.5542
 6525TIP3    H141210   3.416   3.880   7.805 -0.7618  0.1844  0.4674
 6525TIP3    H241211   3.299   3.909   7.897 -1.0459 -1.0694  0.5068
 6526TIP3   OH241212   2.186   0.573   8.239 -0.1630  0.0405 -0.3730
 6526TIP3    H141213   2.237   0.653   8.225  0.0811 -0.2214 -1.0412
 6526TIP3    H241214   2.251   0.506   8.258 -0.4796  0.4206  2.5487
 6527TIP3   OH241215   0.590   1.792   0.087 -0.2650  0.2383  0.4479
 6527TIP3    H141216   0.504   1.781   0.128 -0.9797  1.0009 -0.8099
 6527TIP3    H241217   0.584   1.876   0.042  0.3567 -0.7436 -1.5501
 6528TIP3   OH241218   4.262   3.535   8.020  0.5084 -0.2188  0.0000
 6528TIP3    H141219   4.339   3.481   8.039  0.4183 -0.0797  0.7929
 6528TIP3    H241220   4.201   3.516   8.092  0.0783  0.1870 -0.2550
 6529TIP3   OH241221   0.752   4.853   7.345  0.3103  0.6313 -0.6183
 6529TIP3    H141222   0.673   4.799   7.346 -0.1669  1.0839 -3.5544
 6529TIP3    H241223   0.823   4.793   7.365 -0.6040 -0.1242  0.4819
 6530TIP3   OH241224   0.070   3.733   1.523  0.1076 -0.5470  0.4073
 6530TIP3    H141225   0.037   3.756   1.610 -0.0639  1.0822 -0.0588
 6530TIP3    H241226   0.035   3.646   1.506 -0.5109 -0.5536  1.6456
 6531TIP3   OH241227   0.959   5.460   7.617 -0.9545  0.1843 -0.1630
 6531TIP3    H141228   1.042   5.499   7.643 -0.6107 -0.8613  0.3818
 6531TIP3    H241229   0.922   5.521   7.554 -0.4792  1.4078  0.7059
 6532TIP3   OH241230   3.876   2.523   6.135  0.4556 -0.0963 -0.0247
 6532TIP3    H141231   3.899   2.436   6.167  0.6437  0.3471  1.0845
 6532TIP3    H241232   3.956   2.574   6.146 -0.2409  0.7521  1.3272
 6533TIP3   OH241233   1.896   5.710   0.294 -0.5166 -0.4465  0.1856
 6533TIP3    H141234   1.927   5.788   0.248 -0.3276 -1.4740 -1.4892
 6533TIP3    H241235   1.973   5.677   0.341 -0.3576 -0.1747  0.1177
 6534TIP3   OH241236   1.982   3.301   1.800 -0.2369 -0.6234 -0.1063
 6534TIP3    H141237   2.005   3.343   1.883 -0.2470  0.4376 -0.6273
 6534TIP3    H241238   1.890   3.276   1.810 -0.9300  1.5438 -0.5912
 6535TIP3   OH241239   5.587   6.331   8.741  0.3733  0.1546  0.0623
 6535TIP3    H141240   5.550   6.413   8.706 -0.8926 -0.2268  0.4431
 6535TIP3    H241241   5.520   6.300   8.802 -0.2624 -2.3320 -1.7460
 6536TIP3   OH241242   1.169   4.619   2.528  0.5215 -0.0694  0.2891
 6536TIP3    H141243   1.205   4.542   2.572  2.8238  0.8639  0.1699
 6536TIP3    H241244   1.096   4.647   2.583  1.6308 -0.5016  2.0544
 6537TIP3   OH241245   2.284   2.042   8.218  0.1449  0.4442 -0.2789
 6537TIP3    H141246   2.320   1.991   8.291 -0.9251  0.0025 -0.0431
 6537TIP3    H241247   2.328   2.007   8.140 -1.1763 -1.4830 -0.2307
 6538TIP3   OH241248   4.238   6.268   1.527  0.5159 -0.3382 -0.3401
 6538TIP3    H141249   4.201   6.313   1.451  1.5240  3.3568  1.1715
 6538TIP3    H241250   4.324   6.237   1.497 -0.4257 -1.9270 -1.5650
 6539TIP3   OH241251   2.645   4.062   8.464 -0.0055 -0.0089  0.0440
 6539TIP3    H141252   2.562   4.034   8.503 -1.7135  1.3873 -2.3272
 6539TIP3    H241253   2.671   4.139   8.514 -0.2299 -0.3239  0.6566
 6540TIP3   OH241254   2.204   1.112   8.386 -0.0280 -0.3384 -0.3294
 6540TIP3    H141255   2.287   1.105   8.433 -0.1264 -1.8196 -0.3169
 6540TIP3    H241256   2.199   1.204   8.360  1.6141 -0.2081 -0.3220
 6541TIP3   OH241257   1.880   3.813   1.626 -0.3141  0.0862  0.4225
 6541TIP3    H141258   1.904   3.823   1.718 -0.3056  1.6627  0.2803
 6541TIP3    H241259   1.892   3.900   1.588 -1.9191 -0.1182 -0.6869
 6542TIP3   OH241260   4.925   4.278   7.574  0.3583 -0.4016 -0.2045
 6542TIP3    H141261   4.906   4.184   7.578 -0.4884 -0.2324 -0.0550
 6542TIP3    H241262   4.859   4.318   7.631  1.9537  0.1133  1.3629
 6543TIP3   OH241263   2.595   5.870   7.783 -0.1120  0.1548 -0.0020
 6543TIP3    H141264   2.524   5.825   7.737 -1.3479  1.1487  0.8770
 6543TIP3    H241265   2.553   5.912   7.858  1.4957  0.3503  0.8457
 6544TIP3   OH241266   5.417   2.104   7.670 -0.4453  0.1867  0.2580
 6544TIP3    H141267   5.440   2.016   7.700 -1.8817  0.0914  1.1400
 6544TIP3    H241268   5.472   2.162   7.723  0.8075 -0.1588 -0.6124
 6545TIP3   OH241269   2.662   4.769   8.905 -0.6187 -0.2109  0.3369
 6545TIP3    H141270   2.715   4.690   8.903 -0.5494 -0.1472 -0.4952
 6545TIP3    H241271   2.700   4.826   8.839 -1.3333  0.0868  0.1706
 6546TIP3   OH241272   6.286   4.645   6.929 -0.5533 -0.6969 -0.1506
 6546TIP3    H141273   6.201   4.678   6.900  0.6488  3.3762  0.2826
 6546TIP3    H241274   6.268   4.595   7.008 -2.5938 -0.8700 -0.6761
 6547TIP3   OH241275   5.451   0.727   0.779  0.1611  0.5725 -0.0990
 6547TIP3    H141276   5.372   0.771   0.810  0.3021  1.6390 -1.1500
 6547TIP3    H241277   5.517   0.747   0.844 -0.5214 -0.7531  1.0580
 6548TIP3   OH241278   1.496   0.906   7.872  0.4965  0.3674  0.4992
 6548TIP3    H141279   1.543   0.932   7.951 -0.6007  1.1156  0.9383
 6548TIP3    H241280   1.470   0.988   7.831 -0.5149 -0.0098  0.3450
 6549TIP3   OH241281   0.312   1.923   8.650 -0.1655  0.3896  0.0050
 6549TIP3    H141282   0.220   1.940   8.671 -0.3722  0.2844 -0.7627
 6549TIP3    H241283   0.354   1.906   8.734 -0.9899 -0.2424  0.2941
 6550TIP3   OH241284   3.408   4.100   6.957  0.2883  0.4022 -0.6177
 6550TIP3    H141285   3.371   4.058   7.034  0.2070  0.4279 -0.6431
 6550TIP3    H241286   3.502   4.082   6.963  0.3279  0.6907 -0.3376
 6551TIP3   OH241287   0.430   4.752   8.649  0.8224 -0.0460 -0.5353
 6551TIP3    H141288   0.357   4.774   8.707  1.4763  2.0158 -0.4287
 6551TIP3    H241289   0.393   4.687   8.588 -0.5647 -0.3993  0.6265
 6552TIP3   OH241290   0.621   5.495   7.798 -0.5582 -0.0466  0.4067
 6552TIP3    H141291   0.691   5.552   7.829 -1.7715  1.5469  0.3649
 6552TIP3    H241292   0.640   5.410   7.838 -0.6387  1.2423  3.4874
 6553TIP3   OH241293   0.053   3.295   0.141  0.2136 -0.2593 -0.2615
 6553TIP3    H141294   0.137   3.254   0.160  0.4648  0.2454 -0.2683
 6553TIP3    H241295   0.024   3.331   0.224  0.3433  0.1764 -0.3998
 6554TIP3   OH241296   5.385   4.888   2.203 -0.8621 -0.0602 -0.2677
 6554TIP3    H141297   5.369   4.799   2.231 -1.1429  0.2923  0.7200
 6554TIP3    H241298   5.445   4.924   2.269  0.8334 -0.1148 -1.7094
 6555TIP3   OH241299   2.059   2.370   7.162  0.5417  0.4156 -0.1891
 6555TIP3    H141300   2.090   2.284   7.133 -0.1749  0.3014 -0.6485
 6555TIP3    H241301   2.074   2.427   7.087  0.8971  0.6657  0.0714
 6556TIP3   OH241302   1.694   0.350   8.752  0.4183 -0.3107  0.8781
 6556TIP3    H141303   1.612   0.396   8.733  0.8216  0.2551  0.4833
 6556TIP3    H241304   1.762   0.402   8.709  0.8164 -1.6781 -0.2149
 6557TIP3   OH241305   3.021   4.322   0.954  0.0637 -0.5727  0.5042
 6557TIP3    H141306   3.117   4.323   0.954  0.0765  0.4132  1.4548
 6557TIP3    H241307   2.997   4.288   0.868  1.2654 -1.2338  0.4166
 6558TIP3   OH241308   2.267   3.622   0.428 -0.7072  0.0514  0.1582
 6558TIP3    H141309   2.257   3.687   0.359 -2.0664  0.0258  0.3184
 6558TIP3    H241310   2.291   3.541   0.382  0.1947  0.4521 -0.1032
 6559TIP3   OH241311   3.220   0.124   2.166  0.3840 -0.2840  0.1316
 6559TIP3    H141312   3.167   0.190   2.121  0.2459 -1.0580 -0.9027
 6559TIP3    H241313   3.227   0.155   2.256 -1.1702  0.2374  0.1075
 6560TIP3   OH241314   1.524   2.738   7.369 -0.2075 -0.2504  0.1190
 6560TIP3    H141315   1.469   2.701   7.438 -1.0314  1.1146  0.2281
 6560TIP3    H241316   1.578   2.803   7.413 -0.8741  0.7753 -0.5211
 6561TIP3   OH241317   1.577   1.700   7.686  0.0781  0.1869  0.3332
 6561TIP3    H141318   1.592   1.783   7.640 -0.7149 -1.1977 -2.6095
 6561TIP3    H241319   1.483   1.699   7.704 -0.1207 -0.5232 -0.6653
 6562TIP3   OH241320   6.655   3.254   7.364 -0.1536 -0.5648  0.4361
 6562TIP3    H141321   6.674   3.217   7.278 -1.6969 -1.6063  0.5244
 6562TIP3    H241322   6.666   3.349   7.352 -0.4157 -0.6949 -0.9107
 6563TIP3   OH241323   3.290   4.087   7.234  0.3736 -0.1602  0.1047
 6563TIP3    H141324   3.204   4.074   7.273 -0.4470 -1.0636 -1.8669
 6563TIP3    H241325   3.302   4.182   7.233 -0.6329 -0.0228  0.3380
 6564TIP3   OH241326   0.175   3.926   0.427 -0.4981  0.1390  0.5101
 6564TIP3    H141327   0.232   3.905   0.354  0.5942  1.2923  1.0082
 6564TIP3    H241328   0.131   4.008   0.402 -0.5564  0.2311  0.9027
 6565TIP3   OH241329   0.078   2.548   7.056 -0.5939  0.5270  0.5852
 6565TIP3    H141330  -0.001   2.551   7.110 -0.8270 -0.0033  0.2771
 6565TIP3    H241331   0.055   2.491   6.982 -0.1038  0.8085  0.2063
 6566TIP3   OH241332   4.436   2.134   0.276 -0.2406 -0.4291  0.1594
 6566TIP3    H141333   4.356   2.088   0.251 -1.6654  1.1764  1.4863
 6566TIP3    H241334   4.490   2.067   0.319 -1.0043 -1.4672 -0.4684
 6567TIP3   OH241335   0.462   4.794   7.066  0.2836  0.7719 -0.3226
 6567TIP3    H141336   0.445   4.836   6.982 -0.5981  1.3983  0.1472
 6567TIP3    H241337   0.481   4.703   7.044 -0.7870  0.7204 -1.1511
 6568TIP3   OH241338   1.616   4.902   8.375 -0.2334 -0.1924  0.4844
 6568TIP3    H141339   1.560   4.852   8.435 -0.6868  0.2977  0.4776
 6568TIP3    H241340   1.631   4.985   8.421 -0.7609  0.2749 -0.1652
 6569TIP3   OH241341   2.895   5.578   8.178 -0.0845 -0.3016  0.4257
 6569TIP3    H141342   2.940   5.510   8.128 -0.1498 -0.1988  0.2235
 6569TIP3    H241343   2.836   5.619   8.115  0.8239  0.7461  0.2063
 6570TIP3   OH241344   3.369   0.262   8.138  0.0712 -0.2667 -0.3164
 6570TIP3    H141345   3.421   0.322   8.086  0.6264 -0.0040  0.5129
 6570TIP3    H241346   3.351   0.188   8.080  0.3230  0.2025 -0.9945
 6571TIP3   OH241347   2.441   4.362   0.627  0.5403 -0.2348 -0.0843
 6571TIP3    H141348   2.347   4.345   0.637  0.3764 -0.4780 -1.7454
 6571TIP3    H241349   2.476   4.354   0.715 -1.0123 -0.0626  0.5818
 6572TIP3   OH241350   2.967   2.585   6.530 -0.0012  0.2826 -0.0696
 6572TIP3    H141351   3.056   2.620   6.543 -0.3778  1.6102 -0.9043
 6572TIP3    H241352   2.910   2.662   6.536 -0.8362 -0.0796 -2.3083
 6573TIP3   OH241353   4.874   0.297   8.129 -0.4332  0.4608  0.2017
 6573TIP3    H141354   4.859   0.372   8.187 -2.7368 -0.1165  0.4612
 6573TIP3    H241355   4.874   0.221   8.188  0.2180  0.1051 -0.2465
 6574TIP3   OH241356   5.794   0.684   0.784 -0.0704  0.3436 -0.0653
 6574TIP3    H141357   5.873   0.636   0.810 -0.0584 -0.1063 -0.9053
 6574TIP3    H241358   5.724   0.645   0.836  0.2732  0.8436  0.7916
 6575TIP3   OH241359   1.376   1.017   1.532  0.2711  0.0224 -0.1055
 6575TIP3    H141360   1.456   1.056   1.568 -0.3998  1.7812 -0.4014
 6575TIP3    H241361   1.305   1.063   1.578 -0.5716 -0.1371 -1.2201
 6576TIP3   OH241362   0.033   3.232   0.443 -0.1764 -0.5081  0.0821
 6576TIP3    H141363   0.015   3.316   0.485  0.9725 -1.0999  1.8766
 6576TIP3    H241364  -0.042   3.177   0.465 -0.4370 -0.2839 -0.2221
 6577TIP3   OH241365   1.625   4.787   0.987 -0.3011  0.3174 -0.5513
 6577TIP3    H141366   1.561   4.716   1.000 -1.7608  0.9602 -3.4982
 6577TIP3    H241367   1.710   4.742   0.987 -1.0636 -1.2129 -0.7039
 6578TIP3   OH241368   5.750   2.002   8.410 -0.6069 -0.5004  0.1265
 6578TIP3    H141369   5.758   1.918   8.454 -0.8097 -0.1225  0.9179
 6578TIP3    H241370   5.673   2.043   8.450  0.7315  0.9753  1.3851
 6579TIP3   OH241371   6.678   3.156   1.169 -0.2677  0.1256 -0.2902
 6579TIP3    H141372   6.601   3.210   1.151 -0.1387  0.4057 -0.0282
 6579TIP3    H241373   6.687   3.100   1.093 -1.1379 -0.4012 -0.0080
 6580TIP3   OH241374   1.812   6.462   7.037 -0.2845 -0.4728 -0.0287
 6580TIP3    H141375   1.776   6.410   7.109 -1.9234  1.2707  0.4770
 6580TIP3    H241376   1.739   6.472   6.976  0.2785  0.4125 -0.5822
 6581TIP3   OH241377   3.523   2.782   0.378  0.2081  0.1959  0.2693
 6581TIP3    H141378   3.524   2.737   0.293 -0.7571  0.5040  0.0877
 6581TIP3    H241379   3.610   2.822   0.384  0.7123 -0.7958 -0.0349
 6582TIP3   OH241380   3.875   6.113   8.192 -0.4826 -0.3718  0.0107
 6582TIP3    H141381   3.923   6.161   8.260 -1.2485 -0.1951  0.4529
 6582TIP3    H241382   3.918   6.028   8.187 -0.6307 -0.5175  0.9918
 6583TIP3   OH241383   4.870   1.020   1.494  0.3390 -0.5825  0.4794
 6583TIP3    H141384   4.791   1.037   1.443  1.8109  1.7558 -1.2126
 6583TIP3    H241385   4.841   1.021   1.585 -1.9965 -2.7229 -0.1288
 6584TIP3   OH241386   6.278   3.510   7.780 -0.3632 -0.1098  0.2339
 6584TIP3    H141387   6.318   3.588   7.741 -0.1382  0.1642  0.9910
 6584TIP3    H241388   6.353   3.454   7.804 -0.4141  0.3629  1.5718
 6585TIP3   OH241389   5.488   4.386   6.438 -0.3242  0.3317  0.5132
 6585TIP3    H141390   5.437   4.434   6.503 -0.3088  0.7391  0.2318
 6585TIP3    H241391   5.547   4.452   6.401  1.5718 -0.4665  1.9862
 6586TIP3   OH241392   6.360   2.578   8.483  0.2340 -0.3551 -0.0266
 6586TIP3    H141393   6.331   2.493   8.516  1.8662 -0.9351  0.0028
 6586TIP3    H241394   6.290   2.606   8.424 -0.4872 -1.5537  0.2196
 6587TIP3   OH241395   1.695   5.522   7.556  0.6796 -0.0540  0.5378
 6587TIP3    H141396   1.786   5.551   7.550  0.2664  1.3483  0.8183
 6587TIP3    H241397   1.644   5.592   7.516 -0.3252 -0.6186  0.7792
 6588TIP3   OH241398   3.444   5.733   1.460 -0.8392  0.5553 -0.0046
 6588TIP3    H141399   3.521   5.700   1.414  0.7968  1.9853  1.5519
 6588TIP3    H241400   3.372   5.726   1.396  0.3142 -1.8144 -1.1418
 6589TIP3   OH241401   2.145   2.010   0.214 -0.0661 -0.3159  0.1233
 6589TIP3    H141402   2.162   1.969   0.129 -1.6498  0.1223 -0.4398
 6589TIP3    H241403   2.109   1.940   0.267 -0.0184 -0.3463  0.1161
 6590TIP3   OH241404   0.502   3.352   1.625 -0.1785  0.0962 -0.6793
 6590TIP3    H141405   0.463   3.269   1.651  0.0791 -0.4562 -1.9411
 6590TIP3    H241406   0.523   3.396   1.707 -0.3474 -1.0725  0.0177
 6591TIP3   OH241407   0.320   0.750   6.401 -0.2202 -0.8325 -0.1772
 6591TIP3    H141408   0.320   0.657   6.422  1.4701 -0.1369  3.8024
 6591TIP3    H241409   0.289   0.792   6.481 -0.7278  2.0865 -1.7723
 6592TIP3   OH241410   3.831   3.019   7.653  0.4889 -0.0797  0.5324
 6592TIP3    H141411   3.866   3.081   7.717 -0.4076  1.4690 -0.4053
 6592TIP3    H241412   3.907   2.968   7.625  1.2866  0.6765  1.2427
 6593TIP3   OH241413   2.991   6.288   1.193 -0.4126 -0.8778 -0.1462
 6593TIP3    H141414   2.917   6.337   1.155  0.5480  0.7585 -0.0242
 6593TIP3    H241415   2.958   6.257   1.278 -0.6843  0.7379  0.3876
 6594TIP3   OH241416   6.279   2.637   1.455 -0.1772 -0.8296 -0.4936
 6594TIP3    H141417   6.246   2.550   1.476 -1.0794 -0.5791 -0.8345
 6594TIP3    H241418   6.229   2.696   1.511 -0.1500 -0.4605 -0.8526
 6595TIP3   OH241419   6.608   4.754   7.328  0.2140 -0.0392  0.5082
 6595TIP3    H141420   6.527   4.743   7.279  0.3090 -0.7142  0.4930
 6595TIP3    H241421   6.580   4.769   7.418  0.0437  1.0173  0.2916
 6596TIP3   OH241422   6.604   5.438   8.137  0.1874  0.2121  0.3455
 6596TIP3    H141423   6.670   5.437   8.207 -0.1947  1.3431  0.7327
 6596TIP3    H241424   6.655   5.432   8.056  0.6406 -1.0529  0.6908
 6597TIP3   OH241425   4.205   0.045   8.369  0.2096  0.0779  0.4702
 6597TIP3    H141426   4.286   0.095   8.375  1.3893 -1.9170  3.3624
 6597TIP3    H241427   4.232  -0.041   8.337 -0.8904 -0.3959  0.7681
 6598TIP3   OH241428   5.491   1.768   8.208  0.1167  0.3163  0.5898
 6598TIP3    H141429   5.528   1.777   8.296  2.5484  0.4442 -0.3639
 6598TIP3    H241430   5.521   1.847   8.161 -0.4131 -0.1519 -0.5765
 6599TIP3   OH241431   2.276   0.364   0.683 -0.3767 -0.1399 -0.5024
 6599TIP3    H141432   2.218   0.291   0.704  0.7734 -0.9671 -0.0790
 6599TIP3    H241433   2.271   0.422   0.759  1.1090 -1.3951  0.6261
 6600TIP3   OH241434   4.783   5.015   1.503  0.1927 -0.1059 -0.4884
 6600TIP3    H141435   4.750   5.015   1.413 -2.3702  1.0191  0.3564
 6600TIP3    H241436   4.768   4.925   1.534  0.0322 -0.2049 -0.8438
 6601TIP3   OH241437   4.553   2.965   8.675 -0.0418  0.6833  0.4643
 6601TIP3    H141438   4.565   2.909   8.752 -0.7824 -1.3531 -0.8015
 6601TIP3    H241439   4.642   2.987   8.648  0.3043 -0.2509  0.7901
 6602TIP3   OH241440   0.909   0.489   7.300  0.2204 -0.3128  0.0280
 6602TIP3    H141441   0.942   0.410   7.258  1.5354  0.2753 -0.0776
 6602TIP3    H241442   0.814   0.484   7.288  0.4860 -0.4353 -2.5535
 6603TIP3   OH241443   2.389   3.421   0.272  0.1823  0.6992  0.1062
 6603TIP3    H141444   2.328   3.348   0.285 -0.5354  1.0573 -1.0680
 6603TIP3    H241445   2.469   3.379   0.240  0.6386  0.2134  1.7838
 6604TIP3   OH241446   0.409   5.719   1.320 -0.4591 -0.5833 -0.4201
 6604TIP3    H141447   0.411   5.658   1.246  0.1299 -2.1204  0.8218
 6604TIP3    H241448   0.365   5.672   1.390  1.7833 -0.4131  1.2271
 6605TIP3   OH241449   1.767   0.421   7.749 -0.1972  0.3744  0.7912
 6605TIP3    H141450   1.746   0.360   7.820  1.6157 -0.3221  0.7950
 6605TIP3    H241451   1.861   0.411   7.737 -0.5699 -0.1961 -2.3375
 6606TIP3   OH241452   0.577   0.348   7.604  0.1195  0.3488 -0.0283
 6606TIP3    H141453   0.618   0.420   7.652 -0.7931  0.4935  0.5608
 6606TIP3    H241454   0.541   0.291   7.672  1.1021 -0.8493 -0.4720
 6607TIP3   OH241455   4.859   0.941   7.164  0.1017  0.2979 -0.1918
 6607TIP3    H141456   4.801   1.017   7.163  1.4570  1.3717 -0.7833
 6607TIP3    H241457   4.820   0.881   7.227 -1.3983  1.1714 -0.2612
 6608TIP3   OH241458   5.598   3.336   8.151 -0.1937  0.0887  0.0086
 6608TIP3    H141459   5.619   3.411   8.095 -0.8691 -0.5276 -1.1034
 6608TIP3    H241460   5.654   3.347   8.228 -0.9315  2.2446  0.3175
 6609TIP3   OH241461   3.387   0.535   7.834 -0.0098  0.0767  0.8278
 6609TIP3    H141462   3.444   0.610   7.816  2.2113 -1.2540  1.8542
 6609TIP3    H241463   3.302   0.560   7.797  1.2514  2.1115 -0.9471
 6610TIP3   OH241464   3.830   6.194   0.207  0.1234 -0.8051 -0.3665
 6610TIP3    H141465   3.895   6.132   0.240  0.3754 -0.6215 -0.5147
 6610TIP3    H241466   3.776   6.143   0.147  2.6508 -0.0755 -3.4937
 6611TIP3   OH241467   4.370   3.350   6.887 -0.4238 -0.3158  0.1242
 6611TIP3    H141468   4.414   3.277   6.929 -1.0734 -1.7589 -1.5585
 6611TIP3    H241469   4.282   3.317   6.866 -1.6824  1.8180  1.6123
 6612TIP3   OH241470   2.573   6.164   8.883 -0.5083 -0.3511  0.0158
 6612TIP3    H141471   2.515   6.136   8.813  1.8599 -2.5131 -1.2752
 6612TIP3    H241472   2.603   6.251   8.856 -0.6121 -0.6222 -1.0158
 6613TIP3   OH241473   4.964   0.804   8.116 -0.1665 -0.5719 -0.0402
 6613TIP3    H141474   4.908   0.856   8.174 -0.0783 -0.5837  0.0551
 6613TIP3    H241475   5.028   0.764   8.174 -0.7664 -1.4936  0.0023
 6614TIP3   OH241476   3.202   1.399   1.832 -0.3513  0.3724 -0.4284
 6614TIP3    H141477   3.176   1.349   1.755 -0.1576 -1.7324  0.8037
 6614TIP3    H241478   3.122   1.442   1.861 -0.8999 -0.5014 -0.6200
 6615TIP3   OH241479   3.311   1.766   1.882 -0.4145 -0.0581  0.4843
 6615TIP3    H141480   3.216   1.757   1.885 -0.3097 -1.7686 -0.3483
 6615TIP3    H241481   3.331   1.783   1.790  0.0568  1.0725  0.7762
 6616TIP3   OH241482   2.001   4.244   8.379  0.7675  0.2525  0.0701
 6616TIP3    H141483   1.926   4.282   8.424  1.2268  1.2285  0.0374
 6616TIP3    H241484   2.050   4.199   8.447 -0.5607 -1.6377 -0.1356
 6617TIP3   OH241485   4.431   1.308   0.575 -0.1563 -0.2675  0.2703
 6617TIP3    H141486   4.415   1.215   0.558 -0.8847 -0.1620  0.3828
 6617TIP3    H241487   4.419   1.349   0.489 -1.1589 -0.0986  0.4893
 6618TIP3   OH241488   1.079   0.893   8.709 -0.4537  0.2054 -0.0998
 6618TIP3    H141489   1.036   0.960   8.761  0.0818 -0.6402  1.5213
 6618TIP3    H241490   1.160   0.874   8.757  0.1858 -0.4484 -1.3913
 6619TIP3   OH241491   0.035   3.741   0.079 -0.0407  0.4576  0.0408
 6619TIP3    H141492   0.088   3.693   0.142 -1.2054 -0.3507  0.4323
 6619TIP3    H241493   0.005   3.675   0.017 -0.1122  1.0052 -0.5188
 6620TIP3   OH241494   3.038   0.376   0.265 -0.0325 -0.4571  0.0753
 6620TIP3    H141495   3.036   0.280   0.271  0.8370 -0.5149 -0.3386
 6620TIP3    H241496   2.961   0.398   0.213  0.0998 -0.9889 -0.3625
 6621TIP3   OH241497   0.005   6.344   1.641 -0.3070  0.0651  0.3230
 6621TIP3    H141498   0.072   6.360   1.706 -1.1037 -0.8855  1.4149
 6621TIP3    H241499   0.048   6.289   1.575  0.0971 -0.2049  0.8072
 6622TIP3   OH241500   4.066   6.521   6.981  0.3871 -1.0009 -0.0749
 6622TIP3    H141501   4.103   6.436   6.960 -2.0301 -2.4378  1.0387
 6622TIP3    H241502   3.971   6.508   6.977 -0.2643  2.5918 -3.5078
 6623TIP3   OH241503   5.173   6.554   7.607 -0.0455 -0.1989  0.5228
 6623TIP3    H141504   5.149   6.562   7.699  1.1813  0.5752  0.8014
 6623TIP3    H241505   5.092   6.532   7.563 -1.0191  1.0945  1.5681
 6624TIP3   OH241506   5.141   0.747   8.301 -0.3152  0.0310 -0.3178
 6624TIP3    H141507   5.198   0.823   8.288  0.4102  0.2286  3.1179
 6624TIP3    H241508   5.200   0.675   8.320 -1.0738 -0.2394  1.2287
 6625TIP3   OH241509   0.423   6.442   6.635  0.1704  0.1965  0.3335
 6625TIP3    H141510   0.494   6.442   6.699  1.6584 -0.1109 -1.2507
 6625TIP3    H241511   0.451   6.504   6.568 -0.1486 -1.2795 -1.2519
 6626TIP3   OH241512   1.868   3.907   0.375  0.6960 -0.1172  0.7487
 6626TIP3    H141513   1.829   3.980   0.326 -1.2812 -2.1332 -0.9109
 6626TIP3    H241514   1.942   3.879   0.320  0.1182 -0.7125  0.2714
 6627TIP3   OH241515   5.826   2.627   0.219 -0.4297 -0.4562  0.2818
 6627TIP3    H141516   5.760   2.615   0.152 -0.3992 -2.5376  0.5573
 6627TIP3    H241517   5.889   2.556   0.204  1.3452  1.0030  0.4952
 6628TIP3   OH241518   3.709   1.263   0.331  0.1785 -0.0066 -0.7193
 6628TIP3    H141519   3.659   1.326   0.383  1.1940  1.4391 -1.4077
 6628TIP3    H241520   3.800   1.291   0.342  0.9979 -2.9667  1.0663
 6629TIP3   OH241521   1.542   5.224   0.580 -0.1929 -0.5701  0.2125
 6629TIP3    H141522   1.599   5.147   0.580  2.1547  0.9996  2.4805
 6629TIP3    H241523   1.526   5.242   0.673 -1.4427  1.1679 -0.2889
 6630TIP3   OH241524   4.480   0.125   8.881 -0.2933 -0.5390 -0.0629
 6630TIP3    H141525   4.497   0.218   8.866  2.1913 -0.4429  2.4768
 6630TIP3    H241526   4.556   0.080   8.843 -0.1917 -1.2690  0.9592
 6631TIP3   OH241527   0.145   2.237   8.600  0.3899  0.1491 -0.0327
 6631TIP3    H141528   0.053   2.231   8.626  0.3235  0.4892 -0.1891
 6631TIP3    H241529   0.192   2.257   8.680  0.1496  1.5370 -0.2084
 6632TIP3   OH241530   2.450   0.944   7.799  0.0984  0.0031  0.0202
 6632TIP3    H141531   2.363   0.984   7.796  0.9807  2.0126 -1.6756
 6632TIP3    H241532   2.483   0.964   7.887 -1.0272 -0.5780  0.5962
 6633TIP3   OH241533   3.376   5.297   5.981  1.1354  0.0059  0.0328
 6633TIP3    H141534   3.457   5.303   6.031 -0.4454 -0.2685  2.8674
 6633TIP3    H241535   3.367   5.203   5.962  0.7336 -0.2120  1.1869
 6634TIP3   OH241536   1.622   5.207   1.506  0.3706 -0.1273 -0.5605
 6634TIP3    H141537   1.638   5.230   1.598 -0.6889  1.5471 -0.7615
 6634TIP3    H241538   1.679   5.131   1.491  1.4675  0.2948  1.1339
 6635TIP3   OH241539   2.580   1.951   6.486  0.3695 -0.1288 -0.0238
 6635TIP3    H141540   2.650   1.929   6.424 -0.9367 -1.0657 -1.2324
 6635TIP3    H241541   2.510   1.987   6.432 -0.3847  0.0904  1.0659
 6636TIP3   OH241542   6.520   5.952   2.563  0.3926 -0.3264  0.6343
 6636TIP3    H141543   6.492   6.019   2.501  0.4167 -0.5155  0.4169
 6636TIP3    H241544   6.593   5.908   2.519  0.4808 -0.3927  0.8418
 6637TIP3   OH241545   1.006   1.409   8.908 -0.0378 -0.1072  0.4647
 6637TIP3    H141546   0.938   1.469   8.936  0.0454 -0.6835  1.9870
 6637TIP3    H241547   1.084   1.463   8.900 -0.5302  0.4484 -0.7330
 6638TIP3   OH241548   1.460   6.021   0.237 -0.0319  0.5712  0.8111
 6638TIP3    H141549   1.388   5.962   0.257  0.0368  0.8554  2.0242
 6638TIP3    H241550   1.538   5.965   0.237 -0.2269  0.2825 -0.3966
 6639TIP3   OH241551   5.704   6.500   6.874 -0.1721  0.1661 -0.0440
 6639TIP3    H141552   5.774   6.486   6.938 -0.3106  2.4194  0.7045
 6639TIP3    H241553   5.733   6.454   6.796  2.3205  1.2337  0.1651
 6640TIP3   OH241554   2.348   6.166   7.207 -0.0317  0.0576 -0.1606
 6640TIP3    H141555   2.293   6.239   7.178  2.3261  0.8629 -3.1234
 6640TIP3    H241556   2.419   6.208   7.256  1.3609 -0.1159 -1.9196
 6641TIP3   OH241557   1.436   5.675   7.618  0.1802  0.0061 -0.0552
 6641TIP3    H141558   1.502   5.709   7.557  0.8611  2.2093  1.7488
 6641TIP3    H241559   1.476   5.685   7.704 -1.6539 -0.7621  0.9361
 6642TIP3   OH241560   4.914   0.443   0.231 -0.1502  0.0084  0.6600
 6642TIP3    H141561   4.830   0.448   0.277 -0.2594  0.0830  0.4549
 6642TIP3    H241562   4.971   0.394   0.291 -0.6823 -1.1113  0.2883
 6643TIP3   OH241563   5.973   4.615   0.894 -0.1098  0.3945 -0.6186
 6643TIP3    H141564   5.997   4.608   0.986  0.3672  1.4099 -0.6531
 6643TIP3    H241565   6.054   4.641   0.850 -0.8289  2.2259 -0.9745
 6644TIP3   OH241566   1.548   3.060   7.128  0.8071  0.5466  0.1225
 6644TIP3    H141567   1.607   3.125   7.166  0.6303 -0.0047  1.3705
 6644TIP3    H241568   1.461   3.098   7.140  0.7203  0.1854  0.6634
 6645TIP3   OH241569   2.583   2.075   6.739 -0.2198  0.0268  0.5785
 6645TIP3    H141570   2.653   2.016   6.767 -0.5324 -0.3551  0.5628
 6645TIP3    H241571   2.580   2.064   6.644 -1.6281 -1.4744  0.7572
 6646TIP3   OH241572   3.617   2.994   2.139 -0.0970 -0.2870 -0.0564
 6646TIP3    H141573   3.700   3.042   2.146  0.8522 -1.6816 -1.0760
 6646TIP3    H241574   3.606   2.954   2.226  0.8035 -0.8167 -0.1630
 6647TIP3   OH241575   5.971   0.462   1.422  0.2049 -0.0936  0.6870
 6647TIP3    H141576   6.036   0.529   1.442  1.9319 -1.8307  1.2249
 6647TIP3    H241577   6.022   0.387   1.390 -1.7274 -0.8023 -0.9882
 6648TIP3   OH241578   1.606   3.887   1.597 -0.3721 -0.7180 -0.7836
 6648TIP3    H141579   1.685   3.834   1.596 -0.2705 -0.6038  0.2567
 6648TIP3    H241580   1.632   3.969   1.639 -0.4004  0.4011 -2.8173
 6649TIP3   OH241581   5.411   3.695   6.954 -0.1129 -0.1319  0.8746
 6649TIP3    H141582   5.374   3.707   7.041  0.5005  2.1294  0.8978
 6649TIP3    H241583   5.341   3.721   6.894 -0.7195 -2.2005  0.6175
 6650TIP3   OH241584   1.986   3.838   1.871  0.5043 -0.6528  0.3311
 6650TIP3    H141585   2.044   3.764   1.888  0.9026 -0.5165 -0.3966
 6650TIP3    H241586   2.044   3.915   1.877  0.1620 -0.4243  0.7471
 6651TIP3   OH241587   3.864   4.075   0.151  0.0839 -0.0034 -0.1154
 6651TIP3    H141588   3.855   4.063   0.245  1.3874 -1.0112 -0.0988
 6651TIP3    H241589   3.778   4.109   0.123 -0.0200  1.2609  1.5492
 6652TIP3   OH241590   5.203   0.286   8.394 -0.3591 -0.3820  0.1167
 6652TIP3    H141591   5.144   0.360   8.376 -0.4979 -0.0902  1.6194
 6652TIP3    H241592   5.155   0.209   8.363 -1.0903 -0.0326  0.3586
 6653TIP3   OH241593   4.625   5.546   7.952  0.1827  0.0416  0.1690
 6653TIP3    H141594   4.532   5.568   7.964  0.2879 -0.1132  1.2985
 6653TIP3    H241595   4.624   5.451   7.938  0.2558 -0.1042  1.1437
 6654TIP3   OH241596   5.659   4.951   1.030  0.7301  0.2516 -0.2422
 6654TIP3    H141597   5.609   4.982   1.106  0.4257  0.4468 -0.5145
 6654TIP3    H241598   5.667   4.857   1.043  0.7027  0.2871  0.0437
 6655TIP3   OH241599   1.463   6.578   8.593 -0.1539  0.6558 -0.0280
 6655TIP3    H141600   1.416   6.609   8.516  0.3755 -0.5562 -0.8641
 6655TIP3    H241601   1.435   6.487   8.604 -0.2929  0.8265  1.2842
 6656TIP3   OH241602   4.612   0.390   0.140  0.0485  0.1226 -0.2327
 6656TIP3    H141603   4.671   0.316   0.152 -1.1329 -0.7530  0.3754
 6656TIP3    H241604   4.628   0.446   0.217 -0.1557 -0.2941  0.1189
 6657TIP3   OH241605   0.111   3.375   6.260  0.1803 -0.5630  0.6604
 6657TIP3    H141606   0.181   3.433   6.228  1.3909 -1.6899  1.1521
 6657TIP3    H241607   0.091   3.407   6.348 -1.1401  0.7818 -0.0806
 6658TIP3   OH241608   0.983   5.873   7.027  0.6183  0.3015 -0.9638
 6658TIP3    H141609   0.982   5.907   7.117 -0.4394 -0.2457 -0.7617
 6658TIP3    H241610   1.055   5.810   7.027  1.0686  0.8032 -0.6969
 6659TIP3   OH241611   2.748   3.781   1.900  0.1719  0.5846  0.1816
 6659TIP3    H141612   2.771   3.873   1.906 -1.2959  0.8917  1.7075
 6659TIP3    H241613   2.659   3.776   1.933  0.5034 -1.4808  0.9383
 6660TIP3   OH241614   1.471   2.166   1.854 -0.3568  0.0608  0.3735
 6660TIP3    H141615   1.563   2.188   1.861 -0.0938 -1.2827  1.7764
 6660TIP3    H241616   1.432   2.199   1.936 -0.2781 -2.8747  1.7089
 6661TIP3   OH241617   0.968   5.589   8.747 -0.1481 -0.1658  0.0888
 6661TIP3    H141618   0.882   5.547   8.752 -0.6143  0.7410 -0.0538
 6661TIP3    H241619   0.961   5.650   8.674 -0.5622  2.4074  2.1257
 6662TIP3   OH241620   5.693   4.474   7.100 -0.1614 -0.1589 -0.3045
 6662TIP3    H141621   5.729   4.561   7.082  1.7984 -0.7246  0.6031
 6662TIP3    H241622   5.607   4.474   7.057  0.2404  1.8395 -1.2157
 6663TIP3   OH241623   5.135   5.597   7.812 -0.0842 -0.4847 -0.2160
 6663TIP3    H141624   5.227   5.579   7.794  0.3175  2.8971 -2.5203
 6663TIP3    H241625   5.089   5.571   7.732 -1.2346 -2.1320  0.9040
 6664TIP3   OH241626   6.134   0.985   1.335  0.2880  0.2713  0.2335
 6664TIP3    H141627   6.045   0.951   1.332  0.2696  0.1419  1.6406
 6664TIP3    H241628   6.130   1.058   1.397  0.7573  1.6128 -1.2170
 6665TIP3   OH241629   1.840   4.027   7.010 -0.3774  0.1840  0.2205
 6665TIP3    H141630   1.750   4.052   6.988  0.6611  1.5087 -3.3300
 6665TIP3    H241631   1.893   4.074   6.945  2.6858 -2.4625  0.6049
 6666TIP3   OH241632   4.052   2.853   8.936  0.1578 -0.4023 -0.0951
 6666TIP3    H141633   4.019   2.943   8.929 -0.5982 -0.5085  1.5852
 6666TIP3    H241634   4.132   2.853   8.884  0.5559  1.4362  0.4354
 6667TIP3   OH241635   4.807   3.746   8.357 -0.1423 -0.4088  0.9899
 6667TIP3    H141636   4.881   3.686   8.352 -0.6291 -1.0627  1.4705
 6667TIP3    H241637   4.739   3.706   8.303 -0.1354  0.2185  0.4975
 6668TIP3   OH241638   3.468   4.411   8.645 -0.0352 -0.0371  0.2791
 6668TIP3    H141639   3.426   4.490   8.609  0.8172 -0.0658 -0.8460
 6668TIP3    H241640   3.438   4.340   8.587 -1.6273 -0.7589  1.8969
 6669TIP3   OH241641   1.699   5.316   0.154 -0.2337 -0.0399  0.0096
 6669TIP3    H141642   1.731   5.342   0.240 -0.1844 -0.3143  0.0753
 6669TIP3    H241643   1.727   5.386   0.095  1.1619 -0.6249 -0.0718
 6670TIP3   OH241644   0.063   4.934   7.605  0.0697 -0.1777  0.1124
 6670TIP3    H141645   0.085   4.980   7.686  0.4514 -0.3346  0.0963
 6670TIP3    H241646   0.008   4.861   7.634 -0.9957  0.5841  0.0864
 6671TIP3   OH241647   0.789   5.624   1.557  0.1693  0.2076 -0.3863
 6671TIP3    H141648   0.765   5.674   1.479  2.0448  1.8030 -0.0414
 6671TIP3    H241649   0.842   5.552   1.524 -1.1111 -0.6041 -0.7469
 6672TIP3   OH241650   1.214   2.116   8.854 -0.1214  0.3240  0.1111
 6672TIP3    H141651   1.135   2.157   8.890 -0.1198  0.7111 -0.3031
 6672TIP3    H241652   1.252   2.068   8.927  1.1007  2.8703  1.2895
 6673TIP3   OH241653   3.847   1.738   8.547  0.1932 -0.0107  0.2067
 6673TIP3    H141654   3.833   1.757   8.455  0.5292 -1.5515 -0.1878
 6673TIP3    H241655   3.910   1.803   8.576 -1.1374  1.5251 -0.2057
 6674TIP3   OH241656   3.015   0.261   6.604 -0.6725 -0.1882 -0.1379
 6674TIP3    H141657   2.941   0.304   6.560 -2.3156 -0.8455  1.8461
 6674TIP3    H241658   3.028   0.311   6.685  0.2862 -0.8206  0.1160
 6675TIP3   OH241659   5.019   2.194   1.473 -0.4401  0.0642 -0.3528
 6675TIP3    H141660   5.026   2.273   1.527  0.7668  0.0855 -0.5140
 6675TIP3    H241661   4.931   2.160   1.491  0.1187 -0.2540  2.0963
 6676TIP3   OH241662   2.683   3.405   0.252  0.6554  0.4941  0.3362
 6676TIP3    H141663   2.729   3.336   0.204  1.8373  0.9877  0.7112
 6676TIP3    H241664   2.649   3.362   0.330  1.7660  0.3932  0.7878
 6677TIP3   OH241665   0.798   1.184   7.194 -0.2159  0.4186  0.1175
 6677TIP3    H141666   0.857   1.204   7.122 -0.7822 -1.0827 -0.8152
 6677TIP3    H241667   0.855   1.151   7.264  0.1612  0.0594 -0.3543
 6678TIP3   OH241668   5.464   4.645   8.154 -0.2698  0.0992 -0.4059
 6678TIP3    H141669   5.507   4.617   8.235 -0.7669  0.9830  0.1888
 6678TIP3    H241670   5.479   4.573   8.092 -0.9744 -1.1920  0.8546
 6679TIP3   OH241671   0.051   5.474   7.614 -0.0440 -0.1473  0.0825
 6679TIP3    H141672   0.121   5.410   7.604 -0.3460 -0.4333 -0.2721
 6679TIP3    H241673   0.093   5.559   7.599  0.2208 -0.3180 -0.1542
 6680TIP3   OH241674   4.837   0.004   0.352 -0.7641  0.8717 -0.7325
 6680TIP3    H141675   4.845  -0.076   0.299 -0.2807  0.6338 -0.3141
 6680TIP3    H241676   4.823   0.074   0.288 -0.0549  0.6108 -1.1829
 6681TIP3   OH241677   4.676   2.571   0.293  0.0616  0.6728 -0.1879
 6681TIP3    H141678   4.610   2.598   0.358 -1.5887  0.2965 -1.6430
 6681TIP3    H241679   4.634   2.587   0.208  1.2428 -1.0751 -1.1560
 6682TIP3   OH241680   3.795   1.155   6.767  0.4431 -0.6276  0.5359
 6682TIP3    H141681   3.760   1.237   6.802  0.5219 -0.1228 -0.5146
 6682TIP3    H241682   3.775   1.090   6.834 -0.9521 -0.0297  0.7476
 6683TIP3   OH241683   2.391   1.449   8.609 -0.7916  0.2986 -0.3335
 6683TIP3    H141684   2.415   1.379   8.670 -0.5136  0.6372 -0.0525
 6683TIP3    H241685   2.301   1.428   8.583 -0.4944 -0.5149 -0.7509
 6684TIP3   OH241686   1.697   2.541   8.427 -0.1581  0.4145 -0.7955
 6684TIP3    H141687   1.634   2.570   8.360  0.7441  0.4199 -1.6557
 6684TIP3    H241688   1.768   2.500   8.378 -0.3371 -1.2744  0.2716
 6685TIP3   OH241689   5.820   6.612   0.305 -0.2390  0.3641  0.2067
 6685TIP3    H141690   5.725   6.617   0.295 -0.0987  0.3133 -1.3063
 6685TIP3    H241691   5.849   6.703   0.306 -0.2488  0.3700  0.0179
 6686TIP3   OH241692   6.594   1.095   2.147 -0.4186 -0.0453  0.5325
 6686TIP3    H141693   6.689   1.100   2.136 -0.0733 -1.3452  2.5110
 6686TIP3    H241694   6.567   1.184   2.169  0.3922  0.2646  0.2693
 6687TIP3   OH241695   5.924   5.173   8.860 -0.2413  0.1789  0.2327
 6687TIP3    H141696   5.998   5.232   8.872  0.3039 -0.7610  1.7183
 6687TIP3    H241697   5.963   5.090   8.832 -0.9097  0.1873 -0.7998
 6688TIP3   OH241698   2.094   4.839   6.660 -0.3518 -0.3735  0.3093
 6688TIP3    H141699   2.120   4.920   6.616  1.6712 -0.9913  0.2332
 6688TIP3    H241700   2.018   4.863   6.712 -0.5009  1.2899 -0.5974
 6689TIP3   OH241701   0.698   5.848   8.038 -0.2722  0.4967  0.5353
 6689TIP3    H141702   0.689   5.942   8.026 -0.2579  0.4763  0.3641
 6689TIP3    H241703   0.628   5.810   7.984 -1.5596  0.4863  2.1552
 6690TIP3   OH241704   1.575   5.335   7.712 -0.0980 -0.0084  0.0363
 6690TIP3    H141705   1.610   5.410   7.663  0.0567  0.6991  1.1951
 6690TIP3    H241706   1.528   5.374   7.786 -0.3972 -1.0476  0.4089
 6691TIP3   OH241707   2.892   0.612   8.625  0.0058  0.1926  0.5188
 6691TIP3    H141708   2.858   0.689   8.579  0.3009  0.7802  1.2620
 6691TIP3    H241709   2.904   0.547   8.556 -0.0480  0.8791 -0.1605
 6692TIP3   OH241710   6.555   4.406   7.751 -0.1539 -0.8905 -0.2299
 6692TIP3    H141711   6.483   4.384   7.810 -0.6178  0.4452 -0.2596
 6692TIP3    H241712   6.513   4.445   7.675  0.4754 -2.1835 -1.2751
 6693TIP3   OH241713   5.738   5.124   2.002  0.0949  0.2026 -0.3320
 6693TIP3    H141714   5.832   5.109   2.010  0.1102  0.1250 -0.6425
 6693TIP3    H241715   5.714   5.173   2.081  0.5453  0.9856 -0.6708
 6694TIP3   OH241716   3.230   5.426   7.050  0.0781 -0.5750  0.3228
 6694TIP3    H141717   3.144   5.466   7.038  0.0147 -0.3728  1.3363
 6694TIP3    H241718   3.272   5.432   6.964 -0.7282 -0.2302 -0.0563
 6695TIP3   OH241719   0.069   4.511   8.307 -0.1218  1.0583 -0.1411
 6695TIP3    H141720   0.136   4.502   8.239 -1.2904  0.5228 -1.2643
 6695TIP3    H241721   0.108   4.468   8.384  0.3379 -0.3808 -1.1339
 6696TIP3   OH241722   6.486   5.190   8.978 -0.1679 -0.3266 -0.0894
 6696TIP3    H141723   6.542   5.209   9.053 -1.3093 -0.8987  0.9519
 6696TIP3    H241724   6.400   5.173   9.016 -0.1910 -3.4891 -1.1902
 6697TIP3   OH241725   2.340   0.834   2.318  0.4775  0.4133  0.3914
 6697TIP3    H141726   2.244   0.830   2.322  0.4197  1.5585  0.3604
 6697TIP3    H241727   2.364   0.758   2.265 -0.3839 -0.1028  0.7091
 6698TIP3   OH241728   2.034   3.011   2.108 -0.1926 -0.5420 -0.6940
 6698TIP3    H141729   2.008   2.919   2.116  1.0296 -1.0692 -2.3607
 6698TIP3    H241730   2.080   3.029   2.190 -2.7985 -0.5392  0.8721
 6699TIP3   OH241731   1.906   6.740   1.017 -0.1547  0.1890 -0.4588
 6699TIP3    H141732   1.864   6.817   0.978  0.3105  0.9261  0.4291
 6699TIP3    H241733   1.834   6.686   1.049 -0.4803  0.4810 -0.6945
 6700TIP3   OH241734   1.011   0.015   8.709  0.1524 -0.0520 -0.4176
 6700TIP3    H141735   1.089  -0.037   8.688 -0.1341 -1.4811  1.6903
 6700TIP3    H241736   0.952  -0.048   8.751 -0.6662  1.7643  1.2894
 6701TIP3   OH241737   3.628   5.962   1.142  0.1247 -0.1691 -0.4366
 6701TIP3    H141738   3.601   6.018   1.070 -0.0515 -0.4258 -0.5718
 6701TIP3    H241739   3.576   5.882   1.131  0.0634 -0.1898  0.0009
 6702TIP3   OH241740   2.223   5.293   8.286  0.2302  0.8209 -0.6278
 6702TIP3    H141741   2.243   5.299   8.192  0.6574 -2.1443 -0.8305
 6702TIP3    H241742   2.152   5.356   8.299 -0.7863  0.4037 -3.2693
 6703TIP3   OH241743   2.959   0.143   0.417 -0.0650 -0.0574  0.3807
 6703TIP3    H141744   2.940   0.067   0.362  0.0356  0.1149  0.1046
 6703TIP3    H241745   2.878   0.194   0.416  0.4246  0.7686 -0.9430
 6704TIP3   OH241746   3.654   4.552   0.621  0.2640  0.7665  0.5765
 6704TIP3    H141747   3.724   4.487   0.631  1.0707  1.5908  0.4590
 6704TIP3    H241748   3.591   4.511   0.561  1.1119  0.3697 -0.0676
 6705TIP3   OH241749   2.055   6.379   7.991 -0.1285  0.8996  0.4631
 6705TIP3    H141750   1.994   6.380   7.918 -1.8715  2.2044  1.8504
 6705TIP3    H241751   2.098   6.465   7.987  1.8967 -0.0984 -0.6513
 6706TIP3   OH241752   5.458   2.963   8.652  0.0347 -0.3952 -0.0977
 6706TIP3    H141753   5.368   2.951   8.682 -0.6126 -1.2754 -2.2036
 6706TIP3    H241754   5.509   2.972   8.733 -1.6841 -1.6157  1.1991
 6707TIP3   OH241755   6.721   0.586   7.397 -0.1345 -0.2821 -0.2954
 6707TIP3    H141756   6.660   0.515   7.376  0.9089 -1.4041  0.3466
 6707TIP3    H241757   6.730   0.583   7.492  0.0358  0.6334 -0.2737
 6708TIP3   OH241758   3.553   6.376   7.434  0.1118  0.4543  0.8598
 6708TIP3    H141759   3.613   6.313   7.475 -0.6032 -0.0094  1.2177
 6708TIP3    H241760   3.608   6.425   7.373  1.3733  1.6812  2.8997
 6709TIP3   OH241761   5.488   6.283   1.313 -0.0551  0.0874  0.4039
 6709TIP3    H141762   5.474   6.227   1.389  2.4574 -0.6127  0.4360
 6709TIP3    H241763   5.540   6.229   1.252 -1.0438  1.0133 -1.3464
 6710TIP3   OH241764   2.598   1.253   8.340  0.2362 -0.0831  0.3929
 6710TIP3    H141765   2.526   1.207   8.383 -0.2628 -0.3335 -0.6797
 6710TIP3    H241766   2.555   1.315   8.281  0.8965  1.4958  1.5004
 6711TIP3   OH241767   3.474   2.007   7.005 -0.0695  0.3412 -0.4541
 6711TIP3    H141768   3.500   1.937   7.064  1.2498  0.9373 -0.2721
 6711TIP3    H241769   3.384   1.987   6.981 -0.3425 -0.3772  1.0770
 6712TIP3   OH241770   0.323   2.505   1.629  1.2743 -0.3432  0.1651
 6712TIP3    H141771   0.277   2.427   1.661  0.0261  0.6406  0.8554
 6712TIP3    H241772   0.287   2.520   1.542 -0.7310  1.1172  1.1522
 6713TIP3   OH241773   5.010   4.837   7.149  0.0267  0.1289  0.5414
 6713TIP3    H141774   4.961   4.755   7.139 -1.1469  0.5365  2.3909
 6713TIP3    H241775   5.102   4.812   7.138 -0.4330 -1.0485 -0.9124
 6714TIP3   OH241776   1.410   4.403   6.782  0.4766 -0.2673 -0.3658
 6714TIP3    H141777   1.372   4.467   6.722 -0.0439 -0.2897 -0.0668
 6714TIP3    H241778   1.484   4.367   6.734  2.1058  2.0475  0.2104
 6715TIP3   OH241779   1.585   2.626   8.857 -0.2252  0.4134 -0.2061
 6715TIP3    H141780   1.536   2.619   8.775  0.3208 -0.1651 -0.4999
 6715TIP3    H241781   1.654   2.689   8.838  1.6061 -1.7117 -1.1274
 6716TIP3   OH241782   3.442   6.010   1.863 -0.3082  0.1480 -0.0274
 6716TIP3    H141783   3.507   6.018   1.932  0.5590  0.7021 -0.8910
 6716TIP3    H241784   3.470   5.934   1.813 -0.7902 -0.0968  0.0679
 6717TIP3   OH241785   5.271   6.490   2.039  0.4598  0.2009 -0.2777
 6717TIP3    H141786   5.349   6.535   2.072  0.5363  0.1090 -0.3312
 6717TIP3    H241787   5.234   6.549   1.974  0.7466  0.0433 -0.5873
 6718TIP3   OH241788   6.366   5.099   0.304 -0.2510 -0.1187 -0.4092
 6718TIP3    H141789   6.284   5.131   0.265 -0.1699 -0.2285 -0.6721
 6718TIP3    H241790   6.416   5.178   0.323 -0.1832 -0.0743 -0.7655
 6719TIP3   OH241791   5.206   2.272   6.965 -0.3235 -0.1697 -0.1235
 6719TIP3    H141792   5.294   2.294   6.934 -0.2951 -0.7340 -0.4556
 6719TIP3    H241793   5.219   2.200   7.026 -0.3895  0.8834  1.1761
 6720TIP3   OH241794   6.349   4.560   1.490  0.4097 -0.1514 -0.4678
 6720TIP3    H141795   6.427   4.615   1.501 -0.8308  1.5957  0.0904
 6720TIP3    H241796   6.330   4.527   1.578  0.3604 -0.3280 -0.5447
 6721TIP3   OH241797   0.070   2.775   7.697 -0.6050 -0.0173 -0.4165
 6721TIP3    H141798   0.087   2.681   7.687 -1.6937 -0.4009  1.0709
 6721TIP3    H241799   0.081   2.811   7.609  2.3344 -1.0885 -0.5826
 6722TIP3   OH241800   0.443   0.001   7.736 -0.3880  0.6844  0.0436
 6722TIP3    H141801   0.421   0.094   7.747  1.2644  0.9815  1.1845
 6722TIP3    H241802   0.436  -0.036   7.825 -0.0473 -0.0551 -0.2293
 6723TIP3   OH241803   1.200   6.440   7.885  0.4121  0.0009  0.0126
 6723TIP3    H141804   1.166   6.518   7.842 -0.6230 -0.2899  0.2628
 6723TIP3    H241805   1.233   6.385   7.814 -0.4202 -0.0628 -0.3422
 6724TIP3   OH241806   5.509   3.056   8.290  0.7472 -0.3601 -0.0618
 6724TIP3    H141807   5.533   3.016   8.374  1.1047 -0.2140 -0.0916
 6724TIP3    H241808   5.587   3.105   8.264  0.4395  0.0642 -0.1999
 6725TIP3   OH241809   1.587   1.490   6.254  0.0547 -0.2463  0.3078
 6725TIP3    H141810   1.608   1.576   6.218  0.7673 -0.4624  0.1884
 6725TIP3    H241811   1.663   1.467   6.309 -0.6153 -0.3124  1.2406
 6726TIP3   OH241812   4.566   1.955   1.431 -0.8692 -0.1977 -0.0807
 6726TIP3    H141813   4.602   1.899   1.500  0.6006  0.9122  0.0961
 6726TIP3    H241814   4.548   1.895   1.358 -2.0377 -1.3143  1.0743
 6727TIP3   OH241815   2.440   0.741   1.001 -0.0606 -0.1700 -0.2340
 6727TIP3    H141816   2.412   0.821   0.957  0.3621  0.0787 -0.0565
 6727TIP3    H241817   2.491   0.694   0.934  0.7463  0.2990  0.0367
 6728TIP3   OH241818   4.581   2.762   1.905 -0.0725  0.2142  0.0666
 6728TIP3    H141819   4.515   2.824   1.874 -1.2272 -1.0047 -0.0119
 6728TIP3    H241820   4.547   2.677   1.877  1.2956 -0.4776  0.4849
 6729TIP3   OH241821   0.191   2.232   1.462 -0.1830 -0.2303 -0.9345
 6729TIP3    H141822   0.230   2.291   1.397  3.5681  0.3231  1.4993
 6729TIP3    H241823   0.126   2.286   1.507  0.0447  0.6412 -1.6249
 6730TIP3   OH241824   5.404   2.313   0.008 -0.1423 -0.0729 -0.5966
 6730TIP3    H141825   5.430   2.280   0.094 -0.7932  1.9387  0.4479
 6730TIP3    H241826   5.389   2.234  -0.045 -0.2427 -1.3801  1.2878
 6731TIP3   OH241827   0.663   4.779   0.540  0.7139 -0.3236 -0.3004
 6731TIP3    H141828   0.664   4.808   0.631  0.4934 -1.7836  0.1924
 6731TIP3    H241829   0.749   4.740   0.526  0.5474 -0.6111 -0.5431
 6732TIP3   OH241830   3.715   1.266   1.903  0.5649 -0.6054 -0.0183
 6732TIP3    H141831   3.751   1.300   1.820  0.3052  1.4733  0.6638
 6732TIP3    H241832   3.628   1.234   1.881  0.4739 -0.0049 -0.5409
 6733TIP3   OH241833   0.217   6.017   7.466  0.2375  0.0681  0.4972
 6733TIP3    H141834   0.248   5.939   7.419 -0.8374  0.6477 -1.2725
 6733TIP3    H241835   0.122   6.007   7.470  0.2151  0.5670  1.6462
 6734TIP3   OH241836   4.284   0.700   8.282 -0.6413 -0.2441  0.0038
 6734TIP3    H141837   4.192   0.686   8.302 -0.7776  1.4849  0.8109
 6734TIP3    H241838   4.315   0.616   8.248 -2.0371 -1.4149  1.4780
 6735TIP3   OH241839   6.153   5.607   1.991  0.2067 -0.1302 -0.1054
 6735TIP3    H141840   6.061   5.590   2.012  0.2272  0.4492  0.5002
 6735TIP3    H241841   6.154   5.620   1.896 -0.6672  1.7012  0.0947
 6736TIP3   OH241842   6.162   6.721   7.765  0.8925 -0.7012 -0.5100
 6736TIP3    H141843   6.160   6.671   7.846 -1.3458 -1.6759 -1.0915
 6736TIP3    H241844   6.159   6.656   7.695 -0.7029  0.1329 -1.2980
 6737TIP3   OH241845   4.673   3.906   6.881  0.1320  0.6944  0.1344
 6737TIP3    H141846   4.594   3.856   6.862  0.8056 -0.2369 -0.3498
 6737TIP3    H241847   4.652   3.996   6.857 -1.0788  0.6314  0.9056
 6738TIP3   OH241848   4.349   6.694   7.391 -0.3278 -0.1623 -0.3869
 6738TIP3    H141849   4.255   6.685   7.380 -0.1333 -2.5993 -0.6551
 6738TIP3    H241850   4.370   6.640   7.467  0.9546 -0.4249 -0.9031
 6739TIP3   OH241851   3.931   0.880   8.200 -0.0027  0.5002 -0.4189
 6739TIP3    H141852   3.898   0.969   8.211  0.6826  0.7575 -0.3493
 6739TIP3    H241853   3.978   0.883   8.116  0.4329  0.3373 -0.1849
 6740TIP3   OH241854   2.021   5.017   1.676  0.8431 -0.6891 -0.4424
 6740TIP3    H141855   2.082   5.037   1.747  1.4913  0.0561 -1.1911
 6740TIP3    H241856   2.012   4.922   1.678  0.5192 -0.6572  0.9014
 6741TIP3   OH241857   5.697   1.082   1.927 -0.1301 -0.4920 -0.2471
 6741TIP3    H141858   5.719   1.038   1.845  2.4387 -0.3417  0.2621
 6741TIP3    H241859   5.704   1.013   1.994  1.0221  0.0170  0.1931
 6742TIP3   OH241860   4.161   4.689   2.103 -0.2655 -0.2929 -0.0327
 6742TIP3    H141861   4.167   4.666   2.196  1.0461 -2.0477 -0.4997
 6742TIP3    H241862   4.070   4.670   2.080 -0.4581 -0.3766  0.7578
 6743TIP3   OH241863   3.584   0.578   7.201 -0.5316  0.2460 -0.2887
 6743TIP3    H141864   3.547   0.575   7.289  2.5871 -0.9729  1.1581
 6743TIP3    H241865   3.632   0.661   7.198 -0.2362  0.0660 -0.6336
 6744TIP3   OH241866   0.900   5.623   0.760 -0.1084 -0.1524 -0.2650
 6744TIP3    H141867   0.891   5.691   0.693  0.3969 -0.2817 -0.4628
 6744TIP3    H241868   0.903   5.541   0.711 -3.2396 -0.5964  0.0615
 6745TIP3   OH241869   0.769   2.947   0.381 -0.2469  0.0007 -0.4359
 6745TIP3    H141870   0.751   3.005   0.456 -1.5698 -0.2916 -0.5181
 6745TIP3    H241871   0.690   2.950   0.328  0.1679 -0.8688 -1.1265
 6746TIP3   OH241872   4.033   4.505   1.081  0.3807 -0.2380  0.0567
 6746TIP3    H141873   4.056   4.571   1.146  1.1921  0.2585 -0.7167
 6746TIP3    H241874   3.991   4.436   1.132  0.0838  0.5862  0.9656
 6747TIP3   OH241875   0.146   1.012   1.366  0.2750  0.3473  0.4038
 6747TIP3    H141876   0.194   0.930   1.356  0.3327  0.3946  0.2877
 6747TIP3    H241877   0.194   1.060   1.434 -0.9469 -0.5850  2.0174
 6748TIP3   OH241878   1.991   2.704   1.388  0.2101  0.2469  0.0069
 6748TIP3    H141879   2.010   2.706   1.294  1.4622  2.1242  0.2454
 6748TIP3    H241880   1.903   2.742   1.395  0.6069  1.2608 -0.3299
 6749TIP3   OH241881   2.429   2.111   1.488 -0.0618 -0.4123  0.1832
 6749TIP3    H141882   2.486   2.071   1.422  0.8885  0.2315  0.6002
 6749TIP3    H241883   2.486   2.126   1.563 -0.5554  1.0766  0.2864
 6750TIP3   OH241884   2.604   1.141   1.490  0.5348 -0.1465  0.0311
 6750TIP3    H141885   2.675   1.203   1.505 -0.1779  0.4401  1.1472
 6750TIP3    H241886   2.527   1.183   1.528 -0.4579 -0.6910 -1.3150
 6751TIP3   OH241887   5.343   3.817   1.238 -0.2336 -0.7341 -0.0713
 6751TIP3    H141888   5.313   3.870   1.165 -0.2841  0.1924  0.6022
 6751TIP3    H241889   5.275   3.749   1.247 -0.0015 -1.1251 -1.1384
 6752TIP3   OH241890   2.277   1.186   1.073  0.7815  0.1650  0.1498
 6752TIP3    H141891   2.228   1.265   1.094  1.0080  0.2451  0.3802
 6752TIP3    H241892   2.323   1.164   1.154  0.2457 -0.5448  0.2674
 6753TIP3   OH241893   4.874   4.015   8.269  0.0402 -0.3096 -0.6108
 6753TIP3    H141894   4.847   3.923   8.280  1.4298 -0.6021  0.7280
 6753TIP3    H241895   4.962   4.010   8.232  0.5455  0.4186  0.4318
 6754TIP3   OH241896   1.604   6.499   6.877 -0.7231 -0.1620  0.2649
 6754TIP3    H141897   1.564   6.413   6.866 -1.6958  0.3384 -0.3143
 6754TIP3    H241898   1.596   6.540   6.791  2.2648 -0.4957 -0.2649
 6755TIP3   OH241899   3.971   2.892   1.435  0.3597  0.4325  0.1133
 6755TIP3    H141900   4.048   2.875   1.489 -0.2127 -0.1594  0.7641
 6755TIP3    H241901   3.918   2.813   1.442  0.4334  0.1854 -1.6266
 6756TIP3   OH241902   1.885   2.556   0.639 -0.7138 -0.0880  0.7114
 6756TIP3    H141903   1.971   2.580   0.675  0.6800 -2.5655 -0.7299
 6756TIP3    H241904   1.832   2.532   0.715  0.2453  0.3454  1.5307
 6757TIP3   OH241905   1.780   4.853   7.149 -0.0707 -0.8461  0.2057
 6757TIP3    H141906   1.823   4.780   7.194  1.3843  0.0169  0.2790
 6757TIP3    H241907   1.710   4.880   7.208  0.8229 -0.7334  1.2444
 6758TIP3   OH241908   3.699   1.190   1.285 -0.1201  0.0311  0.2038
 6758TIP3    H141909   3.757   1.137   1.339  3.8095  3.1491 -0.4205
 6758TIP3    H241910   3.674   1.263   1.342 -0.9882  0.2496 -0.4397
 6759TIP3   OH241911   0.647   4.865   0.802 -0.6922  0.2103  0.0876
 6759TIP3    H141912   0.672   4.958   0.793 -0.5105  0.2730  1.1221
 6759TIP3    H241913   0.713   4.829   0.861 -1.3799 -0.3225  0.5392
 6760TIP3   OH241914   3.018   3.543   0.681 -0.2301  0.4850 -0.1368
 6760TIP3    H141915   2.963   3.467   0.702 -0.9968  1.1810  0.4147
 6760TIP3    H241916   2.959   3.618   0.684  0.7722  1.2901  0.6723
 6761TIP3   OH241917   2.560   2.463   7.393 -0.1729 -0.5082  0.1556
 6761TIP3    H141918   2.479   2.414   7.411  1.0440 -2.6526  0.1106
 6761TIP3    H241919   2.552   2.541   7.447 -2.8436  0.0326 -0.8392
 6762TIP3   OH241920   2.946   5.203   7.140 -0.4171 -0.6159  0.1836
 6762TIP3    H141921   2.993   5.124   7.113  0.2192 -0.2679  0.2489
 6762TIP3    H241922   2.854   5.182   7.126 -0.2210 -1.1734 -0.3304
 6763TIP3   OH241923   3.036   2.001   7.152  0.5989  0.0653  0.0964
 6763TIP3    H141924   3.070   1.925   7.199  0.2436 -1.1803 -1.5553
 6763TIP3    H241925   3.085   2.003   7.070 -0.8535  0.3381 -0.8041
 6764TIP3   OH241926   3.419   4.189   1.646 -0.3600 -0.1496 -0.4350
 6764TIP3    H141927   3.455   4.244   1.717 -0.4333 -1.5084  0.6905
 6764TIP3    H241928   3.325   4.189   1.661 -0.4226 -0.0697 -0.8214
 6765TIP3   OH241929   2.423   3.750   6.758 -0.6628 -0.4822 -0.2635
 6765TIP3    H141930   2.410   3.714   6.670  1.2204 -0.5679 -0.5391
 6765TIP3    H241931   2.402   3.843   6.748  1.9374  0.0553 -1.4765
 6766TIP3   OH241932   4.170   5.915   6.945  0.4666 -0.4965  0.0040
 6766TIP3    H141933   4.088   5.889   6.988  0.9299  0.8079  1.7780
 6766TIP3    H241934   4.157   5.891   6.854 -1.7197 -0.7482  0.3183
 6767TIP3   OH241935   1.049   6.292   6.793  0.2917 -0.4099  0.5511
 6767TIP3    H141936   1.069   6.335   6.709 -1.6874  0.1390  0.3241
 6767TIP3    H241937   1.130   6.302   6.844  1.3243 -0.1720 -1.0303
 6768TIP3   OH241938   4.368   1.166   1.066  0.1029  0.4576  0.5414
 6768TIP3    H141939   4.327   1.126   0.989 -0.7022 -0.7091  1.5365
 6768TIP3    H241940   4.318   1.245   1.082  1.0096  1.3433 -0.7953
 6769TIP3   OH241941   1.243   4.352   7.139 -0.0802  0.0907 -0.2889
 6769TIP3    H141942   1.260   4.297   7.216 -2.0052  0.0602  0.1707
 6769TIP3    H241943   1.243   4.292   7.065  0.7953 -0.0336 -0.2009
 6770TIP3   OH241944   0.952   1.079   7.408 -0.3199 -0.3760 -0.1378
 6770TIP3    H141945   1.012   1.019   7.450  1.1649  0.5021 -0.8888
 6770TIP3    H241946   0.908   1.125   7.480  2.3175  1.2637  0.5698
 6771TIP3   OH241947   6.361   3.681   1.362  0.1655 -0.0466 -0.2746
 6771TIP3    H141948   6.322   3.611   1.415  0.2955  0.0117 -0.1050
 6771TIP3    H241949   6.434   3.638   1.316 -1.5667 -0.8159 -2.5232
 6772TIP3   OH241950   4.766   4.100   7.321  0.4529  0.3229  0.5897
 6772TIP3    H141951   4.721   4.027   7.362 -2.3794  1.1330 -0.8239
 6772TIP3    H241952   4.800   4.065   7.238 -2.0725  0.8134 -0.7309
 6773TIP3   OH241953   0.188   5.874   0.289 -0.1633  0.0425 -0.4982
 6773TIP3    H141954   0.203   5.867   0.195 -1.9466  0.1489 -0.8333
 6773TIP3    H241955   0.193   5.968   0.308 -0.0523  0.0447 -0.5435
 6774TIP3   OH241956   6.013   1.056   2.425 -0.5511  0.2006  0.5166
 6774TIP3    H141957   6.067   1.039   2.348  0.5154  2.5365  0.6535
 6774TIP3    H241958   6.048   1.137   2.462 -2.5341  0.4220  2.1312
 6775TIP3   OH241959   2.376   6.276   7.937 -0.3213  0.0145  0.0938
 6775TIP3    H141960   2.329   6.235   8.010 -0.6535  1.3697  0.6703
 6775TIP3    H241961   2.358   6.220   7.862 -0.0835 -1.3412  1.0043
 6776TIP3   OH241962   2.538   4.496   6.942 -0.2048  0.4320 -0.5933
 6776TIP3    H141963   2.554   4.498   7.036  0.5304 -0.7398 -0.6702
 6776TIP3    H241964   2.613   4.449   6.906 -1.8917 -1.8242 -1.4088
 6777TIP3   OH241965   2.958   6.551   7.564 -0.1871 -0.1281  0.4873
 6777TIP3    H141966   2.898   6.507   7.624  0.1111  0.3473  1.1504
 6777TIP3    H241967   3.022   6.593   7.621  1.1887 -1.1790 -0.2155
 6778TIP3   OH241968   5.930   1.530   8.206  0.1019  0.0176 -0.2968
 6778TIP3    H141969   6.014   1.488   8.186  1.2329  1.6749  0.7859
 6778TIP3    H241970   5.918   1.516   8.300 -1.0222 -0.4821 -0.5027
 6779TIP3   OH241971   4.307   1.334   8.863  0.5444  0.1035  0.4056
 6779TIP3    H141972   4.334   1.373   8.780 -1.3033  2.4227  0.8010
 6779TIP3    H241973   4.230   1.282   8.842  1.3608 -1.1354  0.3561
 6780TIP3   OH241974   6.087   2.610   1.085  0.4561  0.2074  0.8527
 6780TIP3    H141975   6.064   2.522   1.115  0.3391  0.9520  3.2008
 6780TIP3    H241976   6.072   2.666   1.161  1.0709  2.1890 -0.3905
 6781TIP3   OH241977   0.730   4.498   7.020 -0.0134 -0.5775 -0.6905
 6781TIP3    H141978   0.813   4.455   7.003 -0.2346 -0.9286 -0.8943
 6781TIP3    H241979   0.728   4.508   7.115  0.3747 -0.3327 -0.7070
 6782TIP3   OH241980   6.563   5.737   2.253 -0.5103 -0.2206 -0.0232
 6782TIP3    H141981   6.602   5.651   2.235 -2.0160 -0.7754 -0.8266
 6782TIP3    H241982   6.601   5.764   2.337 -0.2115 -1.7830  0.3705
 6783TIP3   OH241983   3.105   6.212   0.226 -0.0789 -0.0543 -0.4908
 6783TIP3    H141984   3.137   6.165   0.148  0.7844  0.8249 -0.6927
 6783TIP3    H241985   3.033   6.266   0.193 -0.8031 -0.8971 -0.3379
 6784TIP3   OH241986   0.119   0.368   0.391 -0.4739 -0.8388 -0.3219
 6784TIP3    H141987   0.145   0.458   0.411 -1.1438 -0.2970 -1.7533
 6784TIP3    H241988   0.050   0.349   0.454 -0.3292 -0.3463 -0.0055
 6785TIP3   OH241989   3.115   5.524   0.198 -0.0892 -0.4087 -0.1301
 6785TIP3    H141990   3.206   5.518   0.226 -0.1316 -0.9902 -0.0947
 6785TIP3    H241991   3.072   5.574   0.268  0.0043 -1.0072  0.3628
 6786TIP3   OH241992   0.512   5.605   8.565 -0.1102  0.0620  0.2314
 6786TIP3    H141993   0.574   5.603   8.492 -0.4854  0.5107 -0.1050
 6786TIP3    H241994   0.482   5.514   8.573  1.7033 -0.4900  1.3862
 6787TIP3   OH241995   1.442   4.314   0.719 -0.0084  0.3044 -0.1859
 6787TIP3    H141996   1.460   4.382   0.654  0.7135  0.1406 -0.1606
 6787TIP3    H241997   1.506   4.328   0.788  0.9020 -1.0810 -0.6953
 6788TIP3   OH241998   5.056   2.420   1.666  0.7583  0.2333  0.5538
 6788TIP3    H141999   5.083   2.405   1.757 -0.1689  0.7200  0.9184
 6788TIP3    H242000   5.008   2.503   1.669  1.1978  0.5421 -0.4837
 6789TIP3   OH242001   2.833   0.860   6.943 -0.7379 -0.0754  0.2310
 6789TIP3    H142002   2.815   0.770   6.914 -2.9076  0.4213 -0.1181
 6789TIP3    H242003   2.797   0.864   7.031  0.2348  0.1950  0.6264
 6790TIP3   OH242004   5.862   6.002   7.928  0.3631  0.0518 -0.2788
 6790TIP3    H142005   5.896   5.952   7.854 -0.0084 -0.7447  0.0741
 6790TIP3    H242006   5.785   6.047   7.893  0.0248 -0.5427 -0.3220
 6791TIP3   OH242007   3.276   2.938   7.036 -0.7073  0.0072 -0.2135
 6791TIP3    H142008   3.273   2.856   6.986  3.1220 -1.0619  0.9186
 6791TIP3    H242009   3.369   2.962   7.036 -1.3259  2.8735  1.8381
 6792TIP3   OH242010   1.497   1.839   8.391  0.0455  0.2585  0.0578
 6792TIP3    H142011   1.408   1.863   8.367  0.4947  0.3234 -1.7031
 6792TIP3    H242012   1.514   1.757   8.344  0.4465 -0.5335  1.5219
 6793TIP3   OH242013   2.102   4.373   2.304 -0.4086  0.0785  0.2304
 6793TIP3    H142014   2.188   4.413   2.316 -0.3794 -0.4501  2.0830
 6793TIP3    H242015   2.114   4.314   2.229  0.9222 -0.1522  0.5932
 6794TIP3   OH242016   4.683   5.477   7.120 -0.0090 -0.4668  0.0467
 6794TIP3    H142017   4.663   5.449   7.031 -3.0690 -0.0652  0.4994
 6794TIP3    H242018   4.739   5.408   7.155  0.9013 -0.8515 -2.0008
 6795TIP3   OH242019   2.356   2.552   7.822 -0.1392 -0.4107  0.2402
 6795TIP3    H142020   2.294   2.577   7.891  0.1741 -1.2020  0.8235
 6795TIP3    H242021   2.433   2.607   7.838 -0.1928 -0.3608  0.3249
 6796TIP3   OH242022   2.367   3.281   0.634  0.5584 -0.6388 -0.3866
 6796TIP3    H142023   2.384   3.223   0.709 -1.0356 -0.3837  0.2133
 6796TIP3    H242024   2.427   3.354   0.645  1.4287 -1.3610 -0.2326
 6797TIP3   OH242025   1.111   1.076   0.654  0.0130  0.3054 -0.1801
 6797TIP3    H142026   1.142   1.161   0.625 -0.0411  0.3936  0.0159
 6797TIP3    H242027   1.091   1.028   0.573 -0.6135  0.7259 -0.2781
 6798TIP3   OH242028   4.752   3.484   1.186  0.1488 -0.2441  0.1003
 6798TIP3    H142029   4.759   3.392   1.163  0.3981 -0.0527 -0.6141
 6798TIP3    H242030   4.661   3.497   1.210 -0.1031 -0.4669 -0.7240
 6799TIP3   OH242031   4.000   6.407   0.193 -0.4515 -0.3626 -0.2930
 6799TIP3    H142032   4.080   6.385   0.145 -0.1208 -2.2384  0.9979
 6799TIP3    H242033   3.966   6.323   0.222 -0.3647  0.6561  3.1350
 6800TIP3   OH242034   6.363   3.646   6.951 -0.0826 -0.5669 -0.3344
 6800TIP3    H142035   6.394   3.644   6.861  0.2761 -0.1867 -0.2214
 6800TIP3    H242036   6.401   3.569   6.992  0.1858 -0.4530 -0.3697
 6801TIP3   OH242037   5.789   0.475   7.633 -0.1325 -0.0724  0.1479
 6801TIP3    H142038   5.840   0.555   7.618 -0.4018  0.0844  0.0616
 6801TIP3    H242039   5.750   0.455   7.548  0.3548 -0.5969  0.0383
 6802TIP3   OH242040   0.702   4.110   8.879  0.3201 -0.3949  0.2141
 6802TIP3    H142041   0.761   4.070   8.944  0.8348  0.7355  0.4665
 6802TIP3    H242042   0.760   4.162   8.824 -0.2415 -0.6180 -0.6000
 6803TIP3   OH242043   3.896   0.019   7.146  0.7086 -0.0353 -0.0423
 6803TIP3    H142044   3.817   0.038   7.093  0.3953  0.2110  0.5064
 6803TIP3    H242045   3.880   0.064   7.229  0.9168 -0.9510  0.5020
 6804TIP3   OH242046   0.340   3.799   1.189  0.3523 -0.2552 -0.1716
 6804TIP3    H142047   0.330   3.767   1.279  1.6643 -0.1434  0.0352
 6804TIP3    H242048   0.368   3.722   1.139 -0.0545 -0.2422 -0.4257
 6805TIP3   OH242049   1.821   3.234   0.980 -0.2219  0.2106 -0.3444
 6805TIP3    H142050   1.871   3.268   0.905  1.1449 -0.5812  0.1735
 6805TIP3    H242051   1.767   3.308   1.008 -0.2460  0.7240 -1.6816
 6806TIP3   OH242052   3.840   6.716   1.701  0.4017 -0.2192 -0.4612
 6806TIP3    H142053   3.935   6.728   1.695  0.5140 -0.3654  0.7078
 6806TIP3    H242054   3.818   6.744   1.790 -0.6032 -0.5263 -0.5988
 6807TIP3   OH242055   4.201   5.880   2.025  0.5250  0.0307 -0.3961
 6807TIP3    H142056   4.146   5.941   2.074  0.2738 -0.1834 -0.4095
 6807TIP3    H242057   4.143   5.807   2.003  0.7377 -0.0618 -0.6640
 6808TIP3   OH242058   5.011   4.223   0.098  0.3147 -0.4207  0.4399
 6808TIP3    H142059   5.057   4.141   0.080  0.2237 -0.6327  1.1644
 6808TIP3    H242060   4.943   4.199   0.161 -2.2533 -0.5733 -2.1780
 6809TIP3   OH242061   5.464   0.785   7.264 -0.4670  0.0079 -0.3753
 6809TIP3    H142062   5.473   0.876   7.294 -1.3502  1.0156 -2.8632
 6809TIP3    H242063   5.552   0.761   7.234  0.2222 -0.7141  1.9774
 6810TIP3   OH242064   6.326   2.860   8.866 -0.1530 -0.2520  0.0531
 6810TIP3    H142065   6.287   2.780   8.829 -1.6448  0.4371  0.0691
 6810TIP3    H242066   6.370   2.901   8.792  1.9273 -1.8033  0.3546
 6811TIP3   OH242067   5.012   5.262   1.476 -0.7643 -0.2263 -0.1345
 6811TIP3    H142068   5.092   5.283   1.524 -0.3443 -0.0574 -0.8908
 6811TIP3    H242069   4.945   5.317   1.517 -0.2861  0.3825 -0.1419
 6812TIP3   OH242070   1.472   5.804   1.160  0.4828 -0.3998 -0.7824
 6812TIP3    H142071   1.396   5.800   1.101 -0.3425  1.7978  0.0082
 6812TIP3    H242072   1.500   5.896   1.156  1.7993 -0.7070  0.5436
 6813TIP3   OH242073   5.073   6.011   1.736  0.2824 -0.1130  0.0452
 6813TIP3    H142074   5.022   6.085   1.769  0.1723  0.8830 -2.1608
 6813TIP3    H242075   5.164   6.039   1.745  0.3094 -0.3904  0.6744
 6814TIP3   OH242076   4.477   2.608   7.356  0.1043  0.4829  0.3031
 6814TIP3    H142077   4.535   2.534   7.338  0.1490  0.0870  1.9203
 6814TIP3    H242078   4.534   2.684   7.353  0.4156  0.2551  0.4378
 6815TIP3   OH242079   3.834   1.456   7.085  0.0560  0.4695 -0.0096
 6815TIP3    H142080   3.745   1.456   7.122 -0.7256  0.4058 -1.7849
 6815TIP3    H242081   3.881   1.523   7.136  0.2894 -2.2165  3.7370
 6816TIP3   OH242082   0.524   6.188   7.306 -0.1409  0.2897 -0.0422
 6816TIP3    H142083   0.453   6.197   7.243  0.2944 -0.5554 -0.6662
 6816TIP3    H242084   0.484   6.212   7.390 -1.7553 -2.1330 -0.0180
 6817TIP3   OH242085   1.055   4.892   1.493  0.1090 -0.2786  0.0741
 6817TIP3    H142086   1.033   4.952   1.422  1.7213  1.3584  0.8886
 6817TIP3    H242087   1.083   4.812   1.449 -0.7381  0.0328 -1.0733
 6818TIP3   OH242088   0.998   0.534   0.763  0.2016 -0.2712 -0.4068
 6818TIP3    H142089   1.005   0.484   0.682  0.9891 -1.2720  0.2571
 6818TIP3    H242090   0.915   0.507   0.802  0.0748 -0.1844 -0.6162
 6819TIP3   OH242091   0.909   4.750   1.151 -0.1456 -0.1913 -0.2569
 6819TIP3    H142092   0.865   4.731   1.233 -0.3061 -1.5438 -0.6407
 6819TIP3    H242093   0.953   4.669   1.127 -1.1585 -0.2359 -2.1482
 6820TIP3   OH242094   1.004   3.592   1.953 -0.8329 -0.1379  0.0251
 6820TIP3    H142095   1.025   3.529   1.885  0.3965  0.6229 -0.3121
 6820TIP3    H242096   1.044   3.674   1.925 -0.5993  0.2822  1.4848
 6821TIP3   OH242097   0.262   3.592   7.746 -0.7619 -0.1937  0.2891
 6821TIP3    H142098   0.277   3.654   7.675 -0.1969 -2.5447 -1.8087
 6821TIP3    H242099   0.179   3.619   7.785 -0.5335  1.8187 -0.5092
 6822TIP3   OH242100   3.349   2.976   0.404 -0.1430 -0.0615 -0.3122
 6822TIP3    H142101   3.356   3.011   0.493  0.2888 -0.6666 -0.0930
 6822TIP3    H242102   3.397   2.893   0.408 -1.2706 -0.7562 -0.7675
 6823TIP3   OH242103   1.594   2.398   7.449 -0.0171  0.1631  0.0950
 6823TIP3    H142104   1.564   2.307   7.453 -2.2935  0.8669  0.5635
 6823TIP3    H242105   1.601   2.425   7.540 -0.1407  0.6974 -0.0507
 6824TIP3   OH242106   5.690   6.123   1.151  0.3206  0.1842  0.9069
 6824TIP3    H142107   5.770   6.174   1.141 -0.0799  0.6498 -0.0175
 6824TIP3    H242108   5.709   6.041   1.106 -0.4883  1.1806 -1.3798
 6825TIP3   OH242109   6.280   2.697   2.101 -0.1909 -0.7197  0.3158
 6825TIP3    H142110   6.355   2.638   2.106 -0.0142 -0.5713 -0.4250
 6825TIP3    H242111   6.242   2.679   2.015  0.5683  1.0609 -0.4408
 6826TIP3   OH242112   3.388   1.866   0.063 -0.0969  0.7011  0.2249
 6826TIP3    H142113   3.348   1.782   0.082  1.4718 -0.1160  0.0598
 6826TIP3    H242114   3.400   1.867  -0.032  1.2667  0.4247  0.3676
 6827TIP3   OH242115   2.303   3.165   0.864 -0.4311 -1.2123  0.1017
 6827TIP3    H142116   2.308   3.234   0.931 -1.0899 -1.0139 -0.0465
 6827TIP3    H242117   2.222   3.119   0.883 -0.6426 -1.1284 -0.5858
 6828TIP3   OH242118   3.882   1.968   2.026 -0.2174  0.1200  0.0561
 6828TIP3    H142119   3.833   1.910   2.085 -1.0835  2.4683  1.8268
 6828TIP3    H242120   3.817   1.999   1.964 -0.1319  0.3847  0.0981
 6829TIP3   OH242121   2.512   2.572   8.124  0.5040  0.2737  0.0323
 6829TIP3    H142122   2.505   2.516   8.202  1.4091 -1.4005 -1.0476
 6829TIP3    H242123   2.424   2.609   8.114  0.9948  2.9762  3.5386
 6830TIP3   OH242124   5.610   3.101   8.859 -0.1449 -0.7642 -0.2077
 6830TIP3    H142125   5.649   3.024   8.902  1.5978 -0.8982 -1.9374
 6830TIP3    H242126   5.650   3.176   8.902 -2.1167 -0.7114  1.7379
 6831TIP3   OH242127   4.159   3.642   0.275  0.0046  0.3617  0.6737
 6831TIP3    H142128   4.070   3.675   0.263 -0.3741 -1.3950 -2.1658
 6831TIP3    H242129   4.168   3.631   0.370 -3.4663 -1.0815  0.9660
 6832TIP3   OH242130   5.715   1.620   7.592 -0.2125  0.1363 -0.0180
 6832TIP3    H142131   5.712   1.706   7.550 -1.9630  0.1776  0.1051
 6832TIP3    H242132   5.654   1.627   7.665  0.4839 -0.8723  0.6899
 6833TIP3   OH242133   2.517   6.275   7.415 -0.6006 -0.0506  0.3061
 6833TIP3    H142134   2.566   6.357   7.424 -0.2660 -0.3580  1.5734
 6833TIP3    H242135   2.579   6.207   7.445 -0.4707 -0.9232 -1.8059
 6834TIP3   OH242136   0.256   4.731   7.952 -0.2392  0.3778  0.3793
 6834TIP3    H142137   0.305   4.769   8.025  1.3111 -1.0784  0.1751
 6834TIP3    H242138   0.242   4.640   7.978  1.9991 -0.7273 -1.8127
 6835TIP3   OH242139   4.772   0.080   7.226 -0.1530  0.0471 -0.9155
 6835TIP3    H142140   4.752  -0.007   7.191 -1.2094 -0.2880  0.4331
 6835TIP3    H242141   4.866   0.077   7.245 -0.0424 -0.5608 -1.5114
 6836TIP3   OH242142   1.297   4.327   2.398 -0.4300 -0.5597  0.4343
 6836TIP3    H142143   1.367   4.264   2.419 -0.5700 -1.6147 -1.9011
 6836TIP3    H242144   1.343   4.405   2.368 -0.2558 -0.4121  1.0793
 6837TIP3   OH242145   2.179   1.510   6.948 -0.1423  0.4545  0.0957
 6837TIP3    H142146   2.122   1.563   6.893 -0.4554  0.7762  0.7299
 6837TIP3    H242147   2.227   1.455   6.885 -0.0332  1.2592 -0.5446
 6838TIP3   OH242148   2.798   5.008   7.704  0.4239 -0.1104 -0.1032
 6838TIP3    H142149   2.787   4.918   7.671 -0.0984  0.2176 -0.8410
 6838TIP3    H242150   2.870   5.044   7.653  0.9548 -0.2525  0.5245
 6839TIP3   OH242151   3.064   1.859   7.399  0.3892 -0.0796 -0.2604
 6839TIP3    H142152   3.129   1.829   7.336  0.5157 -0.3544 -0.0007
 6839TIP3    H242153   3.100   1.940   7.434  0.1740  0.2427 -0.7628
 6840TIP3   OH242154   2.451   5.094   8.577 -0.5276  0.0094 -0.1793
 6840TIP3    H142155   2.392   5.145   8.633 -0.5772  0.1608 -0.3686
 6840TIP3    H242156   2.413   5.006   8.575 -0.1736 -0.1681  0.5478
 6841TIP3   OH242157   0.158   4.987   0.196  0.1454  0.1078 -0.2304
 6841TIP3    H142158   0.070   4.949   0.204 -0.0178  0.1397 -1.5304
 6841TIP3    H242159   0.157   5.029   0.110  2.3922 -2.5176 -1.6963
 6842TIP3   OH242160   0.674   3.924   1.849  0.2664 -0.0088 -0.5163
 6842TIP3    H142161   0.680   4.009   1.893 -1.2364  0.4489 -1.1527
 6842TIP3    H242162   0.764   3.904   1.824  1.0364  0.1641  1.8937
 6843TIP3   OH242163   3.562   1.405   1.390 -0.0804  0.1006 -0.0363
 6843TIP3    H142164   3.474   1.368   1.401 -0.3913  0.0258 -2.2663
 6843TIP3    H242165   3.557   1.455   1.308  1.8629  0.4115 -0.0190
 6844TIP3   OH242166   1.858   2.546   8.032  0.1324 -0.2616 -0.1951
 6844TIP3    H142167   1.845   2.503   7.948  1.7781 -2.1982  0.4776
 6844TIP3    H242168   1.947   2.582   8.028  0.0193  0.1215  0.5072
 6845TIP3   OH242169   3.872   3.960   1.390  0.1705 -0.5813  0.4603
 6845TIP3    H142170   3.940   3.965   1.457 -0.7255 -0.5346  1.3947
 6845TIP3    H242171   3.815   4.035   1.408 -1.0870 -1.5715  0.8070
 6846TIP3   OH242172   1.639   4.580   7.493  0.2010 -0.0832 -0.3740
 6846TIP3    H142173   1.577   4.650   7.511  0.6230 -0.1760  1.7402
 6846TIP3    H242174   1.586   4.510   7.454 -1.0745 -0.1747  1.4067
 6847TIP3   OH242175   2.782   6.411   0.965  0.7276  0.5043  0.3021
 6847TIP3    H142176   2.705   6.444   1.011 -0.4010 -2.3034  0.6478
 6847TIP3    H242177   2.756   6.408   0.873  0.5464 -0.0537  0.3660
 6848TIP3   OH242178   0.252   4.008   8.023 -0.0880  0.6145 -0.0712
 6848TIP3    H142179   0.202   3.927   8.026  0.2883  0.3263 -1.0311
 6848TIP3    H242180   0.213   4.063   8.090 -0.5838 -0.2271  0.3495
 6849TIP3   OH242181   2.084   2.986   1.612  0.2003  0.3547 -0.1079
 6849TIP3    H142182   2.088   2.892   1.593 -0.9008  0.2085  0.3094
 6849TIP3    H242183   2.075   2.991   1.707 -0.4457  0.8459 -0.1871
 6850TIP3   OH242184   0.600   5.022   7.624  0.2789 -0.2950  0.4083
 6850TIP3    H142185   0.570   5.092   7.681 -0.2707 -0.6158  0.5204
 6850TIP3    H242186   0.696   5.023   7.633  0.3698  1.1063 -0.3991
 6851TIP3   OH242187   5.716   6.183   7.311 -0.7169  0.7863  0.2848
 6851TIP3    H142188   5.647   6.153   7.370 -2.0835  0.5615 -1.3523
 6851TIP3    H242189   5.677   6.258   7.265  0.1301  0.6539 -0.6711
 6852TIP3   OH242190   3.291   1.262   8.080 -0.1720 -1.0440 -0.4306
 6852TIP3    H142191   3.258   1.276   7.991  0.2402  0.3932 -0.3866
 6852TIP3    H242192   3.287   1.349   8.120 -2.0374 -1.9394  1.5617
 6853TIP3   OH242193   5.094   6.462   1.032 -0.0307  0.3588 -0.2556
 6853TIP3    H142194   5.159   6.394   1.014 -2.5634 -1.9699 -1.3642
 6853TIP3    H242195   5.074   6.452   1.125 -0.3964 -0.4612 -0.4147
 6854TIP3   OH242196   0.038   0.285   8.818 -0.0892 -0.1464  0.0434
 6854TIP3    H142197   0.066   0.316   8.731  1.9572  0.0457  0.7052
 6854TIP3    H242198   0.045   0.363   8.874 -1.2618 -0.3000  0.4252
 6855TIP3   OH242199   6.078   4.120   7.169  0.3200  0.5878  0.4846
 6855TIP3    H142200   5.995   4.138   7.124  0.2422 -0.6880  0.0706
 6855TIP3    H242201   6.135   4.084   7.101  0.6400 -0.1327  1.1194
 6856TIP3   OH242202   5.587   4.942   8.210  0.1310  0.1784 -0.5234
 6856TIP3    H142203   5.674   4.944   8.249  0.3559 -0.1110 -1.0050
 6856TIP3    H242204   5.552   4.856   8.234 -0.3232  0.5829  0.3055
 6857TIP3   OH242205   3.191   2.297   8.744 -0.2016 -0.2462 -0.4186
 6857TIP3    H142206   3.259   2.246   8.789  0.3486  0.3547 -0.5694
 6857TIP3    H242207   3.191   2.264   8.655  0.5769  0.4287 -0.6759
 6858TIP3   OH242208   5.299   4.567   1.599  0.5270  0.5572 -0.1021
 6858TIP3    H142209   5.227   4.605   1.548 -0.1930 -0.2398  0.2976
 6858TIP3    H242210   5.368   4.632   1.594 -0.1972  1.3161 -0.5632
 6859TIP3   OH242211   2.042   2.204   7.828  0.0912 -0.9464  0.6152
 6859TIP3    H142212   2.034   2.135   7.762  0.1281 -1.1546  0.8322
 6859TIP3    H242213   2.126   2.246   7.807 -0.1875 -0.6105  0.1412
 6860TIP3   OH242214   1.730   2.873   1.755 -1.0646 -0.1598 -0.4262
 6860TIP3    H142215   1.818   2.844   1.730 -0.9326 -1.2187  1.1781
 6860TIP3    H242216   1.744   2.961   1.791 -0.5667 -0.5465  0.3545
 6861TIP3   OH242217   3.600   0.876   7.035  0.5509 -0.2952  0.0308
 6861TIP3    H142218   3.519   0.826   7.039  0.9345 -1.2749 -2.5521
 6861TIP3    H242219   3.572   0.965   7.012  0.0696  0.0509  1.8333
 6862TIP3   OH242220   1.625   3.917   8.164 -0.6986 -0.6993 -0.6097
 6862TIP3    H142221   1.632   4.005   8.126 -0.9297 -1.2854 -2.0652
 6862TIP3    H242222   1.668   3.860   8.101  0.4773 -1.5179  0.8687
 6863TIP3   OH242223   1.144   3.776   0.073  0.0679  0.4416  0.1361
 6863TIP3    H142224   1.208   3.715   0.035 -0.1777 -0.2247  0.7633
 6863TIP3    H242225   1.067   3.767   0.017 -0.2246 -0.3934  0.6442
 6864TIP3   OH242226   3.165   3.583   1.858  0.7093  0.0559 -0.4697
 6864TIP3    H142227   3.152   3.675   1.882 -0.4043  0.0708 -1.0540
 6864TIP3    H242228   3.194   3.541   1.939  4.0202  1.4015 -0.8245
 6865TIP3   OH242229   2.330   1.215   7.977 -0.0350  0.0163 -0.1773
 6865TIP3    H142230   2.373   1.299   7.956  1.2237 -0.6111 -0.2219
 6865TIP3    H242231   2.332   1.167   7.894 -0.8759 -0.0203 -0.1832
 6866TIP3   OH242232   3.116   5.485   1.008  0.1679  0.8359  0.0335
 6866TIP3    H142233   3.029   5.513   0.980  0.1150  0.2366 -0.4132
 6866TIP3    H242234   3.108   5.391   1.023  0.3581  1.0237  1.4648
 6867TIP3   OH242235   5.836   3.490   7.383  0.0377  0.4411 -0.5206
 6867TIP3    H142236   5.756   3.534   7.355  1.5081  3.8179  0.0563
 6867TIP3    H242237   5.806   3.412   7.430 -3.1655  3.1768  2.5090
 6868TIP3   OH242238   5.433   5.436   1.402  0.4283 -0.0357 -0.0323
 6868TIP3    H142239   5.400   5.525   1.393 -2.9005 -1.2596 -1.6484
 6868TIP3    H242240   5.380   5.384   1.340  0.5810 -3.5116  2.4432
 6869TIP3   OH242241   2.133   3.194   6.536 -0.5396 -0.1506 -0.0237
 6869TIP3    H142242   2.107   3.286   6.538  2.9758  1.0102  1.6270
 6869TIP3    H242243   2.145   3.174   6.443 -2.5004  0.6101 -0.4835
 6870TIP3   OH242244   2.409   1.171   2.404 -0.2509 -0.0430  0.2312
 6870TIP3    H142245   2.445   1.228   2.472  3.5839 -0.6270 -1.0948
 6870TIP3    H242246   2.355   1.228   2.350  1.3366  1.7524  0.4650
 6871TIP3   OH242247   4.528   0.688   7.058 -0.4706  0.3068  0.3012
 6871TIP3    H142248   4.556   0.665   6.970  3.1869  0.8334  1.1560
 6871TIP3    H242249   4.502   0.605   7.098  2.4672 -0.8219  0.1059
 6872TIP3   OH242250   1.427   2.236   0.311 -0.2868  0.5868  0.0359
 6872TIP3    H142251   1.506   2.290   0.319  0.1791 -0.0392 -0.3072
 6872TIP3    H242252   1.362   2.295   0.273  0.2428  0.8914 -0.4083
 6873TIP3   OH242253   1.413   0.603   7.317  0.4404  0.6343 -0.5215
 6873TIP3    H142254   1.472   0.556   7.259 -0.1737 -0.0828 -0.5838
 6873TIP3    H242255   1.470   0.657   7.372  1.0968  0.4281 -0.9961
 6874TIP3   OH242256   1.261   2.732   8.275 -0.5410  0.2996  0.0151
 6874TIP3    H142257   1.258   2.769   8.187  1.2799  0.3951 -0.0532
 6874TIP3    H242258   1.240   2.805   8.333  0.0213  0.6899 -0.2660
 6875TIP3   OH242259   5.621   2.881   7.329 -0.5551 -0.6993 -0.5919
 6875TIP3    H142260   5.703   2.882   7.279  0.0340  2.5158  0.2104
 6875TIP3    H242261   5.558   2.836   7.272  1.2632 -1.5191 -2.0471
 6876TIP3   OH242262   1.461   0.473   8.719  0.5784  0.0324 -0.6111
 6876TIP3    H142263   1.425   0.480   8.807  1.1039 -0.2967 -0.3639
 6876TIP3    H242264   1.388   0.495   8.661  0.1642  0.0110 -0.1030
 6877TIP3   OH242265   5.733   2.919   8.489  0.1855  0.5578  0.5269
 6877TIP3    H142266   5.781   2.902   8.408  0.0770 -0.2375  0.6151
 6877TIP3    H242267   5.668   2.849   8.493 -0.1165  0.8618  1.0680
 6878TIP3   OH242268   1.893   2.934   7.088  0.1619 -0.3781  0.4418
 6878TIP3    H142269   1.804   2.968   7.078  0.1933 -0.3398  0.2770
 6878TIP3    H242270   1.901   2.868   7.019  0.7909  0.7414 -0.6031
 6879TIP3   OH242271   4.285   2.814   8.542 -0.1307 -0.1732 -0.0427
 6879TIP3    H142272   4.293   2.804   8.447 -0.1683  0.3589 -0.1035
 6879TIP3    H242273   4.256   2.728   8.573 -0.9767 -0.1022 -0.6100
 6880TIP3   OH242274   3.158   1.322   8.721 -0.4386 -0.3912 -0.7220
 6880TIP3    H142275   3.108   1.309   8.801  1.9099  1.5107  1.2459
 6880TIP3    H242276   3.111   1.391   8.673 -0.4960  0.3479  0.3739
 6881TIP3   OH242277   2.146   0.153   7.057 -0.1482  0.0866 -0.4972
 6881TIP3    H142278   2.119   0.062   7.052  0.7743 -0.1397 -1.6862
 6881TIP3    H242279   2.139   0.186   6.967 -0.4897  1.2055 -0.0848
 6882TIP3   OH242280   5.826   6.359   6.676  0.1447 -0.2353  0.2474
 6882TIP3    H142281   5.814   6.355   6.582 -1.5179  0.2141  0.4183
 6882TIP3    H242282   5.899   6.420   6.689  0.6701 -0.6418 -0.7468
 6883TIP3   OH242283   4.467   4.074   7.456 -0.5079  0.8073 -1.0349
 6883TIP3    H142284   4.418   4.015   7.514  1.3341 -0.8116 -1.0178
 6883TIP3    H242285   4.487   4.150   7.511 -2.7054  1.3993 -0.9746
 6884TIP3   OH242286   6.624   2.589   8.334  0.2006  0.0436  0.2191
 6884TIP3    H142287   6.658   2.506   8.365  0.0704  0.0422  0.3580
 6884TIP3    H242288   6.534   2.591   8.365  0.6997  0.9957  1.7035
 6885TIP3   OH242289   5.746   4.578   0.220  0.3421 -0.9268  0.4561
 6885TIP3    H142290   5.815   4.520   0.188  0.3329 -0.6748 -0.0315
 6885TIP3    H242291   5.728   4.636   0.147  0.5134 -0.1546  1.0159
 6886TIP3   OH242292   2.503   4.063   7.168  0.1367 -0.1235  0.3690
 6886TIP3    H142293   2.557   3.997   7.212  0.8376 -0.6834 -1.2862
 6886TIP3    H242294   2.425   4.071   7.223 -0.2506 -2.7628  0.2968
 6887TIP3   OH242295   0.151   1.701   0.482  0.2124 -0.0572 -0.1422
 6887TIP3    H142296   0.069   1.747   0.503  0.8708  1.7376 -1.2065
 6887TIP3    H242297   0.129   1.648   0.405  0.0024  0.3119 -0.3410
 6888TIP3   OH242298   4.489   2.140   8.314  0.2040 -0.4990  0.0451
 6888TIP3    H142299   4.489   2.185   8.398 -0.6429  1.0992 -0.7619
 6888TIP3    H242300   4.422   2.071   8.323 -0.1916 -0.0546  0.5388
 6889TIP3   OH242301   6.097   2.236   0.647  0.2374  0.0752  0.4370
 6889TIP3    H142302   6.167   2.260   0.707  0.7802 -2.3566  0.9196
 6889TIP3    H242303   6.018   2.233   0.702  0.0954  1.0716  0.2897
 6890TIP3   OH242304   3.456   0.803   7.825  0.1427 -0.2229 -0.0117
 6890TIP3    H142305   3.400   0.840   7.893 -1.0060 -0.8517 -0.5744
 6890TIP3    H242306   3.433   0.852   7.746  2.4478  1.4427  0.2650
 6891TIP3   OH242307   6.100   2.923   8.529 -0.1864 -0.0517 -0.1275
 6891TIP3    H142308   6.064   2.948   8.615  1.0152 -2.1106  1.0567
 6891TIP3    H242309   6.193   2.910   8.545  0.1729  0.0997 -1.9212
 6892TIP3   OH242310   0.755   5.242   0.025 -0.1369 -0.1707  0.4408
 6892TIP3    H142311   0.833   5.281  -0.013 -0.6420 -0.6240 -1.1629
 6892TIP3    H242312   0.788   5.175   0.085  0.6980  1.1534  1.5004
 6893TIP3   OH242313   0.538   1.084   7.653  0.1117 -0.1400  0.1413
 6893TIP3    H142314   0.474   1.151   7.679 -0.4912 -0.7420  0.2140
 6893TIP3    H242315   0.488   1.003   7.651  0.7425 -0.5186 -0.3940
 6894TIP3   OH242316   4.501   3.211   7.775  0.4453  0.0033 -0.1692
 6894TIP3    H142317   4.429   3.256   7.820  1.0308  0.6619  0.1313
 6894TIP3    H242318   4.555   3.176   7.846 -0.3048 -1.7166 -0.3920
 6895TIP3   OH242319   2.443   5.635   7.932 -0.2731  0.1420 -0.4219
 6895TIP3    H142320   2.415   5.710   7.879 -0.2014  0.0795 -0.5501
 6895TIP3    H242321   2.496   5.582   7.872 -0.6555 -0.2173 -0.4425
 6896TIP3   OH242322   2.784   5.962   8.145  0.2797  0.7076  0.4604
 6896TIP3    H142323   2.808   6.014   8.067 -2.0307  1.3634  0.1039
 6896TIP3    H242324   2.751   6.027   8.207  0.5434  0.0072  1.3452
 6897TIP3   OH242325   5.234   4.820   8.146 -0.0898 -0.1258 -0.2212
 6897TIP3    H142326   5.172   4.810   8.218 -2.1930 -3.6437 -2.2214
 6897TIP3    H242327   5.311   4.771   8.173  0.1485  0.6436  0.5523
 6898TIP3   OH242328   5.621   0.005   8.466 -0.2969  0.0502  0.0643
 6898TIP3    H142329   5.652   0.004   8.375  0.5587  0.2596  0.3363
 6898TIP3    H242330   5.585   0.093   8.478 -0.9966 -0.1845 -0.2484
 6899TIP3   OH242331   0.526   2.181   7.718 -0.3011  0.3824 -0.5295
 6899TIP3    H142332   0.553   2.098   7.678 -2.3931 -1.4299  1.5451
 6899TIP3    H242333   0.443   2.162   7.760 -2.1221  4.1962 -1.9273
 6900TIP3   OH242334   4.102   4.706   6.152  0.0187  0.0518 -0.3915
 6900TIP3    H142335   4.009   4.683   6.156  0.2620 -0.8013  1.2599
 6900TIP3    H242336   4.106   4.780   6.092 -1.4335 -1.2681 -2.2596
 6901TIP3   OH242337   6.575   3.111   0.528 -0.2687 -0.7940 -0.4409
 6901TIP3    H142338   6.575   3.025   0.571 -1.0153  0.5704  2.5543
 6901TIP3    H242339   6.492   3.151   0.555  1.1569  1.8071  0.3954
 6902TIP3   OH242340   3.413   3.773   7.469  0.0920 -0.0190 -0.0837
 6902TIP3    H142341   3.339   3.780   7.529  0.5911  1.4905  0.3981
 6902TIP3    H242342   3.488   3.805   7.519  0.7510  0.0946 -1.1123
 6903TIP3   OH242343   4.062   4.082   7.572  0.8206  0.5058  0.1198
 6903TIP3    H142344   4.141   4.055   7.619 -0.1627 -0.1561  1.4667
 6903TIP3    H242345   3.990   4.061   7.632 -0.6023 -1.1316 -2.0007
 6904TIP3   OH242346   0.073   0.429   0.100  0.3117 -0.7601  0.1465
 6904TIP3    H142347   0.091   0.398   0.189  0.8676 -1.6310 -0.2546
 6904TIP3    H242348   0.160   0.440   0.061  0.1070  0.5970  0.0199
 6905TIP3   OH242349   4.677   4.911   2.147  0.1062 -0.0689 -0.6559
 6905TIP3    H142350   4.739   4.982   2.163 -0.7348  0.5102  0.1029
 6905TIP3    H242351   4.722   4.832   2.177  0.1228  0.4707  0.8152
 6906TIP3   OH242352   4.326   3.975   8.679  0.2352  0.6651  0.3270
 6906TIP3    H142353   4.320   3.975   8.774  1.6189  1.8979  0.4346
 6906TIP3    H242354   4.285   3.892   8.653 -0.6035  0.5282  1.9374
 6907TIP3   OH242355   3.036   1.624   1.021  0.1319  0.3219 -0.1321
 6907TIP3    H142356   3.038   1.657   0.931 -1.2926 -0.2578 -0.4054
 6907TIP3    H242357   3.092   1.546   1.019  1.2307  1.0929 -0.1613
 6908TIP3   OH242358   0.463   6.132   1.640  0.1165  0.3584  0.2582
 6908TIP3    H142359   0.441   6.117   1.732 -0.6025  0.4035  0.0997
 6908TIP3    H242360   0.466   6.227   1.631 -2.4683  0.4518 -0.3417
 6909TIP3   OH242361   6.215   2.957   7.197 -0.5045  0.3342  0.2018
 6909TIP3    H142362   6.197   2.916   7.113 -1.2565  0.2593  0.3876
 6909TIP3    H242363   6.301   2.924   7.222  0.1716  1.1304 -0.9855
 6910TIP3   OH242364   6.619   4.417   0.472  0.1938 -0.2471 -0.5568
 6910TIP3    H142365   6.680   4.345   0.455  0.8768  0.4531 -1.1734
 6910TIP3    H242366   6.640   4.482   0.406 -1.5324 -0.1524 -1.0519
 6911TIP3   OH242367   5.956   2.615   8.524  0.0898 -0.4350  0.4629
 6911TIP3    H142368   5.922   2.690   8.476 -0.9364 -1.1322  0.0520
 6911TIP3    H242369   5.981   2.651   8.609  0.5779  0.5491 -0.0806
 6912TIP3   OH242370   6.674   3.038   0.912  0.2695  0.2305 -0.3832
 6912TIP3    H142371   6.593   3.045   0.863 -0.1460 -0.0708  0.2520
 6912TIP3    H242372   6.703   2.947   0.899  0.6384  0.4009 -0.8023
 6913TIP3   OH242373   5.043   2.919   7.591 -0.0711 -0.0789  0.0127
 6913TIP3    H142374   5.025   2.936   7.499  0.5957  0.5969 -0.0082
 6913TIP3    H242375   5.138   2.932   7.599 -0.1576  0.0929  0.8295
 6914TIP3   OH242376   5.054   0.109   8.916  1.0963 -0.1005 -0.3945
 6914TIP3    H142377   5.149   0.097   8.907  1.1187 -0.2604  0.0336
 6914TIP3    H242378   5.043   0.204   8.925  1.4218 -0.2149  1.7091
 6915TIP3   OH242379   2.858   6.635   6.572 -0.3191  0.4546  0.1028
 6915TIP3    H142380   2.797   6.632   6.499 -0.0098 -4.0073 -0.2538
 6915TIP3    H242381   2.804   6.662   6.647 -1.7728  0.4664 -0.9063
 6916TIP3   OH242382   6.615   4.962   7.901  0.3273  0.3749 -0.5295
 6916TIP3    H142383   6.620   4.868   7.917  0.9812  0.1427 -1.9520
 6916TIP3    H242384   6.657   5.001   7.977  1.4953 -0.5707 -0.6477
 6917TIP3   OH242385   3.701   6.558   8.242 -0.1157  0.0795  0.2564
 6917TIP3    H142386   3.776   6.519   8.197  0.2396  1.2055 -0.1498
 6917TIP3    H242387   3.625   6.511   8.207  0.1070  1.1582 -1.8523
 6918TIP3   OH242388   2.059   3.932   7.680  0.0866  0.0984  0.2413
 6918TIP3    H142389   2.037   3.845   7.647 -1.7751  0.9636 -1.0050
 6918TIP3    H242390   2.140   3.920   7.728  0.1162 -2.2356 -0.2785
 6919TIP3   OH242391   0.701   1.221   7.919  0.0519  0.1772 -0.6307
 6919TIP3    H142392   0.774   1.284   7.916  0.4000 -0.1892 -0.0139
 6919TIP3    H242393   0.681   1.204   7.827  1.1995 -0.2347 -0.8263
 6920TIP3   OH242394   2.156   0.290   6.784 -0.1503  0.6178  0.1537
 6920TIP3    H142395   2.144   0.384   6.771 -1.0539  0.1563 -3.0723
 6920TIP3    H242396   2.111   0.249   6.710  2.2901 -2.2625  0.0765
 6921TIP3   OH242397   5.643   3.895   7.448 -0.0155  0.0217 -0.5662
 6921TIP3    H142398   5.734   3.868   7.465 -0.5294 -1.4961 -0.0320
 6921TIP3    H242399   5.646   3.935   7.361  1.5974  2.2997  0.4481
 6922TIP3   OH242400   1.722   1.186   1.583  0.1655  0.2683 -0.0903
 6922TIP3    H142401   1.781   1.216   1.652  0.9697  0.9914 -1.0621
 6922TIP3    H242402   1.706   1.094   1.603  0.0858  0.5574  1.2559
 6923TIP3   OH242403   4.506   0.780   1.440 -0.0349 -0.2636  0.1618
 6923TIP3    H142404   4.562   0.751   1.368 -0.5797 -1.6040  0.2535
 6923TIP3    H242405   4.516   0.875   1.441  1.4182 -0.3835 -0.4854
 6924TIP3   OH242406   4.556   5.142   8.264  0.0534 -0.0261 -0.0809
 6924TIP3    H142407   4.624   5.158   8.330 -1.2835  0.0014  1.3624
 6924TIP3    H242408   4.521   5.056   8.287  0.7797 -0.8359 -1.9082
 6925TIP3   OH242409   2.913   4.570   8.866 -0.3242  0.3030 -0.4341
 6925TIP3    H142410   2.895   4.502   8.931 -2.7887 -0.5078 -1.8343
 6925TIP3    H242411   2.996   4.608   8.894 -0.3135 -1.3030  2.0574
 6926TIP3   OH242412   6.231   4.044   6.698 -0.5847 -0.2580  0.1224
 6926TIP3    H142413   6.238   4.101   6.621 -2.4630  1.6008  1.2015
 6926TIP3    H242414   6.178   3.970   6.669 -0.7804  0.1330 -0.5321
 6927TIP3   OH242415   1.734   0.874   1.410 -0.0145 -0.2616  0.2251
 6927TIP3    H142416   1.740   0.804   1.475 -0.1360  1.0896  1.7861
 6927TIP3    H242417   1.825   0.893   1.387  0.1080  0.0219  0.9125
 6928TIP3   OH242418   0.502   3.826   0.492 -0.2690  0.5036  0.2626
 6928TIP3    H142419   0.531   3.740   0.461 -0.2421  1.1088 -1.4689
 6928TIP3    H242420   0.577   3.860   0.542 -0.0318 -0.1813  0.3844
 6929TIP3   OH242421   0.260   0.201   7.433  0.0233  0.5033  0.3773
 6929TIP3    H142422   0.305   0.286   7.431  0.0447  0.4853  0.1356
 6929TIP3    H242423   0.321   0.140   7.391  0.3070  0.2240  1.1731
 6930TIP3   OH242424   2.093   1.893   1.482 -0.2413 -0.1936  0.2121
 6930TIP3    H142425   2.153   1.916   1.553 -1.4581  0.6156  1.0203
 6930TIP3    H242426   2.010   1.874   1.526 -0.0245 -3.7616 -0.6161
 6931TIP3   OH242427   5.100   0.028   1.653 -0.5281 -0.3893  0.4201
 6931TIP3    H142428   5.013  -0.005   1.677 -0.2481 -1.2353  0.3322
 6931TIP3    H242429   5.083   0.109   1.605 -1.3196 -0.9191 -0.2409
 6932TIP3   OH242430   3.811   1.455   8.070 -0.0619 -0.4606  0.2627
 6932TIP3    H142431   3.735   1.405   8.042  0.3053 -0.7288 -0.2590
 6932TIP3    H242432   3.789   1.484   8.158 -1.3875  0.6931 -0.4008
 6933TIP3   OH242433   2.612   6.491   7.540  0.0102  0.0317  0.1812
 6933TIP3    H142434   2.548   6.513   7.608 -1.4023 -2.5725 -0.1800
 6933TIP3    H242435   2.673   6.432   7.583 -0.4025 -0.9596 -0.5600
 6934TIP3   OH242436   0.974   1.705   0.732  0.1303  0.3479 -0.0592
 6934TIP3    H142437   1.065   1.681   0.713  0.5241  1.1070  0.7876
 6934TIP3    H242438   0.961   1.681   0.824 -0.1547  1.3049  0.1607
 6935TIP3   OH242439   1.116   5.539   6.619  0.1914 -0.1973 -1.1207
 6935TIP3    H142440   1.033   5.496   6.639  1.1221 -2.2284 -1.3722
 6935TIP3    H242441   1.126   5.530   6.524  0.0276  1.3831 -1.3218
 6936TIP3   OH242442   3.654   3.667   7.211 -0.2160 -0.1013 -0.0829
 6936TIP3    H142443   3.568   3.709   7.214 -0.3507 -0.4255  1.6189
 6936TIP3    H242444   3.635   3.573   7.203 -0.1502 -0.3866  2.2956
 6937TIP3   OH242445   6.680   1.093   8.224 -0.4925 -0.2147 -0.7374
 6937TIP3    H142446   6.626   1.166   8.253  0.9857  0.8102 -0.4624
 6937TIP3    H242447   6.661   1.023   8.286 -2.1560 -0.1874 -1.1867
 6938TIP3   OH242448   6.428   1.405   0.574  0.1135 -0.0630 -0.2271
 6938TIP3    H142449   6.388   1.344   0.636  1.1062 -0.4055  0.0965
 6938TIP3    H242450   6.381   1.391   0.492 -0.5883 -0.2704  0.2115
 6939TIP3   OH242451   5.142   3.437   1.543  0.3807  0.2277 -0.0178
 6939TIP3    H142452   5.169   3.508   1.601 -0.4023 -0.7725  1.6703
 6939TIP3    H242453   5.050   3.455   1.524  0.8730  1.0747 -1.8354
 6940TIP3   OH242454   4.608   5.391   8.762  0.6933  0.1040 -0.1336
 6940TIP3    H142455   4.579   5.482   8.753 -0.1998 -0.3529 -2.9498
 6940TIP3    H242456   4.569   5.361   8.845 -2.1392  1.2470 -0.9312
 6941TIP3   OH242457   6.663   5.946   0.729  0.7550  0.3717 -0.7380
 6941TIP3    H142458   6.751   5.965   0.699  0.5665  0.7356 -1.0681
 6941TIP3    H242459   6.646   6.011   0.797  0.2757  1.1285 -1.5584
 6942TIP3   OH242460   1.961   3.149   7.909  0.1266 -0.1854 -0.0913
 6942TIP3    H142461   2.021   3.075   7.905 -0.2803 -0.4701 -1.0181
 6942TIP3    H242462   1.937   3.167   7.818 -1.0864  0.0135  0.2406
 6943TIP3   OH242463   5.643   6.079   8.102 -0.2656  1.1759  0.4379
 6943TIP3    H142464   5.722   6.043   8.063 -1.5529 -0.5140 -0.7396
 6943TIP3    H242465   5.651   6.174   8.089  0.9510  0.9296 -0.8343
 6944TIP3   OH242466   4.280   6.134   7.848  0.3096 -0.0653  0.0199
 6944TIP3    H142467   4.285   6.057   7.791 -1.0164 -0.4079  0.3258
 6944TIP3    H242468   4.202   6.118   7.902 -0.0485  1.5351  0.0191
 6945TIP3   OH242469   5.958   6.125   1.707 -0.3671 -0.1649 -0.2057
 6945TIP3    H142470   5.948   6.032   1.726  0.2732 -0.4808 -1.3100
 6945TIP3    H242471   5.953   6.168   1.792 -0.4101 -1.2354  0.3458
 6946TIP3   OH242472   6.727   3.178   7.043  0.1241 -0.4338  0.2097
 6946TIP3    H142473   6.796   3.211   7.101 -1.3669  0.2581  1.6528
 6946TIP3    H242474   6.724   3.241   6.970  2.2039 -1.4672 -0.8612
 6947TIP3   OH242475   2.484   0.743   1.298  0.1752  0.2728 -0.0734
 6947TIP3    H142476   2.412   0.797   1.265  1.2638  1.1609 -1.0660
 6947TIP3    H242477   2.540   0.728   1.222  0.4064 -1.4767  0.3975
 6948TIP3   OH242478   4.105   4.422   2.293 -0.2285  0.8222  0.1716
 6948TIP3    H142479   4.163   4.348   2.316 -0.2399  0.6091 -0.4824
 6948TIP3    H242480   4.017   4.384   2.293 -0.2612  0.8993  0.0881
 6949TIP3   OH242481   0.568   5.060   1.354 -0.2482  1.0633  0.4029
 6949TIP3    H142482   0.593   5.083   1.444 -1.3386  0.0840  0.9928
 6949TIP3    H242483   0.553   5.145   1.311  0.2764  1.5467  1.1450
 6950TIP3   OH242484   3.316   3.621   1.617 -0.1330  0.0598 -0.0993
 6950TIP3    H142485   3.357   3.706   1.632  0.1970  0.0684 -0.9557
 6950TIP3    H242486   3.258   3.608   1.692  0.2826  0.7532  0.3535
 6951TIP3   OH242487   0.362   5.125   0.343 -0.4955 -0.7106  0.4256
 6951TIP3    H142488   0.329   5.215   0.347  0.1587 -0.2112 -2.8163
 6951TIP3    H242489   0.296   5.077   0.293 -0.2081 -1.7305  0.9894
 6952TIP3   OH242490   3.102   0.225   8.700  0.4593 -0.3690 -0.2971
 6952TIP3    H142491   3.033   0.180   8.749 -1.6342 -0.1127 -2.8110
 6952TIP3    H242492   3.096   0.191   8.611  0.6048  2.7954 -1.6573
 6953TIP3   OH242493   5.762   2.839   6.616  0.2066 -0.3871 -0.2344
 6953TIP3    H142494   5.693   2.902   6.635  0.1521 -0.3889 -0.4203
 6953TIP3    H242495   5.724   2.754   6.639 -0.4224 -0.5581 -1.7743
 6954TIP3   OH242496   6.727   6.182   6.599 -0.3046  0.3991  0.4624
 6954TIP3    H142497   6.741   6.277   6.606 -1.3404  0.5724  0.3066
 6954TIP3    H242498   6.646   6.166   6.646 -0.8355 -0.2120 -0.6130
 6955TIP3   OH242499   2.804   4.183   8.683  0.2735  0.1641 -0.5929
 6955TIP3    H142500   2.788   4.107   8.738 -0.1241 -0.3863 -1.4358
 6955TIP3    H242501   2.739   4.247   8.710  1.3927  0.6947  0.9658
 6956TIP3   OH242502   6.054   0.951   1.743  0.6142  0.5131  0.4122
 6956TIP3    H142503   6.059   0.857   1.756  1.9509  0.5206  0.0650
 6956TIP3    H242504   5.968   0.965   1.701  0.8694 -0.6734 -0.5425
 6957TIP3   OH242505   4.708   1.861   8.032 -0.1486  0.1648  0.6412
 6957TIP3    H142506   4.720   1.803   7.957  1.0561 -0.5167  1.3348
 6957TIP3    H242507   4.627   1.908   8.013 -1.3331 -1.9422  0.1797
 6958TIP3   OH242508   0.044   1.234   8.572  0.2441  0.1080  0.2840
 6958TIP3    H142509   0.034   1.263   8.481  0.3600 -0.0802  0.2097
 6958TIP3    H242510   0.113   1.291   8.607  2.2194 -1.6218 -0.5698
 6959TIP3   OH242511   2.538   0.174   8.634  0.2423  0.4593 -0.2279
 6959TIP3    H142512   2.482   0.102   8.604  0.7757  0.1287 -0.4503
 6959TIP3    H242513   2.598   0.190   8.561  1.6873 -0.4938  0.7062
 6960TIP3   OH242514   3.407   6.565   7.609  0.2930 -0.4351 -0.0009
 6960TIP3    H142515   3.464   6.527   7.676  0.6082 -0.6370 -0.3827
 6960TIP3    H242516   3.441   6.532   7.527 -0.9510 -1.3177 -0.1808
 6961TIP3   OH242517   3.370   5.807   8.318  0.2808 -0.0698 -0.4717
 6961TIP3    H142518   3.360   5.730   8.263  0.9760 -1.1855  0.8887
 6961TIP3    H242519   3.377   5.772   8.407  0.5435  1.5706  0.1931
 6962TIP3   OH242520   5.093   5.656   8.197 -0.2125 -0.0650 -0.5372
 6962TIP3    H142521   5.020   5.717   8.207 -1.1252 -1.0474 -0.9566
 6962TIP3    H242522   5.139   5.686   8.119 -0.5945  0.1526 -0.6815
 6963TIP3   OH242523   5.346   1.214   8.351 -0.1880  0.4778  0.1643
 6963TIP3    H142524   5.411   1.242   8.416 -1.3483  1.2498  1.0479
 6963TIP3    H242525   5.315   1.129   8.383 -1.2652  1.1756  1.0603
 6964TIP3   OH242526   5.357   2.551   0.619 -0.0068  0.0995 -0.7012
 6964TIP3    H142527   5.417   2.621   0.644 -1.6398  0.9343  1.0853
 6964TIP3    H242528   5.278   2.595   0.588 -1.4397 -0.8493  1.3788
 6965TIP3   OH242529   0.398   2.838   8.378 -0.0282 -0.8004 -0.3361
 6965TIP3    H142530   0.438   2.919   8.410 -0.0360 -1.4707  1.5167
 6965TIP3    H242531   0.472   2.781   8.358 -0.0269 -0.8693 -0.1386
 6966TIP3   OH242532   3.537   0.361   1.389  0.2728  0.2372  0.2173
 6966TIP3    H142533   3.585   0.438   1.420 -0.6741 -0.0757  2.6931
 6966TIP3    H242534   3.600   0.314   1.335  1.9024  1.1819  1.1902
 6967TIP3   OH242535   2.076   0.773   2.275  0.3101  0.0663  0.1008
 6967TIP3    H142536   2.021   0.750   2.200 -0.2126  2.0718 -0.2062
 6967TIP3    H242537   2.032   0.732   2.350 -0.2317 -0.3862 -0.4533
 6968TIP3   OH242538   0.368   0.858   0.575 -0.0788  0.2337  0.2917
 6968TIP3    H142539   0.287   0.859   0.626  0.6562 -2.0839  1.6814
 6968TIP3    H242540   0.405   0.945   0.588 -1.2823  0.6021  1.4665
 6969TIP3   OH242541   2.719   5.239   1.651 -0.4497  0.5687 -0.3402
 6969TIP3    H142542   2.695   5.252   1.742 -2.2144  2.2336 -0.9839
 6969TIP3    H242543   2.814   5.228   1.653 -0.4748  0.3961  1.6946
 6970TIP3   OH242544   6.625   6.237   8.844 -0.0802 -0.0109  0.0085
 6970TIP3    H142545   6.575   6.177   8.789 -0.6592  0.9194 -0.4926
 6970TIP3    H242546   6.562   6.268   8.910 -0.3975  1.6797 -1.0272
 6971TIP3   OH242547   6.520   5.938   2.830 -0.4572  0.2948 -0.4159
 6971TIP3    H142548   6.547   5.849   2.853  1.9338  1.4815  1.8632
 6971TIP3    H242549   6.516   5.938   2.734  1.8755 -1.6784 -0.6056
 6972TIP3   OH242550   6.775   6.296   7.475  0.0853 -0.5126  0.5524
 6972TIP3    H142551   6.787   6.309   7.569 -0.8941  0.0022  0.6114
 6972TIP3    H242552   6.762   6.202   7.465 -2.2936 -0.3206  1.2492
 6973TIP3   OH242553   1.129   2.815   7.287  0.2952  0.0429 -0.2945
 6973TIP3    H142554   1.071   2.877   7.243 -0.5690 -0.9971 -0.6491
 6973TIP3    H242555   1.074   2.738   7.304  0.7441  0.1562  2.0507
 6974TIP3   OH242556   2.489   0.473   7.699 -0.6261  0.2575 -0.2014
 6974TIP3    H142557   2.486   0.402   7.635 -2.3132  2.9806 -3.4595
 6974TIP3    H242558   2.554   0.445   7.763  1.0115 -2.8743 -2.9393
 6975TIP3   OH242559   6.371   4.999   7.784  0.1657  0.4256  0.1801
 6975TIP3    H142560   6.438   4.966   7.845 -0.3177  0.5161  0.7661
 6975TIP3    H242561   6.291   5.002   7.836 -0.5282 -0.6470 -0.7838
 6976TIP3   OH242562   3.343   4.213   1.927  0.0321  0.7165 -0.3201
 6976TIP3    H142563   3.296   4.223   1.844  0.3225 -0.2005 -0.6066
 6976TIP3    H242564   3.306   4.134   1.966  0.4323  0.7204  0.0686
 6977TIP3   OH242565   6.593   3.594   1.270  0.1776  0.6197 -0.1001
 6977TIP3    H142566   6.650   3.626   1.201  0.5189  3.6849  1.4083
 6977TIP3    H242567   6.653   3.552   1.332  0.1157 -0.4685 -0.7618
 6978TIP3   OH242568   3.155   1.569   0.506 -0.4589  0.1267  0.1739
 6978TIP3    H142569   3.091   1.540   0.440 -1.0151 -0.8778  1.1198
 6978TIP3    H242570   3.102   1.590   0.583  0.2607  0.3685  0.6117
 6979TIP3   OH242571   4.240   5.626   8.509 -0.1736  0.0168  0.5536
 6979TIP3    H142572   4.274   5.537   8.496  2.1349  0.8387  0.5462
 6979TIP3    H242573   4.298   5.665   8.574 -1.8770  1.1746  1.4568
 6980TIP3   OH242574   4.728   5.208   0.944  0.1810 -0.2309 -0.1674
 6980TIP3    H142575   4.650   5.230   0.995  0.6843  0.1579  0.4383
 6980TIP3    H242576   4.747   5.287   0.893 -0.5811 -0.7601 -1.3274
 6981TIP3   OH242577   5.741   0.325   7.871  0.2689 -0.2628  0.3386
 6981TIP3    H142578   5.740   0.381   7.793  1.8372 -1.0714 -0.3092
 6981TIP3    H242579   5.773   0.240   7.839  0.7839 -0.6590  1.8276
 6982TIP3   OH242580   3.078   4.851   8.937  0.9308  0.1554 -0.0896
 6982TIP3    H142581   3.010   4.799   8.893 -0.5988  0.9551  1.2129
 6982TIP3    H242582   3.086   4.930   8.884  1.1438 -0.1033 -0.4537
 6983TIP3   OH242583   4.935   5.384   7.843 -0.1151  0.0654 -0.2078
 6983TIP3    H142584   5.010   5.406   7.787  1.4686  0.3461  1.8963
 6983TIP3    H242585   4.908   5.468   7.880  0.4279 -0.3895  1.2703
 6984TIP3   OH242586   4.021   4.470   7.337  0.1992 -0.3861 -0.7909
 6984TIP3    H142587   4.070   4.496   7.415 -0.6404  1.0860 -0.7184
 6984TIP3    H242588   4.017   4.374   7.341  1.1527 -0.3927  0.3510
 6985TIP3   OH242589   4.184   3.481   0.736 -0.1387 -0.3809 -0.0411
 6985TIP3    H142590   4.118   3.412   0.729 -1.8038  0.9891  1.2380
 6985TIP3    H242591   4.231   3.461   0.817  0.6688 -1.0474 -0.6628
 6986TIP3   OH242592   3.380   0.308   7.409  0.0465 -0.1021  0.1491
 6986TIP3    H142593   3.366   0.245   7.480  2.0313 -1.3505 -0.4957
 6986TIP3    H242594   3.334   0.270   7.334  0.0027 -0.0092  0.1283
 6987TIP3   OH242595   4.590   2.495   1.304  0.9453 -0.1760  0.9627
 6987TIP3    H142596   4.502   2.466   1.325  0.5137  1.8078  2.1936
 6987TIP3    H242597   4.641   2.477   1.383  1.3326 -0.1309  0.7292
 6988TIP3   OH242598   4.258   4.208   2.393 -0.3187 -0.0557 -0.3118
 6988TIP3    H142599   4.319   4.221   2.466  0.2017  0.2105 -0.7826
 6988TIP3    H242600   4.310   4.162   2.327 -1.1163 -1.3347 -0.0731
 6989TIP3   OH242601   3.428   0.445   1.742  0.1752 -0.0372  0.0702
 6989TIP3    H142602   3.496   0.502   1.706 -0.2831  1.2595  1.2068
 6989TIP3    H242603   3.455   0.428   1.832 -0.4199 -0.4504  0.1795
 6990TIP3   OH242604   0.301   1.404   0.593 -0.2730  0.2453 -0.1792
 6990TIP3    H142605   0.355   1.335   0.629  1.8956  2.5136  1.2597
 6990TIP3    H242606   0.238   1.424   0.662 -0.0579  0.5518 -0.0694
 6991TIP3   OH242607   4.988   4.258   8.289  0.4417 -0.2575  0.2721
 6991TIP3    H142608   4.926   4.311   8.339  0.5248 -0.0854  0.1946
 6991TIP3    H242609   4.945   4.173   8.279  0.4732 -0.3259  0.7277
 6992TIP3   OH242610   5.875   2.056   7.451 -0.6359 -0.0225  0.4757
 6992TIP3    H142611   5.852   2.032   7.540  0.4567 -1.7775  0.3387
 6992TIP3    H242612   5.929   1.983   7.420 -0.1005  1.0489 -1.2484
 6993TIP3   OH242613   2.420   1.884   8.020  0.1712  0.3450  0.6004
 6993TIP3    H142614   2.505   1.842   8.003 -0.7538 -1.2380 -0.3571
 6993TIP3    H242615   2.359   1.811   8.029 -0.9394  1.4037  2.4059
 6994TIP3   OH242616   6.363   0.134   8.882 -0.1501  0.2548  0.4771
 6994TIP3    H142617   6.303   0.116   8.955 -0.7941 -0.8595 -0.2999
 6994TIP3    H242618   6.368   0.051   8.834  0.4377  0.9034 -0.6162
 6995TIP3   OH242619   1.958   4.540   1.517 -0.1005 -0.7458  0.1946
 6995TIP3    H142620   2.045   4.520   1.553  0.3109  0.7335  0.0973
 6995TIP3    H242621   1.921   4.605   1.576 -1.2077 -1.4358  0.2895
 6996TIP3   OH242622   4.346   1.579   6.997  0.5693  0.2882 -0.1978
 6996TIP3    H142623   4.381   1.641   7.062  0.4991  0.6494 -0.5019
 6996TIP3    H242624   4.265   1.619   6.967 -0.5089 -0.8913  1.0338
 6997TIP3   OH242625   6.172   4.642   7.324 -0.4758  0.4424  0.0993
 6997TIP3    H142626   6.128   4.558   7.339 -2.1927  0.9461 -1.6353
 6997TIP3    H242627   6.106   4.696   7.279  0.4942  2.8077  1.3268
 6998TIP3   OH242628   4.644   3.568   0.830 -0.4520  0.0359  0.1840
 6998TIP3    H142629   4.572   3.606   0.779  0.2500  1.2938  0.0862
 6998TIP3    H242630   4.605   3.547   0.915 -0.9558  0.6633  0.1154
 6999TIP3   OH242631   3.276   3.136   8.507  0.0073 -0.5011  0.3043
 6999TIP3    H142632   3.287   3.058   8.561 -0.7883 -1.1993 -0.5258
 6999TIP3    H242633   3.273   3.208   8.571  0.5460 -1.1475  1.0876
 7000TIP3   OH242634   3.407   2.566   7.367  0.0374 -0.0460  0.2174
 7000TIP3    H142635   3.480   2.578   7.307  0.2809 -2.3357 -0.0444
 7000TIP3    H242636   3.355   2.496   7.327 -0.9204 -0.2006  1.6528
 7001TIP3   OH242637   4.971   3.228   7.592 -0.0538  0.3982  0.0691
 7001TIP3    H142638   4.985   3.138   7.562 -0.4605  0.4338 -0.2312
 7001TIP3    H242639   4.996   3.283   7.518 -1.6313  0.4654 -0.4430
 7002TIP3   OH242640   3.942   5.173   0.591 -0.3537 -0.6064  0.5915
 7002TIP3    H142641   3.997   5.148   0.665 -0.7016 -0.1174  1.0242
 7002TIP3    H242642   3.856   5.192   0.629 -0.1832  1.0059  0.2820
 7003TIP3   OH242643   5.335   1.478   8.702 -0.8006 -0.5639 -0.3316
 7003TIP3    H142644   5.256   1.529   8.723 -1.7993 -2.7107  1.5440
 7003TIP3    H242645   5.306   1.415   8.636 -0.2221 -0.3940 -0.7622
 7004TIP3   OH242646   5.892   5.249   8.518  0.3246  0.1323 -0.4160
 7004TIP3    H142647   5.969   5.304   8.500 -0.3028  0.7399 -1.2906
 7004TIP3    H242648   5.873   5.264   8.610  0.9767  0.3248 -0.3049
 7005TIP3   OH242649   4.324   5.274   7.872  0.1248  0.1214 -0.3792
 7005TIP3    H142650   4.386   5.272   7.946 -0.9093 -1.9583  0.5156
 7005TIP3    H242651   4.377   5.255   7.795  0.7712 -0.8344  0.2748
 7006TIP3   OH242652   4.174   4.594   1.506  0.0859 -0.2409 -0.0211
 7006TIP3    H142653   4.085   4.561   1.504 -1.0869  2.4810  1.4154
 7006TIP3    H242654   4.215   4.550   1.580 -0.7811  0.0118  0.6220
 7007TIP3   OH242655   0.919   1.902   1.715  0.1888  0.1598  0.2710
 7007TIP3    H142656   0.919   1.992   1.748  2.1184 -0.3224  1.8128
 7007TIP3    H242657   0.919   1.911   1.620  0.4203  1.7987  0.3981
 7008TIP3   OH242658   6.033   2.564   0.826  0.1194 -0.1940  0.5011
 7008TIP3    H142659   6.050   2.604   0.912 -1.6310  1.6211  0.0888
 7008TIP3    H242660   6.017   2.639   0.768 -0.5621 -1.4482 -0.9884
 7009TIP3   OH242661   2.362   2.448   8.498  0.1191 -0.4221  0.0790
 7009TIP3    H142662   2.399   2.389   8.432  1.2961  1.8655 -1.4431
 7009TIP3    H242663   2.269   2.426   8.500  0.2640 -1.3454 -1.4847
 7010TIP3   OH242664   1.830   5.023   2.392 -0.3457 -0.3570  0.1462
 7010TIP3    H142665   1.871   5.076   2.460  1.0043 -1.0572 -0.0823
 7010TIP3    H242666   1.877   4.939   2.395 -0.0331 -0.3105 -1.8029
 7011TIP3   OH242667   0.120   0.137   1.523  0.2719  0.5520  0.5416
 7011TIP3    H142668   0.197   0.145   1.581  2.0398 -2.4682 -1.1172
 7011TIP3    H242669   0.090   0.047   1.536 -0.7197  0.5353 -1.5083
 7012TIP3   OH242670   4.958   4.241   1.230  0.3339  0.1909  0.5842
 7012TIP3    H142671   4.942   4.147   1.218  0.7737 -0.2011  2.6121
 7012TIP3    H242672   4.983   4.272   1.144  2.1877 -2.0051  0.2171
 7013TIP3   OH242673   4.289   3.110   8.140  0.7079 -0.1670 -0.2637
 7013TIP3    H142674   4.214   3.069   8.183 -1.1282  0.7495 -2.3952
 7013TIP3    H242675   4.363   3.091   8.198 -1.4151  0.4326  2.9043
 7014TIP3   OH242676   0.172   3.090   6.307  0.4336 -0.1555  0.2701
 7014TIP3    H142677   0.139   3.163   6.254 -0.9704 -0.9864 -0.0543
 7014TIP3    H242678   0.124   3.096   6.389  0.5670 -0.5299  0.3759
 7015TIP3   OH242679   4.890   6.715   7.859 -0.6127  0.1399 -0.1708
 7015TIP3    H142680   4.916   6.731   7.768  2.2285  1.3723  0.7394
 7015TIP3    H242681   4.855   6.799   7.889 -0.9892 -0.0948  0.0516
 7016TIP3   OH242682   3.604   5.173   1.323 -0.3694 -0.5443  0.9456
 7016TIP3    H142683   3.581   5.135   1.238  1.3040 -0.8392  0.5869
 7016TIP3    H242684   3.525   5.217   1.352 -0.7502  0.2529 -1.1399
 7017TIP3   OH242685   2.990   1.855   1.619  0.3329  0.2770 -0.2767
 7017TIP3    H142686   3.009   1.814   1.704 -1.1916  1.6698  0.7985
 7017TIP3    H242687   2.975   1.947   1.639 -0.5916  0.5437 -1.9934
 7018TIP3   OH242688   1.418   5.444   7.924 -0.5957  0.2533  0.4066
 7018TIP3    H142689   1.446   5.376   7.985 -1.1990 -0.3780  0.0023
 7018TIP3    H242690   1.323   5.451   7.939 -1.1200 -1.2577 -1.7254
 7019TIP3   OH242691   4.140   2.007   8.460 -0.3442  0.1595 -0.2361
 7019TIP3    H142692   4.190   2.065   8.519 -0.5845 -0.5997  0.7514
 7019TIP3    H242693   4.207   1.958   8.412 -0.1431  0.7589 -0.5688
 7020TIP3   OH242694   5.374   4.431   8.581  0.4662 -0.2360  0.1573
 7020TIP3    H142695   5.306   4.469   8.525  0.3995 -0.8256 -0.1790
 7020TIP3    H242696   5.451   4.423   8.524  0.4536 -0.6646  0.1911
 7021TIP3   OH242697   0.608   4.956   0.303  0.2134  0.3488  0.3387
 7021TIP3    H142698   0.616   4.901   0.381 -1.0713 -0.4811 -0.0829
 7021TIP3    H242699   0.526   5.004   0.315  0.0643  0.3005 -0.4376
 7022TIP3   OH242700   6.501   3.474   1.647 -0.2105  0.9107  0.1626
 7022TIP3    H142701   6.416   3.481   1.602 -0.5838 -0.9266  0.4882
 7022TIP3    H242702   6.485   3.511   1.734 -0.5347  1.0484  0.0470
 7023TIP3   OH242703   2.073   6.160   1.783  0.4894  0.5094 -0.0188
 7023TIP3    H142704   2.025   6.216   1.845  1.3009 -0.0018  1.0918
 7023TIP3    H242705   2.093   6.081   1.832 -0.6165 -0.8117 -1.5538
 7024TIP3   OH242706   5.366   2.458   7.534  0.1452 -0.1405  0.1945
 7024TIP3    H142707   5.315   2.529   7.494  0.7044  0.0889 -0.1331
 7024TIP3    H242708   5.363   2.476   7.628  2.7439  2.1145  0.0010
 7025TIP3   OH242709   4.989   1.407   7.188  0.0601 -0.4077 -0.0447
 7025TIP3    H142710   4.967   1.337   7.249 -0.5832 -0.2031 -0.0331
 7025TIP3    H242711   4.986   1.366   7.102  2.1066 -0.9802  0.1105
 7026TIP3   OH242712   6.558   3.696   7.858  0.3475 -0.1666  0.4779
 7026TIP3    H142713   6.590   3.617   7.902  2.4120  0.1090 -0.4574
 7026TIP3    H242714   6.510   3.743   7.927  0.3629 -1.4964  1.4393
 7027TIP3   OH242715   0.015   4.931   7.242 -0.1526 -0.2645  0.5186
 7027TIP3    H142716  -0.061   4.981   7.210 -0.3570 -1.3274 -0.7260
 7027TIP3    H242717  -0.023   4.853   7.283  0.2468 -0.4671  0.5039
 7028TIP3   OH242718   2.753   6.718   1.866 -0.9970  0.1617 -0.2269
 7028TIP3    H142719   2.727   6.734   1.957 -1.6090  0.7493 -0.5006
 7028TIP3    H242720   2.840   6.678   1.873 -0.7852  0.7362  0.5955
 7029TIP3   OH242721   6.252   3.380   8.606 -0.5583 -0.0026 -0.2422
 7029TIP3    H142722   6.195   3.322   8.657 -0.1862  1.7406  2.3010
 7029TIP3    H242723   6.197   3.455   8.586 -0.1739  0.0968 -0.9492
 7030TIP3   OH242724   4.682   4.213   8.354  0.2752  0.3026  0.2396
 7030TIP3    H142725   4.598   4.168   8.363  1.1355 -1.3274  0.5570
 7030TIP3    H242726   4.745   4.154   8.396  1.5581  1.5706  0.1744
 7031TIP3   OH242727   4.407   3.644   6.883 -0.5348  0.1583 -0.1191
 7031TIP3    H142728   4.379   3.688   6.964  0.5010  0.7313 -0.0473
 7031TIP3    H242729   4.414   3.552   6.908  1.5371  0.5452  1.0161
 7032TIP3   OH242730   3.444   3.253   0.357 -0.5532 -0.2710  0.4473
 7032TIP3    H142731   3.413   3.165   0.379 -0.3797 -0.4528 -0.0330
 7032TIP3    H242732   3.368   3.296   0.318 -0.6686 -0.1657  0.7767
 7033TIP3   OH242733   1.027   0.276   7.146 -0.6805 -0.1255 -0.3084
 7033TIP3    H142734   0.988   0.189   7.133  2.0304 -1.4873 -0.0868
 7033TIP3    H242735   1.117   0.258   7.173  0.1563  2.7781 -0.8133
 7034TIP3   OH242736   1.887   4.494   2.039  0.1506 -0.6245 -0.3064
 7034TIP3    H142737   1.980   4.513   2.045  0.0170  0.8314 -2.0535
 7034TIP3    H242738   1.845   4.570   2.080 -0.2859 -1.6212  1.1603
 7035TIP3   OH242739   5.854   2.670   8.250  0.3237  0.2257 -0.2410
 7035TIP3    H142740   5.781   2.710   8.202 -0.0227  0.5002  0.4964
 7035TIP3    H242741   5.893   2.743   8.297 -0.0292 -0.2152  0.7591
 7036TIP3   OH242742   1.588   1.616   6.603  0.0546  0.0935  0.8022
 7036TIP3    H142743   1.494   1.635   6.603  0.1092  0.3659  1.3214
 7036TIP3    H242744   1.610   1.606   6.510 -0.3169  0.8647  0.6264
 7037TIP3   OH242745   3.150   1.186   2.205 -1.0087 -0.1474 -0.0670
 7037TIP3    H142746   3.183   1.117   2.262  1.5824  1.9411  1.1649
 7037TIP3    H242747   3.155   1.266   2.258 -2.9383  1.2047 -1.7521
 7038TIP3   OH242748   4.972   6.518   1.525  0.2472  0.1126  0.0273
 7038TIP3    H142749   5.027   6.577   1.474  0.7771  0.2712  0.7802
 7038TIP3    H242750   4.935   6.573   1.594  0.0259 -0.2385  0.1903
 7039TIP3   OH242751   0.595   1.838   2.045 -0.5284  0.3706 -0.0582
 7039TIP3    H142752   0.547   1.822   1.964  0.0278 -1.3337 -0.0828
 7039TIP3    H242753   0.547   1.909   2.088 -0.9622  1.1349 -1.7499
 7040TIP3   OH242754   1.861   4.395   0.351  0.6518  0.4608  0.1579
 7040TIP3    H142755   1.837   4.325   0.412 -0.0380  0.0487 -0.5627
 7040TIP3    H242756   1.905   4.460   0.405  1.3077 -0.5232  0.8566
 7041TIP3   OH242757   5.520   5.798   8.930  0.3180 -0.1940 -0.3090
 7041TIP3    H142758   5.571   5.759   9.001  0.3972 -1.3669 -0.9711
 7041TIP3    H242759   5.486   5.879   8.966  2.2887  0.4242  0.3169
 7042TIP3   OH242760   5.718   6.526   0.876 -0.0580  0.3568  0.1776
 7042TIP3    H142761   5.642   6.468   0.869 -0.9034  1.5647 -1.5469
 7042TIP3    H242762   5.714   6.560   0.965  1.2946 -3.1772  1.7580
 7043TIP3   OH242763   2.100   3.323   0.549 -0.1137 -0.0955 -0.0689
 7043TIP3    H142764   2.195   3.321   0.561 -0.2837 -3.3107  1.7786
 7043TIP3    H242765   2.076   3.233   0.528 -2.8287  0.5608 -0.1665
 7044TIP3   OH242766   5.976   5.830   2.319  0.3791  0.2444  0.5936
 7044TIP3    H142767   6.013   5.917   2.330 -0.8962  0.5011  4.0963
 7044TIP3    H242768   5.881   5.844   2.311  0.3478 -0.7433 -1.4360
 7045TIP3   OH242769   2.959   4.541   0.487  0.3638  0.2552 -0.1251
 7045TIP3    H142770   2.975   4.549   0.393  1.0554 -1.0523 -0.1403
 7045TIP3    H242771   3.047   4.538   0.526  0.0837  0.8373  0.5804
 7046TIP3   OH242772   5.609   3.533   7.585 -0.0418 -0.3883  0.1981
 7046TIP3    H142773   5.553   3.456   7.595 -1.6052  0.6401 -0.2987
 7046TIP3    H242774   5.618   3.544   7.491 -0.6868  0.6216  0.2464
 7047TIP3   OH242775   4.787   0.141   0.103  0.4094  0.3475  0.0882
 7047TIP3    H142776   4.860   0.131   0.042  0.5374  1.7878 -0.0353
 7047TIP3    H242777   4.719   0.083   0.069  0.9964  0.0445 -0.5977
 7048TIP3   OH242778   6.408   4.605   0.246  0.0013 -0.2623  0.0388
 7048TIP3    H142779   6.460   4.534   0.207  0.4052  0.5416 -0.9400
 7048TIP3    H242780   6.334   4.561   0.287  0.4062 -1.2742 -0.2796
 7049TIP3   OH242781   3.605   1.661   8.918 -0.4819  0.4875 -0.4539
 7049TIP3    H142782   3.509   1.665   8.918 -0.6396 -1.7352 -0.2456
 7049TIP3    H242783   3.625   1.597   8.850  0.7045 -0.7973  1.0329
 7050TIP3   OH242784   2.479   1.468   8.168  0.3991 -0.5906  0.1388
 7050TIP3    H142785   2.498   1.552   8.209  0.9320 -1.5080  1.9113
 7050TIP3    H242786   2.384   1.467   8.158  0.4925  0.7808 -1.2956
 7051TIP3   OH242787   2.943   2.089   0.750  0.4173  0.4063  0.0971
 7051TIP3    H142788   2.885   2.090   0.825  1.5490 -0.3188  1.0119
 7051TIP3    H242789   2.905   2.152   0.689 -0.8375  0.5705  1.0224
 7052TIP3   OH242790   4.796   5.781   0.611 -0.4025 -0.1331  0.4822
 7052TIP3    H142791   4.772   5.869   0.582 -1.4227 -0.2528  0.9333
 7052TIP3    H242792   4.859   5.796   0.682 -2.0756  0.3085  1.9295
 7053TIP3   OH242793   6.089   4.665   8.270 -0.3079 -0.6291  0.1412
 7053TIP3    H142794   6.045   4.611   8.205  0.8735  0.2733 -1.5062
 7053TIP3    H242795   6.021   4.722   8.305 -1.0156 -1.3038 -0.1178
 7054TIP3   OH242796   1.350   6.749   8.975  0.5716 -0.5618  0.1585
 7054TIP3    H142797   1.336   6.833   8.932 -1.4371 -1.0543 -0.2490
 7054TIP3    H242798   1.285   6.747   9.045 -0.2693 -2.2514 -0.6120
 7055TIP3   OH242799   1.120   6.234   2.012  0.6627 -0.0086 -0.4331
 7055TIP3    H142800   1.156   6.280   2.087 -0.8140  0.0745  0.2510
 7055TIP3    H242801   1.146   6.142   2.026 -0.6749 -0.2229  0.8891
 7056TIP3   OH242802   4.870   2.757   7.729  0.7325 -0.1775  0.3760
 7056TIP3    H142803   4.808   2.811   7.777 -0.3250  0.4593 -1.5610
 7056TIP3    H242804   4.935   2.819   7.696  0.7178 -0.3993 -0.0759
 7057TIP3   OH242805   1.263   6.701   8.715 -0.2091 -1.1740  0.0417
 7057TIP3    H142806   1.274   6.729   8.806  0.2067  1.7430 -0.8041
 7057TIP3    H242807   1.350   6.669   8.689  0.6418  1.1829 -0.2377
 7058TIP3   OH242808   3.632   0.041   6.479 -0.3273  0.4568  0.3155
 7058TIP3    H142809   3.541   0.049   6.450 -0.3489 -1.1184 -0.2036
 7058TIP3    H242810   3.664  -0.036   6.431  0.7003 -0.1538  1.9157
 7059TIP3   OH242811   3.065   4.548   0.236  0.1465 -0.4017  0.0633
 7059TIP3    H142812   3.024   4.478   0.185  0.8163 -0.1862 -0.7939
 7059TIP3    H242813   3.158   4.526   0.237  0.2078 -0.1359  0.7862
 7060TIP3   OH242814   3.085   1.313   7.073  0.5088  0.5925  0.5270
 7060TIP3    H142815   3.031   1.293   6.997  0.2041  1.1345  0.5922
 7060TIP3    H242816   3.103   1.228   7.113  1.1247  0.2542 -0.4502
 7061TIP3   OH242817   5.008   2.473   6.929  0.3809  0.3398 -0.1830
 7061TIP3    H142818   5.043   2.397   6.974 -1.2340 -0.1938  0.2378
 7061TIP3    H242819   5.038   2.463   6.838 -0.8688 -1.5120 -0.4392
 7062TIP3   OH242820   3.114   1.215   1.600  0.1339  0.0815 -0.0891
 7062TIP3    H142821   3.031   1.223   1.648  0.5468 -0.7887  0.8195
 7062TIP3    H242822   3.117   1.124   1.572  0.4337  0.3019 -0.7780
 7063TIP3   OH242823   0.122   4.448   0.366 -0.0778 -0.1425 -0.4397
 7063TIP3    H142824   0.123   4.443   0.462 -1.7295 -0.3326 -0.4047
 7063TIP3    H242825   0.200   4.399   0.339 -0.5125 -1.5776  0.7597
 7064TIP3   OH242826   5.716   0.625   7.177 -0.3689 -0.0557 -0.0374
 7064TIP3    H142827   5.714   0.596   7.086  0.4376  0.3017 -0.1766
 7064TIP3    H242828   5.730   0.720   7.172  0.1278 -0.0994  0.4641
 7065TIP3   OH242829   5.172   3.773   0.880 -0.5906 -0.0300 -0.0318
 7065TIP3    H142830   5.204   3.856   0.915  2.3751 -1.0704  0.0238
 7065TIP3    H242831   5.122   3.734   0.952  0.4086  0.4703  0.9532
 7066TIP3   OH242832   2.225   3.821   7.415 -0.0898 -0.4647 -0.1758
 7066TIP3    H142833   2.271   3.796   7.335 -1.4710 -0.3436 -1.0446
 7066TIP3    H242834   2.143   3.772   7.411 -1.5026  1.8039 -0.3775
 7067TIP3   OH242835   4.613   2.180   8.617  0.0023  0.2604  0.2851
 7067TIP3    H142836   4.645   2.174   8.707 -0.2109 -1.5385  0.2732
 7067TIP3    H242837   4.681   2.139   8.565 -0.8016 -0.5719 -0.1267
 7068TIP3   OH242838   3.357   0.976   8.329  0.4828 -0.4918  0.3152
 7068TIP3    H142839   3.433   0.933   8.369  1.2967  0.9048  0.3266
 7068TIP3    H242840   3.372   0.969   8.235  0.0182 -1.2319  0.2832
 7069TIP3   OH242841   2.316   0.996   7.131 -0.3628  0.4479 -0.3205
 7069TIP3    H142842   2.232   0.951   7.138 -0.2282  0.4027  1.5338
 7069TIP3    H242843   2.307   1.054   7.056 -2.2712  0.8746  0.2008
 7070TIP3   OH242844   0.586   4.647   8.242 -0.0528 -0.5292 -0.0832
 7070TIP3    H142845   0.648   4.713   8.275  0.3983 -0.4139 -1.1358
 7070TIP3    H242846   0.641   4.579   8.205 -0.5180 -1.5426  1.0124
 7071TIP3   OH242847   1.584   4.165   6.976  0.0579 -0.4281 -0.0449
 7071TIP3    H142848   1.613   4.256   6.980 -0.0521 -0.2566 -2.1000
 7071TIP3    H242849   1.495   4.170   6.941 -1.2354 -1.1805  2.7996
 7072TIP3   OH242850   5.003   3.974   1.149  0.2488  0.4054 -0.0698
 7072TIP3    H142851   5.093   3.956   1.123 -0.3166  1.3114 -3.0430
 7072TIP3    H242852   4.954   3.977   1.067 -2.5574 -0.1891  1.4473
 7073TIP3   OH242853   5.458   0.777   0.514  0.5076 -0.2628 -0.4595
 7073TIP3    H142854   5.457   0.778   0.609 -1.0569  3.2592 -0.3512
 7073TIP3    H242855   5.551   0.783   0.491  0.8328  0.1513  0.8970
 7074TIP3   OH242856   0.198   4.126   7.528 -0.0893 -0.1783  0.3825
 7074TIP3    H142857   0.134   4.095   7.592 -0.2665  0.5642  0.5762
 7074TIP3    H242858   0.275   4.071   7.542 -0.6276 -0.9800  0.2483
 7075TIP3   OH242859   1.674   0.024   8.536  0.2558  0.1265  0.4770
 7075TIP3    H142860   1.631  -0.060   8.556 -0.2424  0.3549  0.3745
 7075TIP3    H242861   1.663   0.034   8.441  1.9858 -0.6059  0.1459
 7076TIP3   OH242862   5.864   3.518   8.758 -0.0241  0.1244 -0.4446
 7076TIP3    H142863   5.914   3.511   8.839  0.5317  2.6724 -0.4828
 7076TIP3    H242864   5.777   3.545   8.786 -0.1715 -0.1394 -0.6442
 7077TIP3   OH242865   2.498   2.980   0.247 -0.5169  1.0460 -0.0900
 7077TIP3    H142866   2.404   2.997   0.257 -0.9050 -1.7407  2.5077
 7077TIP3    H242867   2.540   3.041   0.306 -0.8647  1.0470  0.1593
 7078TIP3   OH242868   3.382   5.420   1.101 -0.9596 -0.6463 -0.1286
 7078TIP3    H142869   3.353   5.380   1.183 -2.0285 -0.1105 -0.2273
 7078TIP3    H242870   3.317   5.488   1.083 -0.5417 -0.5147 -1.2360
 7079TIP3   OH242871   2.072   4.931   8.940  0.5001  0.4996  0.3688
 7079TIP3    H142872   2.033   5.013   8.971  0.6106  0.0847  1.6875
 7079TIP3    H242873   2.031   4.864   8.994 -0.7156 -0.5144 -1.7259
 7080TIP3   OH242874   2.675   0.596   7.117 -0.0903 -0.8954 -0.3663
 7080TIP3    H142875   2.731   0.619   7.043  1.0428 -2.9174 -0.1946
 7080TIP3    H242876   2.716   0.639   7.192  2.0356 -3.2394 -0.0414
 7081TIP3   OH242877   2.752   6.655   8.562 -0.1718  0.5324 -0.2287
 7081TIP3    H142878   2.757   6.744   8.528  1.3786  0.3464 -0.5695
 7081TIP3    H242879   2.809   6.604   8.505 -0.3526 -0.5040  0.4855
 7082TIP3   OH242880   4.823   1.007   1.762  0.3672  0.2688 -0.2472
 7082TIP3    H142881   4.843   1.037   1.851  1.5581 -1.3517  0.0868
 7082TIP3    H242882   4.732   0.979   1.766  0.6978 -0.7514  0.7831
 7083TIP3   OH242883   0.991   5.251   8.687 -0.0792  0.1307 -0.2401
 7083TIP3    H142884   0.985   5.296   8.771 -1.2293 -0.6824  0.1347
 7083TIP3    H242885   0.971   5.160   8.707  3.3193 -0.9057 -0.7594
 7084TIP3   OH242886   5.464   3.540   8.592 -0.4894  0.6400  0.6677
 7084TIP3    H142887   5.452   3.445   8.595 -1.7877  0.7241 -0.5685
 7084TIP3    H242888   5.551   3.552   8.554 -1.0564 -0.0954 -0.9697
 7085TIP3   OH242889   4.224   2.054   6.987 -0.3927 -0.1351  0.0659
 7085TIP3    H142890   4.288   1.991   7.020 -0.1703 -0.1919 -0.4683
 7085TIP3    H242891   4.184   2.090   7.066  1.3494  1.0023  0.4825
 7086TIP3   OH242892   6.057   6.288   1.200  0.0464 -0.2578 -0.0808
 7086TIP3    H142893   6.050   6.235   1.280 -2.6302  1.2842  0.8680
 7086TIP3    H242894   6.013   6.236   1.133  0.2102 -0.5573  0.0406
 7087TIP3   OH242895   6.297   4.158   0.565 -0.9885 -0.0157 -0.2184
 7087TIP3    H142896   6.238   4.101   0.517  0.6047 -0.4530 -1.7500
 7087TIP3    H242897   6.349   4.098   0.619 -0.6910  0.1738 -0.2920
 7088TIP3   OH242898   6.177   6.233   0.445 -0.1844  0.1271 -0.1236
 7088TIP3    H142899   6.153   6.310   0.393 -0.0531 -0.7022 -1.4713
 7088TIP3    H242900   6.273   6.233   0.443 -0.1898 -0.3022 -0.5014
 7089TIP3   OH242901   3.639   0.433   0.280  0.4164  0.1499  0.2988
 7089TIP3    H142902   3.588   0.352   0.283 -0.3420  0.6159  0.3255
 7089TIP3    H242903   3.717   0.415   0.333  1.8080 -1.5800 -2.1237
 7090TIP3   OH242904   2.915   6.541   8.364 -0.0682 -0.6402  0.1138
 7090TIP3    H142905   2.913   6.519   8.271  2.1641 -1.3464  0.1727
 7090TIP3    H242906   2.983   6.485   8.401 -0.8264 -0.3131  2.1800
 7091TIP3   OH242907   4.681   6.353   1.402 -0.5523  0.2456 -0.6058
 7091TIP3    H142908   4.610   6.324   1.345 -0.7604 -1.0759  0.2854
 7091TIP3    H242909   4.710   6.274   1.447  1.5443  0.7354 -0.9803
 7092TIP3   OH242910   5.050   0.628   7.146 -0.4852 -0.5964 -0.4300
 7092TIP3    H142911   4.959   0.634   7.116 -0.7079 -0.5260  0.2579
 7092TIP3    H242912   5.050   0.671   7.232  0.1247 -0.9090 -0.2732
 7093TIP3   OH242913   0.356   0.714   2.219 -0.2133 -0.4299 -0.0442
 7093TIP3    H142914   0.283   0.657   2.241 -0.3657 -0.5280 -0.7855
 7093TIP3    H242915   0.404   0.667   2.151 -0.7616  0.6244 -1.2156
 7094TIP3   OH242916   3.117   1.222   0.734 -0.1358 -0.6910  0.4933
 7094TIP3    H142917   3.151   1.167   0.663  0.7937 -1.1266  1.2590
 7094TIP3    H242918   3.126   1.168   0.813 -2.3818 -0.7435  0.8031
 7095TIP3   OH242919   0.348   1.384   2.755 -0.8423  0.8177  0.6643
 7095TIP3    H142920   0.437   1.352   2.766 -2.2860 -3.3558  2.0348
 7095TIP3    H242921   0.350   1.433   2.673  2.7629  1.4231  0.9617
 7096TIP3   OH242922   3.085   1.549   1.370  0.2122  0.3840 -0.4476
 7096TIP3    H142923   3.112   1.641   1.364 -0.7669  0.6999 -0.1865
 7096TIP3    H242924   3.024   1.537   1.297  0.7251 -0.2098 -0.7891
 7097TIP3   OH242925   3.017   2.840   7.580 -0.1278 -0.1034  0.2718
 7097TIP3    H142926   3.106   2.833   7.547 -0.6523  1.5061 -1.7083
 7097TIP3    H242927   2.961   2.819   7.505 -1.4818 -2.3390  1.7817
 7098TIP3   OH242928   0.943   4.388   7.283  0.0641  0.0704  0.2702
 7098TIP3    H142929   0.908   4.325   7.221 -1.0983  1.6865 -0.7885
 7098TIP3    H242930   1.038   4.374   7.280 -0.1405 -1.4261 -0.1113
 7099TIP3   OH242931   4.015   2.162   1.377 -0.0320 -0.0553 -0.4070
 7099TIP3    H142932   3.983   2.113   1.453  0.5671  0.0048 -0.1068
 7099TIP3    H242933   4.080   2.222   1.413  1.2266 -0.9396 -1.1350
 7100TIP3   OH242934   3.254   2.096   0.444 -0.3255  0.1840  0.3032
 7100TIP3    H142935   3.279   2.117   0.534 -2.5419  0.3575  0.9459
 7100TIP3    H242936   3.160   2.079   0.449 -0.2254 -1.3356 -1.7303
 7101TIP3   OH242937   4.813   3.278   1.382 -0.8996  0.4648  0.2090
 7101TIP3    H142938   4.825   3.201   1.326  0.0434  0.3532  0.5486
 7101TIP3    H242939   4.883   3.338   1.356 -0.7433  0.6065  0.9446
 7102TIP3   OH242940   0.263   1.628   1.925 -0.1940  0.3771 -0.3348
 7102TIP3    H142941   0.311   1.545   1.926 -0.6519  0.1012  1.1048
 7102TIP3    H242942   0.319   1.687   1.874  0.6870 -0.4962 -0.4172
 7103TIP3   OH242943   3.409   3.992   1.483 -0.2253  0.3296  0.1402
 7103TIP3    H142944   3.433   4.066   1.538 -0.9792  0.9730 -0.3814
 7103TIP3    H242945   3.488   3.973   1.432 -0.3771  1.5630 -0.5945
 7104TIP3   OH242946   2.241   3.957   6.660  0.0357  0.3668  0.4903
 7104TIP3    H142947   2.208   3.873   6.629  1.4184 -0.5196  1.2798
 7104TIP3    H242948   2.163   4.012   6.670 -0.7262 -0.2008 -1.7669
 7105TIP3   OH242949   3.647   3.258   1.202 -0.0038  0.0323  0.5269
 7105TIP3    H142950   3.706   3.203   1.255 -0.3322  0.2555  1.1304
 7105TIP3    H242951   3.591   3.302   1.266  1.3705  2.4339  0.2117
 7106TIP3   OH242952   5.707   0.627   0.083 -0.5306  0.2138  0.9725
 7106TIP3    H142953   5.746   0.648  -0.002 -1.9642  0.8829  0.4424
 7106TIP3    H242954   5.749   0.545   0.109 -0.0532 -0.0038 -0.3838
 7107TIP3   OH242955   5.248   6.526   7.896 -0.3225  0.7603 -0.3707
 7107TIP3    H142956   5.258   6.516   7.990 -0.8112  0.0501 -0.3958
 7107TIP3    H242957   5.226   6.619   7.884  0.7577  1.1019  0.1203
 7108TIP3   OH242958   6.054   3.416   8.955 -0.2493  0.2941 -0.1926
 7108TIP3    H142959   6.123   3.370   8.908 -0.4117  0.7837 -0.9143
 7108TIP3    H242960   6.007   3.347   9.002  0.0750 -0.1671 -0.5366
 7109TIP3   OH242961   4.773   6.394   8.789 -0.4537 -0.8873  0.1375
 7109TIP3    H142962   4.860   6.354   8.787 -0.6462 -1.4232  1.3307
 7109TIP3    H242963   4.712   6.322   8.779 -0.7859 -0.4397 -1.3258
 7110TIP3   OH242964   2.399   5.676   6.113  0.5580 -0.2331 -0.6438
 7110TIP3    H142965   2.418   5.747   6.052 -0.2461  0.0935 -0.5208
 7110TIP3    H242966   2.482   5.662   6.159  0.5963  0.9670 -0.3146
 7111TIP3   OH242967   5.192   5.586   0.495 -0.3384 -0.7188 -0.1048
 7111TIP3    H142968   5.268   5.556   0.445  0.9044  1.6997  0.1580
 7111TIP3    H242969   5.230   5.634   0.569 -2.0325  2.3598 -1.0534
 7112TIP3   OH242970   5.752   3.047   6.917 -0.0043  0.6993  0.1000
 7112TIP3    H142971   5.846   3.055   6.932  0.2892 -2.0671  0.3849
 7112TIP3    H242972   5.739   3.084   6.830  2.0014 -1.7131 -1.3717
 7113TIP3   OH242973   4.738   0.557   8.210 -0.0965  0.4906  0.0165
 7113TIP3    H142974   4.652   0.530   8.179  0.6810 -2.1709 -0.1047
 7113TIP3    H242975   4.726   0.577   8.303 -0.6977 -0.8186  0.2374
 7114TIP3   OH242976   5.351   5.346   0.750  0.1403  0.4610  0.5431
 7114TIP3    H142977   5.419   5.318   0.688  0.5657  0.2574  1.1019
 7114TIP3    H242978   5.387   5.425   0.791 -0.7927  1.5113 -0.5766
 7115TIP3   OH242979   5.500   0.257   1.206 -0.1565  0.6368  0.4451
 7115TIP3    H142980   5.488   0.309   1.286  0.7530  1.4338  0.0818
 7115TIP3    H242981   5.481   0.318   1.135 -2.6197 -0.5062  0.0345
 7116TIP3   OH242982   1.829   4.246   0.589  0.4897  0.6652 -0.0825
 7116TIP3    H142983   1.822   4.333   0.628 -1.4391  1.4291 -1.9483
 7116TIP3    H242984   1.739   4.215   0.583  0.9204 -0.4057 -1.6997
 7117TIP3   OH242985   0.100   2.137   7.615 -0.1487  0.3369  0.8077
 7117TIP3    H142986   0.010   2.166   7.599  0.0577  0.8982  0.6508
 7117TIP3    H242987   0.142   2.212   7.656  0.0433 -0.1882  1.5985
 7118TIP3   OH242988   0.175   6.597   1.596 -0.1402 -0.3507 -0.3213
 7118TIP3    H142989   0.084   6.621   1.609 -0.1679 -0.0496 -1.0654
 7118TIP3    H242990   0.172   6.506   1.565 -0.2103 -0.1991 -0.7599
 7119TIP3   OH242991   5.300   5.365   7.526 -0.1718  0.1885  0.4390
 7119TIP3    H142992   5.339   5.425   7.590  0.9835  1.6924 -1.5886
 7119TIP3    H242993   5.263   5.422   7.458 -1.0393 -1.3691 -0.4603
 7120TIP3   OH242994   4.602   0.870   1.011 -0.1322 -1.0155 -0.2300
 7120TIP3    H142995   4.684   0.821   1.025 -0.1693 -1.3057 -0.9746
 7120TIP3    H242996   4.538   0.803   0.987 -0.2455 -0.6262 -1.0248
 7121TIP3   OH242997   4.282   5.059   0.368 -0.0063 -0.2525 -0.2024
 7121TIP3    H142998   4.255   5.103   0.448  1.2613  0.5822 -0.1995
 7121TIP3    H242999   4.209   5.070   0.308  0.2309  1.8470 -0.1846
 7122TIP3   OH243000   2.993   0.440   8.856  0.2358 -0.1468  0.5907
 7122TIP3    H143001   3.054   0.383   8.809 -1.3254 -1.2953 -0.1410
 7122TIP3    H243002   2.961   0.501   8.790 -0.1574 -0.2133  0.7164
 7123TIP3   OH243003   2.795   5.028   8.281 -0.0975  0.2656 -0.1254
 7123TIP3    H143004   2.774   5.057   8.192  1.2535  0.3571 -0.4355
 7123TIP3    H243005   2.819   5.108   8.328  0.3310  0.0743 -0.0137
 7124TIP3   OH243006   2.994   2.071   8.721  0.3454 -0.1541 -0.4329
 7124TIP3    H143007   2.943   2.049   8.642  0.0041  0.7122 -0.4555
 7124TIP3    H243008   2.993   2.166   8.725  0.2699 -0.1904  0.6856
 7125TIP3   OH243009   5.656   1.473   8.952  0.8145 -0.2408  0.2014
 7125TIP3    H143010   5.594   1.520   9.008 -1.2012  0.7408 -2.6228
 7125TIP3    H243011   5.638   1.506   8.864  3.6839 -1.8172 -1.0898
 7126TIP3   OH243012   1.530   4.885   0.526 -0.0578 -0.0229  0.5142
 7126TIP3    H143013   1.546   4.793   0.504  0.5751  0.3428 -0.6661
 7126TIP3    H243014   1.506   4.884   0.619 -1.2833 -1.5038  0.2251
 7127TIP3   OH243015   3.594   2.925   1.312 -0.0160 -0.0698  0.1202
 7127TIP3    H143016   3.607   2.845   1.363  0.3199  0.8628  1.5669
 7127TIP3    H243017   3.500   2.940   1.315 -0.2184 -0.9834 -1.0970
 7128TIP3   OH243018   2.513   2.660   8.484 -0.5377  0.0320 -0.4722
 7128TIP3    H143019   2.451   2.588   8.491  1.2755 -1.5035  0.6415
 7128TIP3    H243020   2.506   2.705   8.568 -1.0911  0.7231 -0.8707
 7129TIP3   OH243021   1.124   3.768   0.746  0.6000  0.0928 -0.2065
 7129TIP3    H143022   1.066   3.824   0.798 -0.3018 -0.0078 -1.0590
 7129TIP3    H243023   1.212   3.788   0.778  0.2182  1.2757  0.1834
 7130TIP3   OH243024   4.921   0.511   1.211 -0.1818 -0.7503  0.5290
 7130TIP3    H143025   5.007   0.537   1.243 -0.2673 -0.2854  0.3896
 7130TIP3    H243026   4.882   0.463   1.285 -0.0055 -0.5182  0.7774
 7131TIP3   OH243027   1.932   0.153   8.261 -0.0288 -0.0147 -0.2450
 7131TIP3    H143028   1.996   0.099   8.214 -0.1233  0.3828 -0.8422
 7131TIP3    H243029   1.849   0.105   8.252  0.3447 -1.0501  1.3909
 7132TIP3   OH243030   6.413   4.162   7.274  0.2011  0.3850 -0.4468
 7132TIP3    H143031   6.454   4.246   7.258 -0.5860  0.9057  0.1809
 7132TIP3    H243032   6.424   4.113   7.192  3.9386 -0.3623  0.3190
 7133TIP3   OH243033   0.378   3.581   0.724  0.5728 -0.2344 -0.3254
 7133TIP3    H143034   0.327   3.558   0.646 -0.2222 -1.4436  0.5094
 7133TIP3    H243035   0.462   3.536   0.712 -0.4583 -2.5873  0.6331
 7134TIP3   OH243036   2.530   3.637   0.151 -0.1868 -0.4900 -0.0530
 7134TIP3    H143037   2.513   3.571   0.218  1.1858 -0.7373  0.0714
 7134TIP3    H243038   2.621   3.624   0.126 -0.6785 -0.4497 -2.0334
 7135TIP3   OH243039   5.801   1.744   8.792  0.3694 -0.0774  0.0415
 7135TIP3    H143040   5.740   1.816   8.777 -1.0372 -1.4518 -1.2773
 7135TIP3    H243041   5.814   1.743   8.887 -2.1781 -0.0746  0.4657
 7136TIP3   OH243042   4.690   6.168   8.235 -0.1761  0.0027 -0.4906
 7136TIP3    H143043   4.717   6.192   8.323 -1.6303 -1.4138  0.4010
 7136TIP3    H243044   4.693   6.250   8.185  1.1170  0.7376  0.7340
 7137TIP3   OH243045   2.175   4.396   8.202 -0.0147 -0.0908  0.2836
 7137TIP3    H143046   2.190   4.387   8.107  2.8414 -3.0457  0.8210
 7137TIP3    H243047   2.108   4.329   8.221 -0.3050  0.2353  0.4122
 7138TIP3   OH243048   1.157   1.236   7.365  0.5629  0.3817  0.0752
 7138TIP3    H143049   1.075   1.186   7.355  0.3070  0.7941  0.0784
 7138TIP3    H243050   1.170   1.276   7.279  2.5097 -2.2812 -0.9838
 7139TIP3   OH243051   6.137   4.018   0.783 -0.0521  0.3202 -0.6531
 7139TIP3    H143052   6.198   3.970   0.727 -1.6319 -0.9968 -1.3415
 7139TIP3    H243053   6.051   4.002   0.744 -0.7762  3.0200 -0.3810
 7140TIP3   OH243054   5.633   2.715   7.541 -0.3370  0.6813  0.7226
 7140TIP3    H143055   5.597   2.641   7.492  2.4893 -1.7029  1.9623
 7140TIP3    H243056   5.614   2.791   7.487  0.2764 -1.4256 -2.7607
 7141TIP3   OH243057   3.935   1.523   8.318  0.1729  0.1317  0.0153
 7141TIP3    H143058   3.893   1.538   8.403 -0.9034  3.3191 -0.9439
 7141TIP3    H243059   3.989   1.601   8.304  2.0758 -1.3288 -1.3178
 7142TIP3   OH243060   0.886   4.124   0.538  0.9917  0.0369 -0.1156
 7142TIP3    H143061   0.937   4.202   0.519  1.7018 -0.1942  0.7484
 7142TIP3    H243062   0.832   4.149   0.613  1.2972 -0.3166  0.2306
 7143TIP3   OH243063   5.302   5.301   8.252  0.1517  0.2322 -0.4330
 7143TIP3    H143064   5.329   5.226   8.199  0.4512 -0.0066  0.0450
 7143TIP3    H243065   5.218   5.328   8.215 -1.3449 -2.0274  1.0286
 7144TIP3   OH243066   0.600   6.050   0.178 -0.2609 -0.1037  0.2155
 7144TIP3    H143067   0.562   6.027   0.093  0.4356  2.4304 -0.9014
 7144TIP3    H243068   0.526   6.048   0.239 -0.8051 -1.8041 -0.4578
 7145TIP3   OH243069   6.088   2.664   7.214  0.3375 -0.0115 -0.2860
 7145TIP3    H143070   5.999   2.637   7.192  0.4092  0.2533 -0.9487
 7145TIP3    H243071   6.100   2.746   7.165  1.5579 -0.9487 -1.6404
 7146TIP3   OH243072   3.681   1.145   8.496 -0.0864  0.0599 -0.0248
 7146TIP3    H143073   3.631   1.066   8.475  0.0126 -0.4178  1.3761
 7146TIP3    H243074   3.759   1.140   8.441  0.6366 -1.6198  1.0682
 7147TIP3   OH243075   5.306   3.097   1.730  0.2077  0.1205  0.5662
 7147TIP3    H143076   5.398   3.074   1.721  0.4362  1.8152 -3.8307
 7147TIP3    H243077   5.306   3.191   1.747 -0.7598 -0.0881  1.8885
 7148TIP3   OH243078   3.989   4.785   8.208 -0.5133 -0.0101  0.2043
 7148TIP3    H143079   4.005   4.789   8.114 -1.7369  0.7054  0.0061
 7148TIP3    H243080   3.950   4.699   8.223  2.5369 -1.4448  0.5774
 7149TIP3   OH243081   4.521   4.723   0.545 -0.9318  0.2286  0.4703
 7149TIP3    H143082   4.552   4.783   0.477 -0.8734  0.4222  0.6708
 7149TIP3    H243083   4.431   4.749   0.561  0.2169  2.9732  3.4890
 7150TIP3   OH243084   4.251   0.246   0.042 -0.0991 -0.0352  0.1831
 7150TIP3    H143085   4.310   0.183   0.002  0.5048  0.4506  0.2828
 7150TIP3    H243086   4.207   0.288  -0.031 -1.9171 -1.8662  0.1645
 7151TIP3   OH243087   6.713   0.088   7.947  0.0250  0.0078  0.3027
 7151TIP3    H143088   6.728   0.052   8.034  0.0719 -0.9130 -0.0774
 7151TIP3    H243089   6.654   0.162   7.961  0.8718  0.5364  1.2303
 7152TIP3   OH243090   3.991   4.203   7.306 -0.4053 -0.1405 -0.4185
 7152TIP3    H143091   3.903   4.176   7.279 -0.7962 -0.8227  1.3952
 7152TIP3    H243092   4.016   4.139   7.372  1.3624  0.2087 -0.6950
 7153TIP3   OH243093   0.454   0.773   6.152 -0.0226 -0.0807 -0.2433
 7153TIP3    H143094   0.512   0.702   6.176 -0.0839 -0.3914 -0.9883
 7153TIP3    H243095   0.384   0.771   6.218  1.1708  0.7617  1.0982
 7154TIP3   OH243096   6.345   3.396   7.330  0.2581  0.3784  0.9055
 7154TIP3    H143097   6.257   3.358   7.340 -0.6878  2.1217 -0.2568
 7154TIP3    H243098   6.392   3.333   7.276 -1.7815  1.4030 -2.3727
 7155TIP3   OH243099   4.342   5.417   0.794 -0.2718 -0.0741  0.0495
 7155TIP3    H143100   4.264   5.457   0.832 -0.5831 -0.1107 -0.5553
 7155TIP3    H243101   4.403   5.410   0.868 -0.6225  0.4839  0.3975
 7156TIP3   OH243102   4.407   1.049   2.108 -0.4946 -0.1806 -0.3107
 7156TIP3    H143103   4.459   0.968   2.114 -2.1777 -1.3722 -0.9823
 7156TIP3    H243104   4.424   1.094   2.191  2.1287 -0.1408 -0.7814
 7157TIP3   OH243105   3.784   2.309   0.150 -0.3545  0.2804 -0.1876
 7157TIP3    H143106   3.764   2.329   0.241  0.1076 -0.0851 -0.0045
 7157TIP3    H243107   3.868   2.263   0.153 -0.4945 -0.0265 -0.7651
 7158TIP3   OH243108   1.969   5.976   7.996 -0.2797 -0.2780  0.2931
 7158TIP3    H143109   1.892   5.994   7.942  0.3579  0.8369 -0.2774
 7158TIP3    H243110   1.965   5.882   8.013 -1.5447 -0.3055 -0.0660
 7159TIP3   OH243111   0.379   2.801   7.621  0.6227  0.2632 -0.9147
 7159TIP3    H143112   0.410   2.875   7.569 -0.9928  0.7044 -1.3155
 7159TIP3    H243113   0.320   2.840   7.686  0.1823 -0.6011 -0.7758
 7160TIP3   OH243114   0.710   6.658   7.967 -0.1253 -0.7703 -0.3626
 7160TIP3    H143115   0.631   6.711   7.978  0.6235  0.1782  0.7776
 7160TIP3    H243116   0.740   6.678   7.878  0.7664  1.6967  0.4031
 7161TIP3   OH243117   5.137   5.823   6.622 -0.0106 -0.8041  0.2831
 7161TIP3    H143118   5.112   5.826   6.715  0.4944 -1.5411  0.4579
 7161TIP3    H243119   5.168   5.733   6.609  2.6764  0.0450  0.1441
 7162TIP3   OH243120   3.200   6.487   8.484  0.4869 -0.3207 -0.3730
 7162TIP3    H143121   3.221   6.425   8.554 -0.7951 -1.6789 -1.1342
 7162TIP3    H243122   3.283   6.500   8.438  0.9888 -0.6668  0.4063
 7163TIP3   OH243123   3.420   6.733   2.088 -0.1530 -0.1727  0.2564
 7163TIP3    H143124   3.332   6.771   2.093  0.1184  0.7161 -1.1919
 7163TIP3    H243125   3.479   6.808   2.092  0.5396 -0.7293  0.7477
 7164TIP3   OH243126   4.166   4.662   7.148  0.4524  0.5218 -0.7931
 7164TIP3    H143127   4.106   4.733   7.125 -1.1324 -0.3574  0.4455
 7164TIP3    H243128   4.205   4.690   7.231 -0.7703 -0.3636  0.1078
 7165TIP3   OH243129   3.941   2.993   0.651 -0.5543 -0.1114 -0.3895
 7165TIP3    H143130   3.907   2.998   0.741  0.2184 -0.1332 -0.0847
 7165TIP3    H243131   3.885   3.051   0.600 -0.2883  0.8009  0.3362
 7166TIP3   OH243132   5.798   4.486   1.249  0.0729  0.2322  0.0029
 7166TIP3    H143133   5.808   4.425   1.177 -2.8849 -0.0679 -0.2437
 7166TIP3    H243134   5.817   4.572   1.211  0.4341 -0.1202 -0.6226
 7167TIP3   OH243135   2.963   3.721   8.228 -0.3968  0.2397 -0.2857
 7167TIP3    H143136   2.933   3.690   8.313 -0.1229  0.3980 -0.1293
 7167TIP3    H243137   2.893   3.698   8.167 -0.6365  0.2146 -0.0004
 7168TIP3   OH243138   4.992   1.673   7.093  0.1997  0.0854 -0.2769
 7168TIP3    H143139   4.986   1.579   7.106 -0.7571  0.2768  0.9117
 7168TIP3    H243140   4.959   1.688   7.004 -0.8255 -0.5966 -0.0264
 7169TIP3   OH243141   4.115   2.101   7.781 -0.1587  1.0283 -0.0642
 7169TIP3    H143142   4.172   2.055   7.843  0.3500  0.0334 -1.2271
 7169TIP3    H243143   4.097   2.185   7.823 -0.3083  0.1711  1.6908
 7170TIP3   OH243144   3.050   0.896   8.812  0.0959 -0.7624 -0.0391
 7170TIP3    H143145   3.095   0.961   8.758  0.6443 -1.6940 -0.7333
 7170TIP3    H243146   3.044   0.818   8.756 -4.3495 -0.0747 -0.8779
 7171TIP3   OH243147   5.535   2.474   8.412 -0.5180 -0.1248  0.5372
 7171TIP3    H143148   5.456   2.428   8.439 -0.4885 -0.3449  0.2516
 7171TIP3    H243149   5.530   2.559   8.456 -3.0175  1.6285 -2.6850
 7172TIP3   OH243150   1.012   3.090   2.642  0.1503 -0.7852  0.3350
 7172TIP3    H143151   0.982   3.042   2.565 -0.3377  0.0179  0.0156
 7172TIP3    H243152   1.096   3.050   2.664  0.2454 -1.0907 -0.5505
 7173TIP3   OH243153   4.494   0.149   0.203  0.3688  0.0679  0.0364
 7173TIP3    H143154   4.511   0.242   0.183  0.7277  0.4137  1.8076
 7173TIP3    H243155   4.412   0.130   0.158  0.4170  1.1772 -0.5691
 7174TIP3   OH243156   4.926   4.298   7.948  0.3923 -0.1059  0.0767
 7174TIP3    H143157   4.857   4.276   8.011  0.5875 -1.3047 -0.1079
 7174TIP3    H243158   4.988   4.225   7.954  1.4991  0.8061  0.0195
 7175TIP3   OH243159   0.626   0.406   1.427 -0.1030 -0.0062 -0.2044
 7175TIP3    H143160   0.585   0.350   1.361 -2.9707  1.3497  0.2393
 7175TIP3    H243161   0.557   0.468   1.451  1.1247  0.1818  3.3694
 7176TIP3   OH243162   2.586   6.127   1.307 -0.1103 -0.3823 -0.8739
 7176TIP3    H143163   2.499   6.105   1.340 -0.8433  1.0368 -1.7423
 7176TIP3    H243164   2.609   6.209   1.351  1.2184 -1.1920  0.0333
 7177TIP3   OH243165   6.149   0.621   0.608  0.0945 -0.5362  0.0566
 7177TIP3    H143166   6.225   0.665   0.571 -0.1057 -0.4967 -0.3020
 7177TIP3    H243167   6.184   0.537   0.639  0.2512 -0.5926 -0.2662
 7178TIP3   OH243168   2.030   2.811   0.116 -0.1064  0.4638 -0.7789
 7178TIP3    H143169   2.075   2.784   0.036 -2.7007  0.8208 -2.5084
 7178TIP3    H243170   2.089   2.788   0.187  1.8124 -0.9778 -2.7342
 7179TIP3   OH243171   0.814   0.331   1.855 -0.3910 -0.1195  0.1608
 7179TIP3    H143172   0.746   0.353   1.918  0.6786 -2.2821  2.2516
 7179TIP3    H243173   0.808   0.236   1.846  1.2512 -0.1600 -0.9160
 7180TIP3   OH243174   3.562   0.615   1.215  0.0632  0.4153 -0.2563
 7180TIP3    H143175   3.643   0.653   1.180  0.7484  0.6652  1.5305
 7180TIP3    H243176   3.560   0.642   1.306 -0.2560 -2.4384  0.6958
 7181TIP3   OH243177   1.699   2.820   0.613  0.6799 -0.0687  0.2928
 7181TIP3    H143178   1.620   2.821   0.559  1.1164 -0.2424 -0.3701
 7181TIP3    H243179   1.677   2.765   0.688 -0.3628  1.2192  0.9635
 7182TIP3   OH243180   5.030   6.287   0.005  0.1357 -0.3768  0.6055
 7182TIP3    H143181   4.962   6.353  -0.006 -0.0426 -0.8852 -2.0408
 7182TIP3    H243182   4.982   6.206   0.021  0.2421 -0.3174  1.2436
 7183LIG      O43183   4.757   5.810   5.953  0.2110  0.4260  0.2276
 7183LIG     C143184   4.619   5.784   5.973 -0.4192  0.1765 -1.0210
 7183LIG     C243185   4.548   5.901   6.029  0.9629 -0.4779  0.1527
 7183LIG     C343186   4.567   5.762   5.835 -0.6798  1.2413  0.4592
 7183LIG     H143187   4.609   5.695   6.039  0.1632 -0.2020 -1.4388
 7183LIG     H243188   4.590   5.935   6.126 -2.0002  0.8431  1.0718
 7183LIG     H343189   4.443   5.872   6.050  0.5373 -0.0677 -1.3273
 7183LIG     H443190   4.560   5.988   5.961  0.1772 -1.5145 -1.3639
 7183LIG     H543191   4.643   5.699   5.784 -0.0741  1.8315  0.6095
 7183LIG     H643192   4.555   5.859   5.782 -1.0367  0.5374 -0.7785
 7183LIG     H743193   4.465   5.719   5.838 -0.1983  0.0995  1.6931
 7183LIG     H843194   4.794   5.815   6.042  1.7100 -0.0651 -0.3289
   6.77822   6.77822   8.98774
