Title
43194
    1CHL1    C3    1   6.701   2.719   5.722  0.0278 -0.8262  0.3406
    1CHL1    H3    2   6.733   2.823   5.697  0.8153 -1.3060 -0.7424
    1CHL1    O3    3   6.739   2.686   5.852  0.4567 -0.1550 -0.0054
    1CHL1   H3'    4   6.712   2.758   5.909 -1.6030 -0.1357 -0.9021
    1CHL1    C4    5   6.554   2.711   5.689  0.1199  0.4738 -0.1610
    1CHL1   H4A    6   6.527   2.609   5.725  3.1082 -0.2408  0.2975
    1CHL1   H4B    7   6.497   2.774   5.761  1.1268 -0.2163  1.2816
    1CHL1    C5    8   6.533   2.730   5.537 -0.4008 -0.4110  0.1142
    1CHL1    C6    9   6.445   2.822   5.501  0.4142 -0.4901  0.2015
    1CHL1    H6   10   6.388   2.874   5.580  2.3281  2.7360 -0.3325
    1CHL1    C7   11   6.412   2.853   5.361  0.0199 -0.1414 -0.2377
    1CHL1   H7A   12   6.304   2.849   5.338 -0.4846  0.5750  1.8536
    1CHL1   H7B   13   6.422   2.962   5.342 -4.0749  0.0799 -2.2058
    1CHL1    C8   14   6.488   2.764   5.255  0.0152 -0.8686 -0.5111
    1CHL1    H8   15   6.431   2.668   5.256 -2.8684  0.7127 -0.4401
    1CHL1   C14   16   6.470   2.835   5.120 -0.0313  0.0301 -0.6600
    1CHL1   H14   17   6.525   2.929   5.143  1.7236 -0.9666 -0.5483
    1CHL1   C15   18   6.330   2.870   5.060  0.0944 -0.2535 -0.5498
    1CHL1  H15A   19   6.255   2.798   5.097 -0.6932  0.9364  0.2504
    1CHL1  H15B   20   6.295   2.969   5.097  0.1097 -0.2675 -0.4983
    1CHL1   C16   21   6.355   2.877   4.906  0.7265 -0.1319 -0.4058
    1CHL1  H16A   22   6.290   2.806   4.851 -1.1020 -0.9361  2.5759
    1CHL1  H16B   23   6.351   2.978   4.860  0.5386  0.1921  0.3019
    1CHL1   C17   24   6.504   2.826   4.878  0.1706 -0.2576  0.3149
    1CHL1   H17   25   6.566   2.917   4.894 -1.1658  0.7513 -0.1435
    1CHL1   C13   26   6.539   2.752   5.013 -0.1561  0.0517  0.0323
    1CHL1   C18   27   6.482   2.604   5.005 -0.0096 -0.1752  0.3013
    1CHL1  H18A   28   6.532   2.542   4.928 -0.9690  0.2515 -0.6905
    1CHL1  H18B   29   6.503   2.542   5.094  1.3856  0.8328  0.7048
    1CHL1  H18C   30   6.371   2.609   5.002 -0.2205 -0.5252  3.8264
    1CHL1   C12   31   6.689   2.748   5.045  0.1762 -0.2036  0.7783
    1CHL1  H12A   32   6.724   2.674   4.970 -1.9946 -0.2766 -0.2276
    1CHL1  H12B   33   6.733   2.848   5.023 -0.4976 -0.2402 -0.8644
    1CHL1   C11   34   6.718   2.688   5.185 -0.0352  0.2953  0.8925
    1CHL1  H11A   35   6.701   2.579   5.175 -1.3659  0.4077  1.7040
    1CHL1  H11B   36   6.827   2.701   5.197 -0.2490  2.2178  1.0292
    1CHL1    C9   37   6.627   2.738   5.297  0.3347 -0.0306  0.0271
    1CHL1    H9   38   6.668   2.840   5.307  1.2830 -0.2908 -1.0047
    1CHL1   C10   39   6.630   2.663   5.437  0.3415  0.7663  0.0173
    1CHL1   C19   40   6.586   2.514   5.424  0.2009  0.5320 -0.2631
    1CHL1  H19A   41   6.484   2.504   5.382  0.5624 -0.7883 -0.8682
    1CHL1  H19B   42   6.656   2.454   5.361  2.9075  3.0430  0.1106
    1CHL1  H19C   43   6.580   2.467   5.525 -2.0281  2.3838  0.5629
    1CHL1    C1   44   6.774   2.673   5.487 -0.1298  0.4347 -0.0078
    1CHL1   H1A   45   6.843   2.606   5.431 -0.2605  1.9185 -2.0620
    1CHL1   H1B   46   6.806   2.777   5.469 -0.9426  1.0649  1.9417
    1CHL1    C2   47   6.789   2.636   5.634  0.4812  0.2402 -0.3681
    1CHL1   H2A   48   6.896   2.650   5.659  1.1445  3.2968 -3.9526
    1CHL1   H2B   49   6.751   2.535   5.659  0.4487 -0.3689 -2.7005
    1CHL1   C20   50   6.541   2.753   4.747  0.1604 -0.1637  0.5198
    1CHL1   H20   51   6.619   2.678   4.770 -0.2678 -0.5630  0.6816
    1CHL1   C21   52   6.595   2.870   4.652  0.1252 -0.4733  0.6824
    1CHL1  H21A   53   6.630   2.839   4.551  0.9279 -0.6144  0.9934
    1CHL1  H21B   54   6.689   2.907   4.699  1.9670 -1.3609 -2.0314
    1CHL1  H21C   55   6.518   2.947   4.630  0.6478 -0.2677 -0.5077
    1CHL1   C22   56   6.425   2.685   4.672  0.8028 -0.8874  0.5528
    1CHL1  H22A   57   6.383   2.604   4.735 -1.5533 -0.6206 -0.5705
    1CHL1  H22B   58   6.347   2.762   4.652  0.2826 -1.7113 -0.6961
    1CHL1   C23   59   6.462   2.619   4.536  0.1172  0.9822 -0.0211
    1CHL1  H23A   60   6.514   2.691   4.469  0.9373  0.8717  0.4746
    1CHL1  H23B   61   6.548   2.552   4.557  1.0490  1.0325 -3.0686
    1CHL1   C24   62   6.355   2.538   4.467  0.5854 -0.3032 -0.2863
    1CHL1  H24A   63   6.325   2.448   4.526  0.0342  0.0293 -0.0530
    1CHL1  H24B   64   6.267   2.605   4.461  0.5377 -0.4126 -0.8507
    1CHL1   C25   65   6.389   2.488   4.324  0.2560 -0.6391 -0.2091
    1CHL1   H25   66   6.405   2.571   4.252  3.1127  1.2480  2.3308
    1CHL1   C26   67   6.510   2.401   4.319 -0.1685 -0.3740 -0.1879
    1CHL1  H26A   68   6.601   2.438   4.370 -1.0185  1.2838  0.1794
    1CHL1  H26B   69   6.478   2.302   4.358 -1.7973  0.7249  1.3966
    1CHL1  H26C   70   6.551   2.397   4.216 -0.5726 -0.3086 -0.3534
    1CHL1   C27   71   6.264   2.412   4.258  0.4100  0.1919 -0.1252
    1CHL1  H27A   72   6.171   2.473   4.259 -0.0065 -0.4008 -1.2487
    1CHL1  H27B   73   6.293   2.384   4.155  2.0512 -0.1464  0.3949
    1CHL1  H27C   74   6.246   2.321   4.319 -2.3242  0.5279 -0.3034
    2CHL1    C3   75   1.573   2.205   5.814 -0.2029  0.2917  0.3935
    2CHL1    H3   76   1.669   2.152   5.796 -0.5858 -0.3119  0.0993
    2CHL1    O3   77   1.534   2.197   5.954 -0.5078 -0.4829 -0.1652
    2CHL1   H3'   78   1.501   2.283   5.980  0.0004 -0.2670 -0.2231
    2CHL1    C4   79   1.598   2.359   5.770  0.7133  0.1052  0.5642
    2CHL1   H4A   80   1.511   2.421   5.798 -0.3790  0.2097 -2.6339
    2CHL1   H4B   81   1.683   2.400   5.828  0.6462 -1.4466  1.8522
    2CHL1    C5   82   1.609   2.365   5.616  0.3969 -0.8833  0.4163
    2CHL1    C6   83   1.709   2.427   5.561 -0.0321  0.3354  0.6874
    2CHL1    H6   84   1.776   2.486   5.625  0.2339 -0.3834  1.0734
    2CHL1    C7   85   1.733   2.453   5.421 -0.2607  0.2506  0.6246
    2CHL1   H7A   86   1.779   2.553   5.407 -1.8338  0.9578  0.3122
    2CHL1   H7B   87   1.814   2.386   5.383  0.0103  1.5081 -1.1753
    2CHL1    C8   88   1.604   2.427   5.341  0.0248  0.0315 -0.0395
    2CHL1    H8   89   1.534   2.511   5.359  0.9010  0.9623 -0.8393
    2CHL1   C14   90   1.646   2.431   5.193 -0.0525 -0.1944  1.0648
    2CHL1   H14   91   1.692   2.331   5.179 -0.4142 -0.2152 -0.1750
    2CHL1   C15   92   1.727   2.550   5.132 -0.1374  0.4363 -0.2581
    2CHL1  H15A   93   1.700   2.649   5.173  1.0099  1.0461 -0.9389
    2CHL1  H15B   94   1.836   2.542   5.148 -0.2842  0.9956  1.1102
    2CHL1   C16   95   1.685   2.541   4.984  0.1353  0.1116  0.0579
    2CHL1  H16A   96   1.628   2.636   4.974 -0.1685 -0.0368  0.3533
    2CHL1  H16B   97   1.775   2.541   4.920  1.3450  1.5912  1.6780
    2CHL1   C17   98   1.588   2.420   4.963 -0.7394  0.4348 -0.4037
    2CHL1   H17   99   1.637   2.320   4.964 -3.9472 -1.3095  1.7906
    2CHL1   C13  100   1.520   2.412   5.101 -0.4809  0.7426  0.0328
    2CHL1   C18  101   1.420   2.528   5.113 -0.1734 -0.5553 -0.1517
    2CHL1  H18A  102   1.468   2.627   5.129  0.6619 -0.9987  0.1744
    2CHL1  H18B  103   1.345   2.532   5.031  1.8935 -0.7052 -2.1639
    2CHL1  H18C  104   1.371   2.522   5.212 -1.6884  2.6104 -0.6013
    2CHL1   C12  105   1.451   2.272   5.133  0.0319  0.6395 -0.0832
    2CHL1  H12A  106   1.365   2.236   5.073 -0.3949  0.6310  0.5295
    2CHL1  H12B  107   1.528   2.193   5.118 -0.2293 -0.4648  3.4598
    2CHL1   C11  108   1.417   2.271   5.282  0.0790  0.0922  0.7348
    2CHL1  H11A  109   1.335   2.345   5.294 -0.1372  0.2165 -1.2899
    2CHL1  H11B  110   1.364   2.177   5.311 -0.9273 -0.5740 -2.8216
    2CHL1    C9  111   1.538   2.297   5.377  1.0688  0.5240  0.4543
    2CHL1    H9  112   1.615   2.220   5.357 -0.8540 -1.6806  1.2066
    2CHL1   C10  113   1.504   2.294   5.529  0.1885 -0.4789  0.4224
    2CHL1   C19  114   1.370   2.364   5.546  0.2392 -0.2677 -0.0683
    2CHL1  H19A  115   1.281   2.306   5.514  0.4763  0.5027 -2.3253
    2CHL1  H19B  116   1.351   2.378   5.655  0.2637 -1.5470  0.1104
    2CHL1  H19C  117   1.362   2.465   5.500  4.7696  0.9141  1.2758
    2CHL1    C1  118   1.499   2.148   5.581 -0.0673 -0.2739 -0.6202
    2CHL1   H1A  119   1.430   2.082   5.524  0.2874 -0.5149 -0.7769
    2CHL1   H1B  120   1.598   2.107   5.552  0.0759  0.9679 -1.9564
    2CHL1    C2  121   1.467   2.132   5.731 -0.5853 -0.9733  0.6551
    2CHL1   H2A  122   1.468   2.022   5.749 -0.5390 -1.0431  0.2425
    2CHL1   H2B  123   1.365   2.161   5.765  0.3698 -0.6152  3.3906
    2CHL1   C20  124   1.507   2.437   4.830  0.0653  0.1338  0.5713
    2CHL1   H20  125   1.444   2.526   4.851  0.6456  0.8385 -0.5557
    2CHL1   C21  126   1.416   2.315   4.804  0.0795  0.2850 -0.0791
    2CHL1  H21A  127   1.341   2.317   4.885  0.5017  0.2380  0.3156
    2CHL1  H21B  128   1.485   2.230   4.820  0.7144  0.6619 -0.7017
    2CHL1  H21C  129   1.367   2.311   4.704  0.6488 -0.5233 -0.3392
    2CHL1   C22  130   1.601   2.462   4.704  0.2280 -0.4933  0.0913
    2CHL1  H22A  131   1.532   2.495   4.624 -0.4592  0.7973  1.1728
    2CHL1  H22B  132   1.671   2.544   4.732  0.8226 -0.4905 -1.3149
    2CHL1   C23  133   1.676   2.337   4.654 -0.4424  0.7118  0.7448
    2CHL1  H23A  134   1.743   2.297   4.733  1.4474  0.9258 -0.6835
    2CHL1  H23B  135   1.610   2.251   4.630  0.4197 -0.3646  2.0491
    2CHL1   C24  136   1.768   2.365   4.532  0.4157  0.0898  0.4613
    2CHL1  H24A  137   1.851   2.429   4.569  2.7060 -1.1474 -2.1391
    2CHL1  H24B  138   1.822   2.270   4.513 -0.5078 -1.0290  2.9916
    2CHL1   C25  139   1.698   2.423   4.401  0.5482  0.5168 -0.6087
    2CHL1   H25  140   1.645   2.517   4.426 -1.0407 -0.3177 -0.7632
    2CHL1   C26  141   1.799   2.453   4.289  0.0391  0.0478  0.0772
    2CHL1  H26A  142   1.751   2.481   4.193  1.7180  1.7237 -0.3266
    2CHL1  H26B  143   1.865   2.538   4.316  0.3493 -0.4161  0.8082
    2CHL1  H26C  144   1.863   2.365   4.270  0.3235  0.1112  0.7102
    2CHL1   C27  145   1.590   2.322   4.357  0.6914  0.2335  0.3270
    2CHL1  H27A  146   1.632   2.232   4.307  0.8411  0.3699  0.2074
    2CHL1  H27B  147   1.516   2.292   4.434 -1.8827 -1.7191 -2.6583
    2CHL1  H27C  148   1.523   2.371   4.284 -0.3233  0.7747  1.5779
    3CHL1    C3  149   1.868   3.279   6.185  0.1260  0.5240 -0.2780
    3CHL1    H3  150   1.870   3.189   6.120  1.5339  1.1036 -1.0823
    3CHL1    O3  151   1.849   3.244   6.320 -0.0502  0.1341  0.5833
    3CHL1   H3'  152   1.754   3.253   6.332 -0.0729  3.2825 -0.7709
    3CHL1    C4  153   2.003   3.346   6.166 -0.1870 -0.5008 -0.3560
    3CHL1   H4A  154   2.004   3.441   6.225  0.1004  0.2924 -1.6060
    3CHL1   H4B  155   2.094   3.289   6.193  0.7319 -0.3266 -2.8321
    3CHL1    C5  156   2.017   3.393   6.022 -0.1122 -0.5229 -0.4212
    3CHL1    C6  157   2.113   3.349   5.948  0.2474  0.3693  0.1200
    3CHL1    H6  158   2.194   3.285   5.986 -1.1404 -1.7595 -0.3283
    3CHL1    C7  159   2.132   3.388   5.804  0.0506  0.2857 -0.4241
    3CHL1   H7A  160   2.241   3.401   5.789  0.4088  0.5464  2.0093
    3CHL1   H7B  161   2.081   3.312   5.740 -0.3147 -1.3017  1.6222
    3CHL1    C8  162   2.056   3.516   5.777 -0.4933 -0.2041 -0.9070
    3CHL1    H8  163   2.103   3.603   5.827  0.5012 -0.7513 -0.8619
    3CHL1   C14  164   2.056   3.548   5.623 -0.5599  0.1472 -0.5934
    3CHL1   H14  165   2.030   3.447   5.585  1.6603 -1.3024  1.4210
    3CHL1   C15  166   2.196   3.570   5.564 -0.1360 -0.5531 -0.4235
    3CHL1  H15A  167   2.257   3.644   5.619  0.3640 -1.4615  0.2812
    3CHL1  H15B  168   2.244   3.470   5.556 -0.8008 -0.9156 -0.0287
    3CHL1   C16  169   2.164   3.637   5.426 -0.0676 -0.1328  0.5594
    3CHL1  H16A  170   2.222   3.732   5.423  1.7033 -1.1337  1.2815
    3CHL1  H16B  171   2.202   3.586   5.336 -0.5510  0.2516  0.1306
    3CHL1   C17  172   2.006   3.657   5.420 -0.1238 -0.3321 -0.0793
    3CHL1   H17  173   1.956   3.570   5.373 -1.0467 -0.4785  1.1252
    3CHL1   C13  174   1.966   3.655   5.567 -0.8623 -0.4664  0.3958
    3CHL1   C18  175   2.002   3.788   5.637 -0.5492 -0.1235  0.7278
    3CHL1  H18A  176   2.090   3.833   5.586 -1.2770  0.6882  0.1578
    3CHL1  H18B  177   1.924   3.866   5.623 -0.6271 -0.2345  0.5263
    3CHL1  H18C  178   2.025   3.770   5.744 -0.8964 -1.3481  0.6183
    3CHL1   C12  179   1.829   3.604   5.607  0.5843  0.0342 -0.4811
    3CHL1  H12A  180   1.753   3.673   5.564  1.7627  0.8154 -1.4085
    3CHL1  H12B  181   1.811   3.508   5.554  3.1396 -0.5091 -0.4931
    3CHL1   C11  182   1.812   3.594   5.760  0.8253  0.2705  0.0813
    3CHL1  H11A  183   1.803   3.699   5.794 -2.4426 -0.0493  0.5169
    3CHL1  H11B  184   1.706   3.563   5.775  0.3739  1.8218  0.2074
    3CHL1    C9  185   1.910   3.492   5.819  0.5625  0.0377 -0.0177
    3CHL1    H9  186   1.876   3.395   5.776  0.4487 -0.4704  1.1933
    3CHL1   C10  187   1.894   3.474   5.969 -0.9206 -0.3018  0.4140
    3CHL1   C19  188   1.893   3.618   6.031  0.1274 -0.1495 -0.1197
    3CHL1  H19A  189   1.894   3.618   6.142  1.1190  1.4524 -0.0858
    3CHL1  H19B  190   1.973   3.678   5.982  0.4532 -0.6834 -0.2527
    3CHL1  H19C  191   1.798   3.665   5.999  0.4365  0.6831  0.1534
    3CHL1    C1  192   1.757   3.413   5.999  0.2897 -0.0878 -0.4987
    3CHL1   H1A  193   1.668   3.473   5.971  0.4699 -0.2829 -1.5560
    3CHL1   H1B  194   1.743   3.324   5.935 -0.3762  0.2090 -0.7693
    3CHL1    C2  195   1.750   3.371   6.148 -0.5870  0.0793 -0.0755
    3CHL1   H2A  196   1.647   3.330   6.153 -1.0742  1.4141  2.5898
    3CHL1   H2B  197   1.757   3.469   6.200 -0.3001  1.3567 -2.3592
    3CHL1   C20  198   1.966   3.776   5.327  0.1743  1.0639 -0.0071
    3CHL1   H20  199   1.999   3.870   5.377 -0.6433  2.9555 -2.8097
    3CHL1   C21  200   1.814   3.785   5.319  0.0828 -0.8211 -0.5561
    3CHL1  H21A  201   1.761   3.695   5.283 -1.3701 -0.6473  1.0449
    3CHL1  H21B  202   1.789   3.871   5.253  1.8229 -0.3472 -0.6711
    3CHL1  H21C  203   1.772   3.812   5.418 -0.2682  3.7529 -1.7273
    3CHL1   C22  204   2.033   3.756   5.186  0.5665 -0.6888  0.2392
    3CHL1  H22A  205   2.138   3.789   5.199  0.0080  2.8963 -2.6368
    3CHL1  H22B  206   2.033   3.649   5.157 -1.6884 -1.1207  1.6329
    3CHL1   C23  207   1.986   3.838   5.068  0.2528  0.5735 -0.4125
    3CHL1  H23A  208   1.875   3.830   5.056  0.2634 -0.9924  0.2369
    3CHL1  H23B  209   1.995   3.946   5.088  0.1780  0.6227 -0.6409
    3CHL1   C24  210   2.068   3.812   4.942  0.2865  0.5829 -0.1575
    3CHL1  H24A  211   2.176   3.835   4.955  0.3941  0.7324 -1.2180
    3CHL1  H24B  212   2.067   3.703   4.917  0.9652  0.8317 -1.3746
    3CHL1   C25  213   2.022   3.892   4.820  0.6975  0.3128  0.4144
    3CHL1   H25  214   2.039   4.000   4.839  2.4761  0.0913  0.2425
    3CHL1   C26  215   2.125   3.867   4.697  1.0668 -0.3040  0.1912
    3CHL1  H26A  216   2.124   3.759   4.671 -2.0183 -0.5860  1.0983
    3CHL1  H26B  217   2.086   3.915   4.605 -3.9479 -2.5573  0.7864
    3CHL1  H26C  218   2.224   3.915   4.704  0.2991  1.6242 -1.3936
    3CHL1   C27  219   1.883   3.855   4.780 -0.6648 -0.2406  0.3752
    3CHL1  H27A  220   1.859   3.746   4.774 -0.0348 -0.3340 -0.4768
    3CHL1  H27B  221   1.808   3.900   4.848 -0.7184 -0.2163  0.3003
    3CHL1  H27C  222   1.844   3.900   4.687 -0.6662 -0.2222  0.3847
    4CHL1    C3  223   0.522   1.379   6.070  0.1737 -0.4713  0.3961
    4CHL1    H3  224   0.413   1.377   6.048  0.7360  0.1968 -2.9099
    4CHL1    O3  225   0.549   1.415   6.205 -0.2182  0.0403 -0.2660
    4CHL1   H3'  226   0.645   1.413   6.206 -0.0913  1.1460 -2.9505
    4CHL1    C4  227   0.590   1.239   6.042 -0.2026 -0.0376  0.4709
    4CHL1   H4A  228   0.696   1.251   6.074  0.2585 -0.4018 -0.8835
    4CHL1   H4B  229   0.546   1.157   6.102 -0.6093 -0.3829 -0.2985
    4CHL1    C5  230   0.584   1.200   5.900  0.2633 -0.6457  1.0337
    4CHL1    C6  231   0.541   1.082   5.858 -0.0234  0.8053 -0.1813
    4CHL1    H6  232   0.504   1.006   5.928 -0.5409  0.5757 -0.6916
    4CHL1    C7  233   0.554   1.026   5.716  0.2825  0.8564  0.4304
    4CHL1   H7A  234   0.614   0.933   5.716  2.2789  2.0831  0.8496
    4CHL1   H7B  235   0.450   1.005   5.685 -0.5330  1.1985  2.7624
    4CHL1    C8  236   0.621   1.130   5.617 -0.2665  0.5762 -0.1111
    4CHL1    H8  237   0.732   1.125   5.618 -0.1246  0.9744 -3.1862
    4CHL1   C14  238   0.583   1.102   5.472  0.4922  0.1711  0.6085
    4CHL1   H14  239   0.474   1.122   5.472  0.5718  1.0706 -2.1376
    4CHL1   C15  240   0.606   0.959   5.418  0.0874  0.2990  0.2200
    4CHL1  H15A  241   0.709   0.923   5.436 -1.1761 -2.9442  1.7813
    4CHL1  H15B  242   0.541   0.881   5.462 -0.1508  1.6265  2.3862
    4CHL1   C16  243   0.595   0.976   5.264 -0.5141  0.0135  0.2485
    4CHL1  H16A  244   0.687   0.938   5.215 -0.4748  0.1710  0.1990
    4CHL1  H16B  245   0.510   0.915   5.226 -0.6944 -0.3214  1.1437
    4CHL1   C17  246   0.580   1.126   5.239  0.8302 -0.7883  0.3329
    4CHL1   H17  247   0.471   1.146   5.248  0.7871 -0.3398 -0.9746
    4CHL1   C13  248   0.636   1.201   5.368  0.0484  0.3184 -0.3126
    4CHL1   C18  249   0.791   1.195   5.358 -0.0409  0.2364 -0.3412
    4CHL1  H18A  250   0.835   1.260   5.279 -1.0174  0.3945 -0.7813
    4CHL1  H18B  251   0.831   1.239   5.452  1.4838 -0.1449 -0.7949
    4CHL1  H18C  252   0.825   1.089   5.365 -0.3600  0.1646  0.1778
    4CHL1   C12  253   0.591   1.345   5.402  0.1237  0.3102  0.1399
    4CHL1  H12A  254   0.635   1.427   5.341  1.8655 -0.5571  0.1683
    4CHL1  H12B  255   0.481   1.354   5.390  0.3192 -1.0038 -3.9937
    4CHL1   C11  256   0.630   1.385   5.547  0.4450 -0.2981  0.0206
    4CHL1  H11A  257   0.734   1.426   5.553  0.6841 -0.4101 -2.2870
    4CHL1  H11B  258   0.568   1.473   5.573 -0.5868 -0.9822 -0.0980
    4CHL1    C9  259   0.592   1.274   5.657  0.5812 -0.9393  0.2581
    4CHL1    H9  260   0.481   1.278   5.646  0.3012 -0.9775  2.6389
    4CHL1   C10  261   0.623   1.311   5.802 -1.1526 -0.0483 -0.2510
    4CHL1   C19  262   0.781   1.323   5.799  0.1478  0.5926  0.1062
    4CHL1  H19A  263   0.822   1.240   5.736 -1.3208  0.6365 -0.9474
    4CHL1  H19B  264   0.816   1.417   5.751 -0.0514  0.1393 -0.9457
    4CHL1  H19C  265   0.824   1.320   5.902 -0.2568  1.9018  0.3318
    4CHL1    C1  266   0.563   1.447   5.833 -0.0072 -0.0195 -0.1422
    4CHL1   H1A  267   0.601   1.528   5.766 -2.0194  0.7377 -0.4317
    4CHL1   H1B  268   0.454   1.438   5.813 -0.0368  0.5512 -0.2746
    4CHL1    C2  269   0.573   1.489   5.976  0.0696 -0.5113  0.3593
    4CHL1   H2A  270   0.542   1.593   6.000  2.0592  0.6965 -1.8580
    4CHL1   H2B  271   0.682   1.489   6.000  0.3717 -2.7289 -0.7892
    4CHL1   C20  272   0.621   1.177   5.103 -0.3630  0.2324  0.3930
    4CHL1   H20  273   0.730   1.157   5.088 -0.0517 -0.0027  2.7038
    4CHL1   C21  274   0.596   1.320   5.073  0.0833 -0.6811  0.0111
    4CHL1  H21A  275   0.648   1.381   5.150 -0.9043 -2.6169  2.3331
    4CHL1  H21B  276   0.487   1.338   5.083  0.5174  0.9736  2.6574
    4CHL1  H21C  277   0.635   1.352   4.974 -0.4226  2.5858  0.7286
    4CHL1   C22  278   0.558   1.083   4.994  0.2581  0.1728  0.2161
    4CHL1  H22A  279   0.582   0.977   5.014 -2.0170 -1.2107 -3.4176
    4CHL1  H22B  280   0.449   1.106   4.983  0.5775  1.9786  0.4044
    4CHL1   C23  281   0.611   1.107   4.852  0.1788 -0.0249 -0.3288
    4CHL1  H23A  282   0.586   1.214   4.831  0.3829  0.0849 -0.0192
    4CHL1  H23B  283   0.721   1.099   4.860  0.0529 -1.3945  0.3118
    4CHL1   C24  284   0.566   1.010   4.748  0.1564  0.1366 -0.4200
    4CHL1  H24A  285   0.584   0.911   4.795 -3.4686  0.5326  2.2592
    4CHL1  H24B  286   0.455   1.016   4.739 -0.0935 -3.3041 -0.8054
    4CHL1   C25  287   0.628   1.031   4.612 -0.9542 -0.6854  0.0419
    4CHL1   H25  288   0.739   1.027   4.615 -0.9283 -1.4204 -0.9864
    4CHL1   C26  289   0.600   0.912   4.520  0.3762 -0.0001 -0.5606
    4CHL1  H26A  290   0.491   0.908   4.500  0.2667 -0.7747  0.1205
    4CHL1  H26B  291   0.653   0.922   4.423  1.1532 -2.6174 -0.4742
    4CHL1  H26C  292   0.627   0.816   4.568  0.2300 -0.2581 -0.9859
    4CHL1   C27  293   0.593   1.157   4.547  0.2648 -0.0469 -0.0955
    4CHL1  H27A  294   0.658   1.247   4.559  1.2712 -0.7410 -0.1911
    4CHL1  H27B  295   0.585   1.138   4.438  0.8089 -1.6266  0.1109
    4CHL1  H27C  296   0.491   1.185   4.581 -0.1694 -1.4559 -0.1770
    5CHL1    C3  297   6.468   5.397   5.563 -0.0976  0.3183 -0.0094
    5CHL1    H3  298   6.359   5.419   5.555 -0.4309 -1.5968 -1.4803
    5CHL1    O3  299   6.506   5.394   5.696  0.1264 -0.9930  0.1608
    5CHL1   H3'  300   6.601   5.379   5.699  0.8149  2.4330 -0.4775
    5CHL1    C4  301   6.494   5.263   5.496  0.0743  0.0292  0.7281
    5CHL1   H4A  302   6.596   5.227   5.525 -0.0155 -0.8638  0.0054
    5CHL1   H4B  303   6.426   5.189   5.545 -0.4578  0.8422  1.2448
    5CHL1    C5  304   6.470   5.260   5.341  0.1352 -0.5610  0.6077
    5CHL1    C6  305   6.399   5.167   5.275  0.0209  0.3090  0.9716
    5CHL1    H6  306   6.342   5.092   5.331 -1.9958  1.9884  1.2734
    5CHL1    C7  307   6.384   5.165   5.115  0.1421  1.1110 -0.1913
    5CHL1   H7A  308   6.392   5.066   5.065 -2.1022 -0.9340  3.0779
    5CHL1   H7B  309   6.282   5.183   5.074  0.6464 -1.1123 -2.6912
    5CHL1    C8  310   6.472   5.270   5.036  0.0428  0.0185 -0.3169
    5CHL1    H8  311   6.573   5.228   5.018  0.4945  1.1565 -0.5772
    5CHL1   C14  312   6.431   5.302   4.898 -0.1204 -0.4818 -0.1832
    5CHL1   H14  313   6.332   5.353   4.890 -0.3785 -1.2825 -4.2853
    5CHL1   C15  314   6.401   5.188   4.800  0.2113 -0.9249 -0.1435
    5CHL1  H15A  315   6.482   5.113   4.798  1.3641  0.2948 -1.3840
    5CHL1  H15B  316   6.306   5.139   4.830 -1.0135  2.6872  2.7351
    5CHL1   C16  317   6.412   5.257   4.656  0.2246 -0.2519  0.8220
    5CHL1  H16A  318   6.469   5.197   4.582 -3.2159 -1.3876 -1.1355
    5CHL1  H16B  319   6.307   5.258   4.619  0.5046 -0.8931 -0.0101
    5CHL1   C17  320   6.473   5.402   4.680  0.1345  0.0440  0.5022
    5CHL1   H17  321   6.384   5.468   4.678 -0.6421 -0.9361  1.1497
    5CHL1   C13  322   6.528   5.398   4.823  0.0693  0.2875 -0.3341
    5CHL1   C18  323   6.672   5.337   4.816  0.8769 -0.4764  0.2482
    5CHL1  H18A  324   6.659   5.232   4.784  0.0662 -0.6859  1.2349
    5CHL1  H18B  325   6.738   5.389   4.743  1.4143  0.1753  1.1697
    5CHL1  H18C  326   6.719   5.340   4.917 -0.6364 -0.9998  0.9983
    5CHL1   C12  327   6.521   5.532   4.897  0.5704 -0.0827 -0.6554
    5CHL1  H12A  328   6.595   5.602   4.851  0.4906  0.7581  0.4680
    5CHL1  H12B  329   6.417   5.571   4.889  0.6170  0.4396  1.0174
    5CHL1   C11  330   6.555   5.518   5.048 -0.4066 -0.4338  0.0342
    5CHL1  H11A  331   6.665   5.502   5.052  0.2321  2.2193 -3.1474
    5CHL1  H11B  332   6.542   5.618   5.094  1.3739 -0.4694  0.6881
    5CHL1    C9  333   6.495   5.399   5.123 -0.4575  0.5031 -0.2716
    5CHL1    H9  334   6.391   5.431   5.145 -1.1829 -0.0632 -2.5245
    5CHL1   C10  335   6.546   5.370   5.267  0.1536  0.0498 -0.0170
    5CHL1   C19  336   6.694   5.332   5.268 -0.2393 -0.0784 -0.3504
    5CHL1  H19A  337   6.752   5.427   5.263 -0.0710 -0.1481  0.3057
    5CHL1  H19B  338   6.727   5.280   5.359 -0.6087  0.3571  0.0373
    5CHL1  H19C  339   6.715   5.273   5.176 -0.2151  0.2985 -0.5893
    5CHL1    C1  340   6.525   5.507   5.346  0.0026  0.2295 -1.2175
    5CHL1   H1A  341   6.591   5.580   5.294  0.0815  0.6851 -0.4969
    5CHL1   H1B  342   6.418   5.534   5.340 -0.3872 -0.5916  1.0415
    5CHL1    C2  343   6.557   5.498   5.500  0.3524  0.6361  0.2369
    5CHL1   H2A  344   6.542   5.600   5.541 -2.3272  0.0672  0.8756
    5CHL1   H2B  345   6.661   5.469   5.524 -0.6548 -2.7372  1.0632
    5CHL1   C20  346   6.555   5.447   4.558 -0.1514 -0.7799 -0.5179
    5CHL1   H20  347   6.645   5.383   4.548  0.9048  0.0194  2.7773
    5CHL1   C21  348   6.590   5.599   4.565  0.1641  1.0123 -0.0093
    5CHL1  H21A  349   6.661   5.608   4.651 -1.3510  2.0763  1.1759
    5CHL1  H21B  350   6.500   5.661   4.584  0.2094  1.0662  0.0284
    5CHL1  H21C  351   6.641   5.624   4.470  0.3671 -3.4494 -1.3073
    5CHL1   C22  352   6.477   5.429   4.424 -0.3445  0.4683 -0.6330
    5CHL1  H22A  353   6.402   5.348   4.429 -2.0866  2.0698  2.2076
    5CHL1  H22B  354   6.419   5.522   4.403 -1.4590  0.2778  1.3840
    5CHL1   C23  355   6.586   5.412   4.314  0.5561  0.2872  0.3456
    5CHL1  H23A  356   6.656   5.497   4.325  0.1715  0.9536 -1.8662
    5CHL1  H23B  357   6.623   5.310   4.336  1.7240  0.4405 -0.8116
    5CHL1   C24  358   6.515   5.433   4.177  0.2409 -0.3406  0.0739
    5CHL1  H24A  359   6.438   5.355   4.164 -1.1654  0.8740  0.7772
    5CHL1  H24B  360   6.469   5.534   4.188  0.9043 -0.0310  0.0672
    5CHL1   C25  361   6.618   5.445   4.064 -0.4414 -0.1515  0.1916
    5CHL1   H25  362   6.684   5.533   4.083  0.4465 -0.2169 -2.1575
    5CHL1   C26  363   6.703   5.323   4.026  0.0604  0.8188  0.7681
    5CHL1  H26A  364   6.636   5.252   3.973 -1.3157  1.9142  0.9599
    5CHL1  H26B  365   6.778   5.354   3.951 -0.2851 -1.5024 -0.6379
    5CHL1  H26C  366   6.749   5.268   4.112 -0.5683  0.2374  0.7412
    5CHL1   C27  367   6.549   5.491   3.933  0.1716  0.0440  0.1233
    5CHL1  H27A  368   6.481   5.414   3.892 -0.0955  1.9461 -3.4768
    5CHL1  H27B  369   6.493   5.586   3.949 -2.2341 -1.0304 -1.3423
    5CHL1  H27C  370   6.630   5.516   3.861 -0.9947  2.7491 -0.3857
    6CHL1    C3  371   6.767   1.657   5.685 -0.4534 -0.5621 -0.2357
    6CHL1    H3  372   6.825   1.568   5.655  0.9463  0.2484 -0.0322
    6CHL1    O3  373   6.780   1.663   5.831  0.0342  0.5451  0.1793
    6CHL1   H3'  374   6.697   1.627   5.863 -0.6114  1.7363 -0.1096
    6CHL1    C4  375   6.836   1.781   5.623 -0.0297  0.3836 -0.0228
    6CHL1   H4A  376   6.782   1.873   5.655  2.4790  1.3405  1.8946
    6CHL1   H4B  377   6.937   1.786   5.670  0.9573 -2.5662 -1.6102
    6CHL1    C5  378   6.837   1.773   5.471  1.0057 -0.4876 -0.9893
    6CHL1    C6  379   6.951   1.789   5.401  0.6582 -0.1099  0.6984
    6CHL1    H6  380   7.046   1.815   5.449 -0.4504  0.1919  2.8675
    6CHL1    C7  381   6.950   1.779   5.251  0.2808  0.0481 -0.4457
    6CHL1   H7A  382   7.023   1.847   5.202  0.3300 -0.5149 -1.1711
    6CHL1   H7B  383   6.983   1.675   5.226 -1.0902 -0.5406  0.0972
    6CHL1    C8  384   6.814   1.785   5.189  0.2276  0.2170  0.3203
    6CHL1    H8  385   6.779   1.890   5.181  0.6257  0.3480  0.3102
    6CHL1   C14  386   6.820   1.742   5.040  0.3675  0.5372 -0.3097
    6CHL1   H14  387   6.849   1.635   5.051 -1.6046  0.1139  1.5985
    6CHL1   C15  388   6.921   1.799   4.946 -0.4379 -0.1768 -0.0985
    6CHL1  H15A  389   6.949   1.902   4.976  1.4089 -0.3551 -1.0254
    6CHL1  H15B  390   7.010   1.732   4.948  0.5077  0.9495 -1.8813
    6CHL1   C16  391   6.863   1.800   4.807  0.0768  0.3157 -0.3852
    6CHL1  H16A  392   6.832   1.903   4.780 -1.1370  0.8665  2.6882
    6CHL1  H16B  393   6.924   1.742   4.734 -1.2513 -1.4596 -0.1380
    6CHL1   C17  394   6.736   1.707   4.829  0.6834 -0.4727  0.5698
    6CHL1   H17  395   6.780   1.606   4.840  0.8400 -0.3598  1.0071
    6CHL1   C13  396   6.683   1.742   4.974 -0.6076  0.2329  0.0171
    6CHL1   C18  397   6.601   1.877   4.977 -0.2945 -0.0178  0.1592
    6CHL1  H18A  398   6.601   1.925   5.077 -0.4421  3.4767 -1.3762
    6CHL1  H18B  399   6.642   1.943   4.897 -2.3836  1.1725 -0.0030
    6CHL1  H18C  400   6.494   1.854   4.959 -0.1413 -0.2249 -0.5541
    6CHL1   C12  401   6.592   1.636   5.042  0.2945  0.7573  0.4882
    6CHL1  H12A  402   6.497   1.621   4.986  0.0979  1.6004  0.5809
    6CHL1  H12B  403   6.646   1.541   5.026  0.3433  1.1162 -1.9658
    6CHL1   C11  404   6.579   1.666   5.193  0.0576  0.3522  0.1347
    6CHL1  H11A  405   6.512   1.753   5.208 -2.1883 -1.6194  2.5566
    6CHL1  H11B  406   6.530   1.579   5.243  0.2862 -0.8328 -1.6052
    6CHL1    C9  407   6.714   1.692   5.263  0.4951 -0.4649 -0.7083
    6CHL1    H9  408   6.754   1.588   5.257 -2.1083 -1.7811  2.0754
    6CHL1   C10  409   6.699   1.738   5.415 -0.0024  0.3851  0.4285
    6CHL1   C19  410   6.623   1.865   5.422 -0.4983 -0.0274 -0.7533
    6CHL1  H19A  411   6.611   1.903   5.526  2.5450  0.1717 -0.3808
    6CHL1  H19B  412   6.661   1.948   5.360 -1.8407  0.5047 -0.8849
    6CHL1  H19C  413   6.515   1.858   5.398 -0.8917  0.4828  0.7678
    6CHL1    C1  414   6.629   1.622   5.490  0.3488 -0.1608 -0.1926
    6CHL1   H1A  415   6.520   1.625   5.469  0.2191 -1.4724  0.1881
    6CHL1   H1B  416   6.655   1.518   5.462 -1.5597 -1.1177  1.3355
    6CHL1    C2  417   6.626   1.639   5.645  0.4833 -0.0236 -0.5573
    6CHL1   H2A  418   6.589   1.546   5.692 -0.3897 -0.3492 -1.8223
    6CHL1   H2B  419   6.562   1.719   5.689 -0.4503 -0.9121 -0.2659
    6CHL1   C20  420   6.647   1.712   4.697 -0.0066 -0.1668 -0.5245
    6CHL1   H20  421   6.625   1.820   4.684  0.8591 -0.2180 -2.9465
    6CHL1   C21  422   6.519   1.633   4.715 -0.2291 -0.1175  0.1998
    6CHL1  H21A  423   6.452   1.619   4.627  0.2870 -2.8807  0.1724
    6CHL1  H21B  424   6.460   1.697   4.784 -3.2972 -1.4179 -1.0206
    6CHL1  H21C  425   6.556   1.543   4.767  2.2027  0.9063  0.3564
    6CHL1   C22  426   6.714   1.653   4.573  0.5037  0.0418 -0.7741
    6CHL1  H22A  427   6.823   1.672   4.579  0.6836 -1.2871  1.0334
    6CHL1  H22B  428   6.708   1.544   4.593 -0.4735 -0.3559 -2.9566
    6CHL1   C23  429   6.653   1.689   4.434 -0.2179  0.1496 -0.0357
    6CHL1  H23A  430   6.543   1.683   4.440 -0.2174 -0.0248 -0.2119
    6CHL1  H23B  431   6.674   1.796   4.413  2.7480  0.3080  2.7983
    6CHL1   C24  432   6.701   1.587   4.333  0.9091 -0.6890 -0.1664
    6CHL1  H24A  433   6.810   1.609   4.330  0.4800  2.3243  1.7076
    6CHL1  H24B  434   6.684   1.483   4.368 -0.8620 -0.1091  0.8517
    6CHL1   C25  435   6.648   1.611   4.188  0.5352 -0.8037  0.0569
    6CHL1   H25  436   6.693   1.533   4.123 -0.4175 -0.1452 -1.4348
    6CHL1   C26  437   6.496   1.594   4.177  0.1548 -0.2034  0.6347
    6CHL1  H26A  438   6.446   1.678   4.230  1.4753  0.8289  0.2861
    6CHL1  H26B  439   6.480   1.600   4.068 -0.9707  1.2510  0.8485
    6CHL1  H26C  440   6.464   1.495   4.216 -1.3617 -1.0065 -2.4071
    6CHL1   C27  441   6.686   1.746   4.137 -1.1731 -0.1697  0.8296
    6CHL1  H27A  442   6.682   1.754   4.026  1.3855 -1.1770  0.5932
    6CHL1  H27B  443   6.614   1.826   4.166 -0.8802  0.9453 -1.3305
    6CHL1  H27C  444   6.789   1.773   4.170 -1.2452  0.8602  0.2536
    7CHL1    C3  445   2.567   1.896   5.726 -0.3065  0.4464  0.6390
    7CHL1    H3  446   2.667   1.943   5.740  0.4511 -1.0576  0.5230
    7CHL1    O3  447   2.532   1.848   5.851 -0.1647  0.5332  0.6112
    7CHL1   H3'  448   2.466   1.781   5.833  0.5081  0.4294 -1.7139
    7CHL1    C4  449   2.462   1.988   5.669  0.2666 -0.2617 -0.6016
    7CHL1   H4A  450   2.357   1.952   5.681 -0.6906  1.7548 -2.1660
    7CHL1   H4B  451   2.458   2.076   5.737  0.6738 -1.0963  0.5106
    7CHL1    C5  452   2.495   2.030   5.527 -0.2007  0.3305 -0.2290
    7CHL1    C6  453   2.519   2.155   5.489  0.1166  0.2001  0.4046
    7CHL1    H6  454   2.501   2.231   5.566 -0.7042 -1.3903  1.8599
    7CHL1    C7  455   2.539   2.198   5.347 -0.1300  0.0544 -0.2816
    7CHL1   H7A  456   2.469   2.284   5.335 -1.0627 -0.7842 -0.9316
    7CHL1   H7B  457   2.643   2.238   5.338 -0.1616  0.0323 -0.7645
    7CHL1    C8  458   2.501   2.090   5.243 -0.2062 -0.4502 -0.5141
    7CHL1    H8  459   2.391   2.079   5.247 -0.1319 -0.8613  1.6043
    7CHL1   C14  460   2.558   2.126   5.112  0.1398 -0.3277  0.5993
    7CHL1   H14  461   2.668   2.138   5.125  0.2430 -0.4226 -0.1540
    7CHL1   C15  462   2.514   2.250   5.034  0.3522 -0.1005  0.2912
    7CHL1  H15A  463   2.406   2.268   5.055 -0.3036 -3.2252  0.1625
    7CHL1  H15B  464   2.584   2.334   5.055  1.9167 -0.7358 -1.9774
    7CHL1   C16  465   2.539   2.230   4.883 -0.4888  0.6329  0.0304
    7CHL1  H16A  466   2.442   2.235   4.830 -0.6012 -0.1878  0.1546
    7CHL1  H16B  467   2.607   2.306   4.838 -0.2673  1.0276  0.9941
    7CHL1   C17  468   2.603   2.087   4.876  0.1579  0.0962 -0.0678
    7CHL1   H17  469   2.713   2.099   4.884  0.1355  0.2846 -0.0212
    7CHL1   C13  470   2.543   2.015   5.001  0.5816  0.5437 -1.1650
    7CHL1   C18  471   2.396   1.982   4.967  0.3024 -0.5264  0.4646
    7CHL1  H18A  472   2.339   1.962   5.061  0.7877  1.4823  1.2481
    7CHL1  H18B  473   2.342   2.071   4.929 -2.2001 -1.4180  1.6690
    7CHL1  H18C  474   2.389   1.901   4.892  1.1260  0.8074 -1.1241
    7CHL1   C12  475   2.616   1.884   5.041 -0.7870 -0.4360 -0.2076
    7CHL1  H12A  476   2.610   1.803   4.965  0.6308 -0.7588 -0.0052
    7CHL1  H12B  477   2.723   1.914   5.048 -0.7775 -0.8472  2.2872
    7CHL1   C11  478   2.566   1.837   5.178  0.1731 -0.0520  0.1178
    7CHL1  H11A  479   2.467   1.788   5.166  1.5814 -3.2029  0.5497
    7CHL1  H11B  480   2.624   1.753   5.220  0.7153  1.6662  3.0930
    7CHL1    C9  481   2.560   1.953   5.288  0.1194  0.3832  0.9119
    7CHL1    H9  482   2.670   1.965   5.304  0.8017 -0.3327 -2.5464
    7CHL1   C10  483   2.505   1.908   5.433 -0.6018 -0.0850 -0.3239
    7CHL1   C19  484   2.367   1.835   5.415 -0.1496  0.5716 -0.0635
    7CHL1  H19A  485   2.296   1.917   5.390 -0.2382  0.9922  1.4597
    7CHL1  H19B  486   2.376   1.761   5.333  2.3073  2.1836 -1.3908
    7CHL1  H19C  487   2.335   1.786   5.509  0.7395  0.8814  0.4139
    7CHL1    C1  488   2.614   1.805   5.492  0.6518  0.6336  0.1906
    7CHL1   H1A  489   2.617   1.716   5.426 -0.9072  0.3326  0.4785
    7CHL1   H1B  490   2.715   1.851   5.481  0.2259  0.9728 -3.8439
    7CHL1    C2  491   2.582   1.766   5.637  0.4984 -0.0892 -0.6034
    7CHL1   H2A  492   2.663   1.705   5.683  2.9242 -0.0926 -4.4290
    7CHL1   H2B  493   2.488   1.708   5.628 -0.3169  1.2112 -0.8345
    7CHL1   C20  494   2.595   2.013   4.741 -0.0088  0.2839 -0.5166
    7CHL1   H20  495   2.595   1.903   4.755  2.7812  0.3941  1.2601
    7CHL1   C21  496   2.725   2.036   4.667  0.0873  0.0980  0.1980
    7CHL1  H21A  497   2.728   1.971   4.576  1.4195  1.0827 -0.5031
    7CHL1  H21B  498   2.811   2.017   4.735 -2.0657 -3.0691  2.3017
    7CHL1  H21C  499   2.710   2.139   4.628 -3.3256  0.6267  2.5531
    7CHL1   C22  500   2.481   2.045   4.639 -0.4329 -0.2390  0.3112
    7CHL1  H22A  501   2.386   2.049   4.697  0.1898  2.6950  1.2846
    7CHL1  H22B  502   2.489   2.147   4.597 -2.0873  0.4542  1.5475
    7CHL1   C23  503   2.462   1.947   4.524  0.4559  0.3002  0.1738
    7CHL1  H23A  504   2.522   1.991   4.441 -0.1834 -0.7991 -0.9017
    7CHL1  H23B  505   2.489   1.847   4.565  0.4904  1.9188  4.5728
    7CHL1   C24  506   2.315   1.927   4.484 -0.1190  0.1527 -0.3504
    7CHL1  H24A  507   2.266   1.898   4.579  2.2558 -0.5899  0.7113
    7CHL1  H24B  508   2.265   2.021   4.451  1.1040 -0.1979 -3.5868
    7CHL1   C25  509   2.279   1.814   4.383  0.2095 -0.0184 -0.1601
    7CHL1   H25  510   2.321   1.725   4.434  1.3167  2.3874  3.5221
    7CHL1   C26  511   2.127   1.793   4.379 -0.2226  0.2201 -0.2032
    7CHL1  H26A  512   2.109   1.722   4.295 -0.5280  0.8035 -0.6321
    7CHL1  H26B  513   2.095   1.744   4.474 -0.6806  1.9561  0.5798
    7CHL1  H26C  514   2.070   1.888   4.373 -0.4416  0.0558 -0.9005
    7CHL1   C27  515   2.335   1.834   4.246  0.0930 -0.4052  0.1552
    7CHL1  H27A  516   2.443   1.858   4.235 -0.3018  1.5170  0.0931
    7CHL1  H27B  517   2.327   1.735   4.197  0.7809 -0.5025  0.2263
    7CHL1  H27C  518   2.276   1.900   4.179  0.5931 -0.7361 -0.6325
    8CHL1    C3  519   6.247   1.331   5.833  0.3356 -0.1403  0.0500
    8CHL1    H3  520   6.220   1.228   5.803  0.7495 -0.1947 -0.1400
    8CHL1    O3  521   6.343   1.339   5.937 -0.6881 -0.0855  0.1235
    8CHL1   H3'  522   6.301   1.362   6.020 -0.2090 -0.2214  0.4125
    8CHL1    C4  523   6.319   1.389   5.704 -0.2743 -0.1331  0.4146
    8CHL1   H4A  524   6.357   1.493   5.719 -1.4216  0.1761  1.3313
    8CHL1   H4B  525   6.407   1.324   5.689  0.1065  0.9348 -2.8286
    8CHL1    C5  526   6.233   1.389   5.578  0.3519 -0.3563  0.3771
    8CHL1    C6  527   6.260   1.315   5.473 -0.5163  0.0785  0.0450
    8CHL1    H6  528   6.353   1.257   5.466 -1.6850 -1.6892 -3.9191
    8CHL1    C7  529   6.178   1.304   5.350 -0.3114  0.5500 -0.5660
    8CHL1   H7A  530   6.243   1.303   5.260  1.0926 -0.5975  0.4023
    8CHL1   H7B  531   6.127   1.209   5.374  0.5011  0.5716  1.4707
    8CHL1    C8  532   6.072   1.412   5.344  0.1323  0.0725 -0.1965
    8CHL1    H8  533   6.130   1.502   5.317  0.1421  0.0803 -0.1490
    8CHL1   C14  534   5.967   1.362   5.250  0.2744 -0.0982  0.2470
    8CHL1   H14  535   5.916   1.272   5.292 -1.3494 -0.0289 -1.4710
    8CHL1   C15  536   6.016   1.325   5.109 -0.5386  0.7014  0.2927
    8CHL1  H15A  537   6.103   1.385   5.073  1.0751 -0.1859  2.5249
    8CHL1  H15B  538   6.040   1.218   5.095 -1.8904  0.7408 -3.5809
    8CHL1   C16  539   5.890   1.345   5.027  0.6118  0.2382 -0.1791
    8CHL1  H16A  540   5.915   1.412   4.942 -0.9013  1.9363  0.6748
    8CHL1  H16B  541   5.858   1.243   4.996  2.0029 -0.1955 -0.2659
    8CHL1   C17  542   5.786   1.410   5.116 -0.4270 -0.2052  0.9757
    8CHL1   H17  543   5.729   1.323   5.155 -0.4852 -0.1252  1.0704
    8CHL1   C13  544   5.859   1.473   5.232 -0.1121 -0.4176 -0.0441
    8CHL1   C18  545   5.920   1.611   5.180  0.4172  0.7864  0.2302
    8CHL1  H18A  546   5.841   1.686   5.160 -1.9791 -2.1102 -2.1339
    8CHL1  H18B  547   5.987   1.651   5.259 -0.5523 -1.0037  2.0246
    8CHL1  H18C  548   5.968   1.592   5.081 -0.3568 -1.9364  0.3058
    8CHL1   C12  549   5.784   1.494   5.360 -0.5382  0.2927 -0.0446
    8CHL1  H12A  550   5.711   1.578   5.354 -1.4678 -0.5861 -2.4635
    8CHL1  H12B  551   5.721   1.407   5.391 -0.1091  0.5850  1.7727
    8CHL1   C11  552   5.880   1.531   5.471 -0.4179  0.1770  0.2670
    8CHL1  H11A  553   5.914   1.631   5.437 -1.7340  1.0854  1.4719
    8CHL1  H11B  554   5.824   1.558   5.564 -0.6628  2.9315 -0.6033
    8CHL1    C9  555   6.002   1.430   5.484 -0.5174 -0.2820  0.3221
    8CHL1    H9  556   5.951   1.335   5.508 -2.8388  0.8993  0.3623
    8CHL1   C10  557   6.097   1.467   5.595 -0.4331  0.0526 -0.2785
    8CHL1   C19  558   6.119   1.616   5.584 -0.7823 -0.1488  0.5785
    8CHL1  H19A  559   6.203   1.652   5.646 -0.8472  0.4309  0.3394
    8CHL1  H19B  560   6.152   1.651   5.484  0.4749  2.0816  1.7059
    8CHL1  H19C  561   6.029   1.672   5.617 -0.0598  1.4364 -0.0341
    8CHL1    C1  562   6.036   1.433   5.735 -0.4010  0.7852 -0.3109
    8CHL1   H1A  563   5.975   1.525   5.749 -0.4578  1.0708 -2.1745
    8CHL1   H1B  564   5.974   1.341   5.729 -0.1992  0.7560 -2.7821
    8CHL1    C2  565   6.132   1.422   5.858  0.4993  0.0648 -0.0569
    8CHL1   H2A  566   6.079   1.396   5.952  0.6127 -0.6287 -0.1826
    8CHL1   H2B  567   6.166   1.527   5.873 -1.0678  0.5233  0.4653
    8CHL1   C20  568   5.670   1.490   5.048  0.2402 -0.6214 -0.1610
    8CHL1   H20  569   5.694   1.598   5.042  1.1628 -0.7754  0.4694
    8CHL1   C21  570   5.544   1.472   5.130  0.4198 -0.0535  0.6228
    8CHL1  H21A  571   5.459   1.449   5.062  1.2105 -0.7170 -0.1652
    8CHL1  H21B  572   5.528   1.560   5.196  1.7643  0.4349  0.3194
    8CHL1  H21C  573   5.542   1.383   5.197  1.3033 -0.4878  0.0863
    8CHL1   C22  574   5.641   1.454   4.898  0.2488  0.0719  0.2461
    8CHL1  H22A  575   5.735   1.444   4.839  0.3692 -2.1529  0.7035
    8CHL1  H22B  576   5.592   1.354   4.902 -0.1798  0.3045  1.0360
    8CHL1   C23  577   5.555   1.552   4.829  0.0532  0.2142  0.1325
    8CHL1  H23A  578   5.456   1.554   4.881  0.1149  0.1007  0.2561
    8CHL1  H23B  579   5.601   1.652   4.846 -0.5210  0.3264  1.1066
    8CHL1   C24  580   5.551   1.529   4.681  0.1566 -0.5647 -0.7522
    8CHL1  H24A  581   5.652   1.537   4.636  0.7227  1.2754  0.7126
    8CHL1  H24B  582   5.504   1.430   4.664 -0.7138 -0.6618  1.7440
    8CHL1   C25  583   5.471   1.630   4.596 -0.3076 -0.8760 -0.7314
    8CHL1   H25  584   5.383   1.657   4.658 -1.1917  2.3219 -3.0604
    8CHL1   C26  585   5.549   1.757   4.551  0.5516  0.8125 -0.4175
    8CHL1  H26A  586   5.592   1.806   4.641 -0.9015 -1.5266  1.6994
    8CHL1  H26B  587   5.642   1.724   4.500  1.0950  0.0149  1.0133
    8CHL1  H26C  588   5.475   1.822   4.500  0.3177  1.2998  0.5093
    8CHL1   C27  589   5.416   1.563   4.470  0.4021  1.2749 -0.0884
    8CHL1  H27A  590   5.502   1.522   4.413 -0.1097  1.3512 -0.9221
    8CHL1  H27B  591   5.347   1.481   4.498 -0.6588  1.1790 -2.7410
    8CHL1  H27C  592   5.358   1.632   4.405 -0.4324 -1.3600 -2.3279
    9CHL1    C3  593   3.248   1.758   5.856  0.0062  0.0497 -0.4804
    9CHL1    H3  594   3.359   1.757   5.846  0.2173 -0.2413  1.4183
    9CHL1    O3  595   3.214   1.747   5.995  0.3037  0.2626 -0.7929
    9CHL1   H3'  596   3.119   1.747   6.004  0.4290  0.9062  0.8564
    9CHL1    C4  597   3.189   1.884   5.802 -0.1684 -0.7869  0.5775
    9CHL1   H4A  598   3.084   1.894   5.836  0.0134 -1.1852  1.2786
    9CHL1   H4B  599   3.248   1.962   5.854  0.2809  1.7365 -3.3385
    9CHL1    C5  600   3.194   1.891   5.647 -0.2482 -0.4393 -0.1550
    9CHL1    C6  601   3.253   1.996   5.581 -0.3301 -0.4525  0.1566
    9CHL1    H6  602   3.289   2.088   5.629  1.3294 -0.1067 -1.6189
    9CHL1    C7  603   3.256   2.013   5.434 -0.4411 -0.4774  0.5184
    9CHL1   H7A  604   3.227   2.117   5.408 -0.0684  0.5226  3.6897
    9CHL1   H7B  605   3.356   1.990   5.393 -0.0006  2.1378 -0.0114
    9CHL1    C8  606   3.159   1.917   5.353  0.2802 -0.9644  0.6902
    9CHL1    H8  607   3.058   1.962   5.371  0.0847 -1.6085  1.2589
    9CHL1   C14  608   3.212   1.910   5.214 -0.4747  0.4608 -0.6471
    9CHL1   H14  609   3.307   1.853   5.225 -0.9608 -0.3425 -0.5455
    9CHL1   C15  610   3.237   2.036   5.138  0.2537  0.2026  0.4209
    9CHL1  H15A  611   3.149   2.101   5.156  1.2771  1.5613  0.6709
    9CHL1  H15B  612   3.333   2.077   5.174  0.1902 -0.1763  1.0329
    9CHL1   C16  613   3.238   1.990   4.991  0.1256 -0.0837 -0.3378
    9CHL1  H16A  614   3.169   2.055   4.933 -1.0845  1.0486  2.1916
    9CHL1  H16B  615   3.339   2.012   4.950  0.5116 -0.5065  0.3474
    9CHL1   C17  616   3.191   1.841   4.975  0.0811  1.0130 -0.1038
    9CHL1   H17  617   3.280   1.775   4.969 -1.6676 -1.4836  0.2641
    9CHL1   C13  618   3.130   1.818   5.119  0.6259  0.0421 -0.1976
    9CHL1   C18  619   2.983   1.868   5.119 -0.1880  0.0020 -0.2669
    9CHL1  H18A  620   2.913   1.826   5.043 -1.1170  2.7060 -1.0186
    9CHL1  H18B  621   2.929   1.850   5.215  0.0199 -0.6107 -0.2597
    9CHL1  H18C  622   2.977   1.976   5.093  0.8772 -0.0567 -0.8144
    9CHL1   C12  623   3.140   1.669   5.178  0.3049 -0.1254  0.5069
    9CHL1  H12A  624   3.070   1.604   5.120  0.2224  1.0360 -0.7323
    9CHL1  H12B  625   3.243   1.629   5.170 -0.7109 -2.4472 -3.4993
    9CHL1   C11  626   3.106   1.663   5.328  0.5725  0.0339 -0.6626
    9CHL1  H11A  627   2.995   1.670   5.341  0.5476  0.6309 -1.1396
    9CHL1  H11B  628   3.141   1.564   5.362  1.6969  1.1880  1.7466
    9CHL1    C9  629   3.171   1.777   5.413 -0.2311  0.6229  0.0822
    9CHL1    H9  630   3.279   1.760   5.398 -0.3504  0.0023 -0.0801
    9CHL1   C10  631   3.135   1.765   5.568  0.4668 -0.2009  0.4769
    9CHL1   C19  632   2.977   1.769   5.593 -0.1282  0.0469 -0.2390
    9CHL1  H19A  633   2.927   1.688   5.535  2.3753 -1.2407 -0.7325
    9CHL1  H19B  634   2.951   1.772   5.700 -0.6601  0.4433 -0.3762
    9CHL1  H19C  635   2.944   1.865   5.548  1.3849 -0.2738 -2.2014
    9CHL1    C1  636   3.203   1.635   5.627  0.5585  0.5587 -0.2038
    9CHL1   H1A  637   3.151   1.542   5.595  1.5518 -0.2331  0.4258
    9CHL1   H1B  638   3.309   1.628   5.594  0.1774  2.2157 -2.0035
    9CHL1    C2  639   3.196   1.634   5.784  0.6733 -0.0725  0.4151
    9CHL1   H2A  640   3.256   1.548   5.821  1.0575  0.0820  0.1595
    9CHL1   H2B  641   3.089   1.619   5.809  0.2811  0.1253 -1.0656
    9CHL1   C20  642   3.105   1.819   4.853 -0.3432  0.4185  0.0782
    9CHL1   H20  643   3.014   1.883   4.861 -0.4068  0.2398  0.7947
    9CHL1   C21  644   3.061   1.670   4.828 -0.0932  0.3875 -0.3242
    9CHL1  H21A  645   2.989   1.642   4.908 -0.5839  1.9385 -0.1860
    9CHL1  H21B  646   3.146   1.599   4.832 -1.5449 -1.4431 -0.7968
    9CHL1  H21C  647   3.009   1.658   4.731  0.3290 -1.3600 -0.3671
    9CHL1   C22  648   3.184   1.867   4.735 -0.0089  0.1486  0.2630
    9CHL1  H22A  649   3.234   1.964   4.758 -0.8982  0.5348  0.6302
    9CHL1  H22B  650   3.274   1.806   4.715 -0.7004 -0.2476 -1.8414
    9CHL1   C23  651   3.097   1.894   4.612  0.4217  0.2542  0.1612
    9CHL1  H23A  652   3.037   1.801   4.596  0.8037 -0.2747  1.6377
    9CHL1  H23B  653   3.026   1.974   4.642 -1.6301 -0.9481 -1.2353
    9CHL1   C24  654   3.183   1.934   4.486  0.9872  0.1790 -0.6747
    9CHL1  H24A  655   3.115   1.962   4.402 -1.9132 -2.0779  0.7333
    9CHL1  H24B  656   3.247   2.023   4.507  1.2085 -0.3229  0.9661
    9CHL1   C25  657   3.277   1.825   4.434  0.3294  0.0491 -0.0206
    9CHL1   H25  658   3.330   1.788   4.525 -0.6952  0.6413  0.8373
    9CHL1   C26  659   3.201   1.709   4.373 -0.1369  0.1154 -0.9006
    9CHL1  H26A  660   3.136   1.740   4.288  0.4804  0.6353 -1.1862
    9CHL1  H26B  661   3.270   1.630   4.336 -1.5537 -1.1849 -0.8588
    9CHL1  H26C  662   3.136   1.661   4.449 -0.1572  2.4495  0.6366
    9CHL1   C27  663   3.370   1.888   4.334  0.4462 -0.2407  0.2116
    9CHL1  H27A  664   3.419   1.804   4.279  0.2392 -0.1583 -0.1036
    9CHL1  H27B  665   3.298   1.941   4.268 -1.1591 -0.3137  1.8414
    9CHL1  H27C  666   3.431   1.966   4.385  2.4187 -0.8604 -1.0639
   10CHL1    C3  667   1.330   4.325   5.947 -0.2949 -0.1700 -0.5247
   10CHL1    H3  668   1.413   4.258   5.916  1.8233  0.2627  3.5923
   10CHL1    O3  669   1.320   4.322   6.089 -0.2655  0.3691 -0.3660
   10CHL1   H3'  670   1.259   4.250   6.104 -0.5234  0.7262  0.3610
   10CHL1    C4  671   1.354   4.471   5.893  0.3954 -0.0697 -0.0631
   10CHL1   H4A  672   1.302   4.547   5.955  0.4386 -0.8029  0.8939
   10CHL1   H4B  673   1.460   4.502   5.906  0.3906  1.1979 -2.5070
   10CHL1    C5  674   1.327   4.480   5.743  0.2978 -0.4862  1.0880
   10CHL1    C6  675   1.423   4.524   5.658  0.2416 -0.8670 -0.3143
   10CHL1    H6  676   1.518   4.567   5.690 -0.9989  3.1085 -1.3640
   10CHL1    C7  677   1.393   4.533   5.509 -0.0671  1.0497  0.0723
   10CHL1   H7A  678   1.451   4.614   5.460  1.6085 -1.0975 -1.7284
   10CHL1   H7B  679   1.442   4.441   5.470 -1.8234  0.5064 -0.9386
   10CHL1    C8  680   1.242   4.534   5.474  0.0688 -0.3567 -0.3325
   10CHL1    H8  681   1.203   4.634   5.502  1.2803 -0.2218  0.9622
   10CHL1   C14  682   1.221   4.521   5.328  0.1420  0.2366  0.4925
   10CHL1   H14  683   1.286   4.436   5.297  1.3562  1.0606  0.6897
   10CHL1   C15  684   1.276   4.635   5.230 -0.8178  0.6572 -0.1789
   10CHL1  H15A  685   1.236   4.723   5.286 -0.8780  0.7771 -0.4098
   10CHL1  H15B  686   1.386   4.650   5.217 -0.7298  0.0729 -0.1097
   10CHL1   C16  687   1.211   4.612   5.096  0.0745  0.7837 -0.6044
   10CHL1  H16A  688   1.159   4.705   5.061 -1.7609  0.0675  0.0973
   10CHL1  H16B  689   1.286   4.575   5.023 -1.7254 -1.6255 -1.3585
   10CHL1   C17  690   1.110   4.500   5.118  0.0792  0.7342  0.1991
   10CHL1   H17  691   1.157   4.400   5.101 -3.1132 -0.6774 -1.0727
   10CHL1   C13  692   1.082   4.493   5.275 -0.5623  0.7822 -0.8991
   10CHL1   C18  693   0.988   4.603   5.328  0.7567 -0.2628  0.5583
   10CHL1  H18A  694   1.017   4.703   5.290  0.8071  0.0390  1.3554
   10CHL1  H18B  695   0.888   4.581   5.285  0.7218  0.7193  0.1297
   10CHL1  H18C  696   0.992   4.615   5.439  0.8539  2.2658  0.3320
   10CHL1   C12  697   1.041   4.358   5.338  0.6738 -0.3140 -0.5669
   10CHL1  H12A  698   0.931   4.342   5.335  0.8039 -1.3626 -0.3476
   10CHL1  H12B  699   1.107   4.279   5.296  1.6279 -0.1677  0.6140
   10CHL1   C11  700   1.047   4.368   5.490 -0.3658  0.2825 -0.4132
   10CHL1  H11A  701   0.957   4.415   5.535 -0.0827 -1.7158  2.5919
   10CHL1  H11B  702   1.040   4.263   5.527  3.0845  0.7961  2.2760
   10CHL1    C9  703   1.185   4.411   5.539  0.3574  0.0781  0.8170
   10CHL1    H9  704   1.252   4.331   5.502 -0.9591  0.9011 -4.1778
   10CHL1   C10  705   1.195   4.421   5.694  0.7840 -0.2970 -0.6310
   10CHL1   C19  706   1.079   4.521   5.750 -0.0071 -0.8952  0.8496
   10CHL1  H19A  707   1.078   4.616   5.693 -2.7156 -1.8566 -0.8705
   10CHL1  H19B  708   0.980   4.475   5.732 -0.7621  0.5635  1.1688
   10CHL1  H19C  709   1.100   4.543   5.857  0.5052  0.5295  0.4671
   10CHL1    C1  710   1.170   4.279   5.754 -0.3039  0.0794  0.2564
   10CHL1   H1A  711   1.065   4.253   5.729 -0.3163  0.6429 -0.2991
   10CHL1   H1B  712   1.241   4.213   5.699  0.7712  0.7997  0.7501
   10CHL1    C2  713   1.197   4.264   5.906  0.4437 -0.2253  0.7309
   10CHL1   H2A  714   1.192   4.160   5.944 -0.3667  0.5977  3.0132
   10CHL1   H2B  715   1.104   4.304   5.952 -0.3287 -3.3524  2.0991
   10CHL1   C20  716   0.989   4.516   5.025  0.2914 -0.0655  0.0575
   10CHL1   H20  717   0.943   4.611   5.060 -0.2985 -0.5580  0.6588
   10CHL1   C21  718   0.893   4.396   5.044  0.5356  0.3430  0.2961
   10CHL1  H21A  719   0.941   4.297   5.027 -1.8269 -0.8202 -0.0112
   10CHL1  H21B  720   0.819   4.396   4.961  0.7948 -1.4885  0.0264
   10CHL1  H21C  721   0.844   4.405   5.143  0.3552 -3.2114  0.6525
   10CHL1   C22  722   1.017   4.538   4.882 -0.7259  0.3558 -0.3649
   10CHL1  H22A  723   0.926   4.519   4.823 -0.9431  0.5890 -0.1093
   10CHL1  H22B  724   1.052   4.642   4.861  4.5848 -1.3174 -1.2834
   10CHL1   C23  725   1.123   4.439   4.823  0.2259  0.6444 -0.4705
   10CHL1  H23A  726   1.228   4.464   4.849  0.8878 -2.2927  0.0739
   10CHL1  H23B  727   1.100   4.336   4.859 -0.1814  1.4135  1.6122
   10CHL1   C24  728   1.107   4.439   4.672  0.1056  0.5959 -0.4798
   10CHL1  H24A  729   1.003   4.412   4.645  0.5938 -0.4766 -1.3911
   10CHL1  H24B  730   1.124   4.538   4.625 -0.1421  0.4595 -0.8627
   10CHL1   C25  731   1.195   4.345   4.594 -0.2511  0.1095 -0.2651
   10CHL1   H25  732   1.158   4.244   4.619 -0.7046  0.6168  1.2070
   10CHL1   C26  733   1.195   4.358   4.444  0.2066 -0.2350  1.0069
   10CHL1  H26A  734   1.094   4.387   4.410  0.8157  0.4222 -0.3243
   10CHL1  H26B  735   1.272   4.432   4.414 -0.5804 -0.4431 -1.7611
   10CHL1  H26C  736   1.230   4.263   4.397 -0.0857 -0.8115  1.9300
   10CHL1   C27  737   1.346   4.353   4.641 -0.3510  0.2068  0.4993
   10CHL1  H27A  738   1.359   4.330   4.749  1.1631  2.0360  0.7568
   10CHL1  H27B  739   1.407   4.281   4.582  0.0915  1.0136 -0.0542
   10CHL1  H27C  740   1.388   4.455   4.625  1.2357 -0.5177 -0.1759
   11CHL1    C3  741   6.652   0.778   6.107 -0.4476  0.7075 -0.3758
   11CHL1    H3  742   6.675   0.886   6.094 -0.3064  0.6141 -0.9310
   11CHL1    O3  743   6.643   0.755   6.245  0.0536 -0.0627 -0.4356
   11CHL1   H3'  744   6.733   0.733   6.268  0.9090  1.5513 -1.9929
   11CHL1    C4  745   6.512   0.754   6.044  0.0854 -0.4213 -0.3701
   11CHL1   H4A  746   6.480   0.650   6.063  0.3944 -0.1229  2.2274
   11CHL1   H4B  747   6.439   0.823   6.092  0.2271 -0.7177  0.2811
   11CHL1    C5  748   6.520   0.788   5.897 -0.5273  0.0623  0.7291
   11CHL1    C6  749   6.436   0.878   5.845  1.0380  0.0395  0.0095
   11CHL1    H6  750   6.363   0.914   5.918 -0.0508 -1.8183 -0.1095
   11CHL1    C7  751   6.406   0.901   5.698 -0.2076 -0.7948  0.1540
   11CHL1   H7A  752   6.297   0.901   5.678 -0.1071 -2.0617 -0.5048
   11CHL1   H7B  753   6.448   1.004   5.687  0.4211 -0.7901  2.1757
   11CHL1    C8  754   6.483   0.797   5.616  0.1560  0.4739 -0.8020
   11CHL1    H8  755   6.421   0.705   5.622 -0.7522  1.0140 -1.6764
   11CHL1   C14  756   6.508   0.851   5.477  0.0955  0.7902  0.1026
   11CHL1   H14  757   6.575   0.939   5.486 -0.1668  0.9277  0.7771
   11CHL1   C15  758   6.391   0.920   5.417 -0.0875 -0.4099  0.3133
   11CHL1  H15A  759   6.296   0.865   5.437  0.2493 -0.7654  1.0011
   11CHL1  H15B  760   6.379   1.023   5.456 -0.5749 -0.0601 -0.7369
   11CHL1   C16  761   6.419   0.925   5.263  0.2225 -0.4889 -0.2578
   11CHL1  H16A  762   6.345   0.868   5.203 -0.1321  0.2167 -0.5079
   11CHL1  H16B  763   6.435   1.033   5.243  0.0288 -0.7352 -1.9000
   11CHL1   C17  764   6.551   0.845   5.246  0.4023  0.7591  0.0017
   11CHL1   H17  765   6.630   0.922   5.257  0.2311  1.1247 -1.1877
   11CHL1   C13  766   6.561   0.755   5.375  0.3333  0.4410  0.2954
   11CHL1   C18  767   6.462   0.634   5.353 -0.2767  0.4608  0.3247
   11CHL1  H18A  768   6.439   0.583   5.449  0.4125 -2.0134 -0.7649
   11CHL1  H18B  769   6.364   0.675   5.318 -1.8835 -2.5830  0.8969
   11CHL1  H18C  770   6.499   0.559   5.281 -2.7004 -2.2875  1.6980
   11CHL1   C12  771   6.701   0.706   5.421 -0.4327  0.1634  0.6290
   11CHL1  H12A  772   6.756   0.627   5.366 -1.3551 -1.3078  1.7632
   11CHL1  H12B  773   6.762   0.799   5.410  0.0788 -0.4602 -3.5067
   11CHL1   C11  774   6.703   0.665   5.572  0.5164 -0.0060  0.0678
   11CHL1  H11A  775   6.666   0.560   5.571  0.4627 -0.0373  1.8571
   11CHL1  H11B  776   6.803   0.648   5.617  0.1812 -1.3801  0.3503
   11CHL1    C9  777   6.623   0.753   5.669  0.2926 -0.0448 -1.0244
   11CHL1    H9  778   6.682   0.847   5.678  3.1710 -1.7857 -0.3099
   11CHL1   C10  779   6.612   0.703   5.817 -0.1905 -0.4131  0.0529
   11CHL1   C19  780   6.572   0.551   5.825  0.0657 -0.5137  0.2125
   11CHL1  H19A  781   6.474   0.534   5.776 -0.5259 -0.6459  1.3953
   11CHL1  H19B  782   6.644   0.492   5.763  0.9083  1.9581 -1.2774
   11CHL1  H19C  783   6.557   0.525   5.932  1.8357  2.3511  1.2884
   11CHL1    C1  784   6.761   0.719   5.884 -0.3149 -0.1592 -0.1289
   11CHL1   H1A  785   6.819   0.640   5.832 -0.7055 -2.5927  2.8046
   11CHL1   H1B  786   6.812   0.813   5.855 -1.5196  0.5101 -0.1088
   11CHL1    C2  787   6.761   0.692   6.036 -0.6267 -0.2942  0.3386
   11CHL1   H2A  788   6.853   0.696   6.098  0.3193 -0.5599 -1.0153
   11CHL1   H2B  789   6.728   0.587   6.047 -1.3826 -0.1276 -0.2670
   11CHL1   C20  790   6.558   0.772   5.109 -0.2929 -0.8690  0.0559
   11CHL1   H20  791   6.469   0.705   5.109 -1.5168  0.6246  2.3081
   11CHL1   C21  792   6.687   0.683   5.096 -0.6320  0.4291 -0.4402
   11CHL1  H21A  793   6.696   0.593   5.161  3.8666  0.6861 -0.3638
   11CHL1  H21B  794   6.780   0.736   5.126 -0.5691 -0.9486  2.1148
   11CHL1  H21C  795   6.696   0.650   4.990  0.3271  2.7022 -1.1223
   11CHL1   C22  796   6.557   0.869   4.993  0.3360 -0.0658 -0.2711
   11CHL1  H22A  797   6.578   0.818   4.896 -0.8353 -0.6025 -0.2716
   11CHL1  H22B  798   6.450   0.896   4.981  0.6272  1.7230  0.8380
   11CHL1   C23  799   6.641   0.995   5.000  0.6663  0.4982  0.3281
   11CHL1  H23A  800   6.615   1.050   5.093  0.0018  1.8986 -0.6641
   11CHL1  H23B  801   6.746   0.963   5.015  0.9734  2.0044  1.7133
   11CHL1   C24  802   6.633   1.092   4.881  0.1489 -0.4262 -0.3993
   11CHL1  H24A  803   6.704   1.178   4.883  1.6650 -1.6339  0.5564
   11CHL1  H24B  804   6.656   1.036   4.787 -0.6080 -1.2600 -0.0973
   11CHL1   C25  805   6.494   1.157   4.873  0.3357 -0.4236 -0.0500
   11CHL1   H25  806   6.413   1.082   4.887 -0.2717  0.6706  3.1354
   11CHL1   C26  807   6.489   1.274   4.975  0.3874 -0.4326 -0.5789
   11CHL1  H26A  808   6.496   1.225   5.074  1.2482 -2.3071 -1.5122
   11CHL1  H26B  809   6.580   1.336   4.957  0.2338  0.5369  1.6576
   11CHL1  H26C  810   6.401   1.341   4.973 -0.0227 -0.8882  0.8746
   11CHL1   C27  811   6.483   1.216   4.732  0.8295 -0.6517  0.8206
   11CHL1  H27A  812   6.551   1.304   4.726 -1.9893  1.8203  2.4707
   11CHL1  H27B  813   6.499   1.144   4.649 -0.6961 -0.6238  0.4669
   11CHL1  H27C  814   6.383   1.257   4.708  1.1796 -0.4069 -0.3229
   12CHL1    C3  815   6.878   1.327   6.107 -0.5935 -0.6540 -0.0913
   12CHL1    H3  816   6.821   1.410   6.060  1.8681  0.5578 -1.1396
   12CHL1    O3  817   6.855   1.332   6.248 -0.4438  0.3082  0.0458
   12CHL1   H3'  818   6.900   1.253   6.280  0.8506  1.2102  0.5000
   12CHL1    C4  819   6.820   1.201   6.042  0.7863  0.1966  0.4118
   12CHL1   H4A  820   6.881   1.113   6.071  1.6868  0.7702  0.2740
   12CHL1   H4B  821   6.717   1.187   6.082  0.7796  0.2354  0.4069
   12CHL1    C5  822   6.824   1.205   5.889  0.0968 -0.0053 -0.2004
   12CHL1    C6  823   6.712   1.197   5.818  0.2274 -0.3959 -0.5881
   12CHL1    H6  824   6.615   1.188   5.867  0.1636  1.4440 -0.3213
   12CHL1    C7  825   6.703   1.195   5.670  0.6701  0.2142  1.1092
   12CHL1   H7A  826   6.652   1.104   5.631  1.0534  0.8530 -1.0199
   12CHL1   H7B  827   6.644   1.284   5.641 -2.6638 -1.6813  1.6477
   12CHL1    C8  828   6.840   1.199   5.603 -0.7694  0.0524 -0.0426
   12CHL1    H8  829   6.868   1.091   5.600 -1.2488 -0.0628 -0.3135
   12CHL1   C14  830   6.836   1.251   5.460  0.4236 -0.5863  0.3729
   12CHL1   H14  831   6.811   1.359   5.467  1.3639 -0.3624  0.3800
   12CHL1   C15  832   6.728   1.206   5.362 -0.2213 -1.2350 -0.8079
   12CHL1  H15A  833   6.732   1.095   5.364  2.5670 -1.2146 -0.8926
   12CHL1  H15B  834   6.628   1.243   5.392  1.6787  2.5105  1.7682
   12CHL1   C16  835   6.760   1.282   5.234 -0.4577 -0.2165 -0.3196
   12CHL1  H16A  836   6.749   1.211   5.149  2.1260  0.3919 -1.2568
   12CHL1  H16B  837   6.695   1.372   5.230 -0.0108  0.1095 -0.3028
   12CHL1   C17  838   6.910   1.327   5.242 -0.3347  0.2084 -0.8399
   12CHL1   H17  839   6.904   1.434   5.270 -0.0684 -0.4336  1.9166
   12CHL1   C13  840   6.964   1.257   5.379  0.3216 -0.7437 -0.2683
   12CHL1   C18  841   7.006   1.112   5.344  0.4096 -0.4384 -0.0787
   12CHL1  H18A  842   7.038   1.059   5.436 -0.3680  0.3996  0.6788
   12CHL1  H18B  843   6.918   1.063   5.298  0.0783  0.0993 -0.0146
   12CHL1  H18C  844   7.088   1.105   5.268 -0.1027  0.3233 -0.7146
   12CHL1   C12  845   7.072   1.335   5.456  0.0698  0.7130  0.1819
   12CHL1  H12A  846   7.174   1.335   5.412 -0.4723 -0.1956 -1.1483
   12CHL1  H12B  847   7.044   1.441   5.439  3.5236  1.6540 -0.3952
   12CHL1   C11  848   7.084   1.300   5.603 -0.1312 -0.5935 -0.3949
   12CHL1  H11A  849   7.140   1.204   5.607  1.4471  0.3187 -0.1059
   12CHL1  H11B  850   7.137   1.387   5.647  0.2346 -0.5048 -0.9963
   12CHL1    C9  851   6.949   1.278   5.679 -0.0855  0.1527 -0.3806
   12CHL1    H9  852   6.892   1.374   5.682  0.4985  0.4831  1.5796
   12CHL1   C10  853   6.965   1.236   5.823  0.5130  0.3713 -0.5425
   12CHL1   C19  854   7.052   1.101   5.829  0.0577 -0.4442 -0.0764
   12CHL1  H19A  855   7.012   1.038   5.747 -0.4079  0.4654 -0.5607
   12CHL1  H19B  856   7.156   1.131   5.807 -0.1601  0.4810  0.1129
   12CHL1  H19C  857   7.057   1.048   5.927  2.1470  0.6965  0.4704
   12CHL1    C1  858   7.034   1.352   5.905  0.0741  0.2489 -0.0416
   12CHL1   H1A  859   7.139   1.367   5.871 -0.5668  1.7798 -1.4790
   12CHL1   H1B  860   6.966   1.436   5.880 -3.0847 -2.4105 -1.0803
   12CHL1    C2  861   7.022   1.340   6.062 -0.7591 -0.5129  0.8590
   12CHL1   H2A  862   7.071   1.420   6.120 -0.5656 -0.9621  1.3308
   12CHL1   H2B  863   7.075   1.247   6.092 -1.9958 -1.4272  0.3355
   12CHL1   C20  864   6.982   1.296   5.111  0.4112  0.8525 -0.1152
   12CHL1   H20  865   6.980   1.185   5.111 -1.4762  0.8370  2.1444
   12CHL1   C21  866   7.133   1.332   5.121 -0.1598 -0.4901 -0.4074
   12CHL1  H21A  867   7.153   1.441   5.117  0.6524 -0.6339 -0.3353
   12CHL1  H21B  868   7.184   1.285   5.034  0.6625  2.5599 -1.7036
   12CHL1  H21C  869   7.170   1.298   5.220 -0.6005  0.5696  0.1396
   12CHL1   C22  870   6.919   1.357   4.990  0.1969 -0.0998 -0.1076
   12CHL1  H22A  871   6.809   1.364   4.998  0.3166 -0.3668  2.8756
   12CHL1  H22B  872   6.937   1.466   4.990 -2.2237  0.3653 -1.2958
   12CHL1   C23  873   6.967   1.285   4.863 -0.1922 -0.3099  0.1305
   12CHL1  H23A  874   7.078   1.284   4.872 -0.2197 -0.5787  0.4732
   12CHL1  H23B  875   6.938   1.178   4.873  0.1937 -0.5321 -0.9480
   12CHL1   C24  876   6.924   1.351   4.735  0.1526  0.6814  0.6026
   12CHL1  H24A  877   6.814   1.361   4.723  0.2536  1.0670 -0.0131
   12CHL1  H24B  878   6.956   1.457   4.737  2.6075  0.0432 -1.0249
   12CHL1   C25  879   6.990   1.284   4.604 -0.1392  0.0552 -0.3765
   12CHL1   H25  880   7.098   1.265   4.622 -0.0552  2.3120  2.2220
   12CHL1   C26  881   6.919   1.154   4.572  0.2580 -0.5870 -0.0276
   12CHL1  H26A  882   6.944   1.073   4.644  0.4466  0.8349  1.5782
   12CHL1  H26B  883   6.809   1.168   4.567  0.5123  1.7323 -0.3427
   12CHL1  H26C  884   6.963   1.117   4.476 -0.3257 -1.1488 -0.0851
   12CHL1   C27  885   6.996   1.382   4.485 -0.9201 -0.2961  0.2235
   12CHL1  H27A  886   7.051   1.342   4.396  0.7234  0.1711  0.9982
   12CHL1  H27B  887   6.895   1.413   4.448 -1.3634 -0.2671  1.4183
   12CHL1  H27C  888   7.041   1.479   4.514 -0.6510 -0.1922 -0.5052
   13CHL1    C3  889   1.119   1.908   6.119 -0.8070 -0.0995  0.6602
   13CHL1    H3  890   1.220   1.904   6.073 -1.1089 -4.0586  0.0177
   13CHL1    O3  891   1.129   1.926   6.264  0.8197 -0.4899  0.5344
   13CHL1   H3'  892   1.183   2.005   6.265  0.6778 -0.3954  1.1073
   13CHL1    C4  893   1.033   2.013   6.048  0.2854 -0.1234  0.6771
   13CHL1   H4A  894   0.930   1.994   6.085 -0.6556  0.0070 -1.7093
   13CHL1   H4B  895   1.074   2.116   6.060  0.9009 -0.4001  1.0361
   13CHL1    C5  896   1.034   1.979   5.897  0.6241  0.8856  0.3296
   13CHL1    C6  897   1.092   2.057   5.807 -0.5053 -0.5917  0.1149
   13CHL1    H6  898   1.134   2.150   5.849 -0.3421 -1.2230  1.3938
   13CHL1    C7  899   1.112   2.027   5.656 -0.4637  0.1408  0.3333
   13CHL1   H7A  900   1.095   2.118   5.595  0.1536 -0.1410 -0.2740
   13CHL1   H7B  901   1.218   1.994   5.643 -0.1651  0.9149  0.7153
   13CHL1    C8  902   1.023   1.913   5.609  0.1939  0.3088 -0.3353
   13CHL1    H8  903   0.917   1.944   5.600 -0.5563 -2.0350 -0.1737
   13CHL1   C14  904   1.077   1.857   5.477 -0.4338 -0.2429 -0.3037
   13CHL1   H14  905   1.177   1.813   5.494 -0.2902 -0.2716 -1.2038
   13CHL1   C15  906   1.096   1.967   5.363  0.1845 -0.1007 -0.5403
   13CHL1  H15A  907   1.012   2.039   5.377 -0.2939 -0.8311  0.5248
   13CHL1  H15B  908   1.193   2.016   5.384  0.4361 -1.2123  1.0904
   13CHL1   C16  909   1.088   1.893   5.235 -0.6142 -0.5674  0.3825
   13CHL1  H16A  910   1.020   1.945   5.164  0.1063  2.8583  2.0233
   13CHL1  H16B  911   1.187   1.897   5.183 -0.4512  0.7295  0.7635
   13CHL1   C17  912   1.050   1.748   5.271  0.0438  0.8987  0.1131
   13CHL1   H17  913   1.147   1.694   5.277  0.6785  2.1656  2.0761
   13CHL1   C13  914   0.990   1.747   5.415 -0.1230  0.4392  0.1356
   13CHL1   C18  915   0.840   1.784   5.404  0.1338  0.2575 -0.1775
   13CHL1  H18A  916   0.815   1.878   5.352 -2.1128 -1.0331 -1.5749
   13CHL1  H18B  917   0.773   1.711   5.355 -0.8325  0.9453  0.0946
   13CHL1  H18C  918   0.793   1.791   5.504 -0.8275 -1.2506 -0.4928
   13CHL1   C12  919   1.006   1.625   5.510 -0.1158  0.4189  0.2947
   13CHL1  H12A  920   0.949   1.534   5.481 -1.3826  0.6913  1.7765
   13CHL1  H12B  921   1.112   1.604   5.538 -0.0274  1.2305  0.6077
   13CHL1   C11  922   0.959   1.665   5.651 -0.0651 -0.2413 -0.3540
   13CHL1  H11A  923   0.848   1.673   5.653 -0.1078 -0.8675  0.4849
   13CHL1  H11B  924   0.989   1.579   5.715  1.5599  1.0361  0.6749
   13CHL1    C9  925   1.028   1.792   5.707 -0.5233 -0.4024 -0.7438
   13CHL1    H9  926   1.135   1.762   5.717 -1.2615 -3.5357 -1.2434
   13CHL1   C10  927   0.981   1.838   5.848  0.3020  0.0572  0.1564
   13CHL1   C19  928   0.824   1.855   5.849  0.5424  0.1704  0.0927
   13CHL1  H19A  929   0.788   1.909   5.758  0.1849 -1.1132 -0.5476
   13CHL1  H19B  930   0.774   1.757   5.835  0.2494  0.5440 -1.7199
   13CHL1  H19C  931   0.784   1.905   5.940  0.2927  1.4192 -0.6640
   13CHL1    C1  932   1.029   1.729   5.951 -0.2360  0.5286  0.4418
   13CHL1   H1A  933   0.964   1.639   5.949  0.9303 -0.3371 -1.4869
   13CHL1   H1B  934   1.131   1.694   5.924 -0.6782  0.3079 -1.0305
   13CHL1    C2  935   1.046   1.775   6.093  0.2435 -0.1648  0.4123
   13CHL1   H2A  936   1.101   1.698   6.152  0.7901 -0.5344 -0.5596
   13CHL1   H2B  937   0.941   1.768   6.130  0.8525 -0.6334  2.1497
   13CHL1   C20  938   0.959   1.697   5.153 -0.1015 -0.1439  0.6396
   13CHL1   H20  939   0.857   1.742   5.145 -0.1952 -0.5379 -0.7282
   13CHL1   C21  940   0.924   1.543   5.174 -0.7036  0.6378  1.1437
   13CHL1  H21A  941   0.855   1.508   5.095 -1.4443  0.0128  2.0415
   13CHL1  H21B  942   0.875   1.524   5.272 -0.2211 -2.4711  0.9093
   13CHL1  H21C  943   1.024   1.496   5.163 -0.9900 -0.1380  1.7605
   13CHL1   C22  944   1.027   1.716   5.007  0.3775 -0.3200 -0.3527
   13CHL1  H22A  945   1.051   1.820   4.979 -0.9344 -0.5785 -2.7814
   13CHL1  H22B  946   1.128   1.670   5.009  0.2730 -0.7478 -2.4240
   13CHL1   C23  947   0.937   1.668   4.892  0.1006  0.7552 -0.6111
   13CHL1  H23A  948   0.897   1.568   4.919  1.2849 -0.2481 -2.3704
   13CHL1  H23B  949   0.856   1.741   4.871 -1.0150  0.1671  1.3773
   13CHL1   C24  950   1.031   1.640   4.773 -0.1539  0.7752  0.0875
   13CHL1  H24A  951   0.965   1.657   4.686  0.5759 -1.5109 -0.9674
   13CHL1  H24B  952   1.117   1.711   4.773 -1.0001  1.8175 -0.1561
   13CHL1   C25  953   1.092   1.504   4.771  0.1305 -0.0596  0.3777
   13CHL1   H25  954   1.159   1.496   4.859  0.5775  0.5276  0.0964
   13CHL1   C26  955   1.002   1.380   4.780  0.3488 -0.4273 -0.4942
   13CHL1  H26A  956   0.927   1.377   4.698 -0.9075 -2.0547  0.6449
   13CHL1  H26B  957   1.053   1.282   4.786 -3.0975 -2.4547 -1.5300
   13CHL1  H26C  958   0.943   1.380   4.874 -2.2724  1.9955 -1.9671
   13CHL1   C27  959   1.181   1.497   4.647 -0.0167  0.2402 -0.2825
   13CHL1  H27A  960   1.196   1.390   4.623  0.1420 -0.2495  1.8024
   13CHL1  H27B  961   1.129   1.536   4.557  0.6818  0.9049 -0.4044
   13CHL1  H27C  962   1.278   1.549   4.656 -0.6700  1.1143  3.2641
   14CHL1    C3  963   0.336   0.227   6.271 -0.2097 -0.1248 -0.0260
   14CHL1    H3  964   0.329   0.338   6.272  1.0403  0.0080 -1.8569
   14CHL1    O3  965   0.346   0.178   6.403  0.2389  0.0112 -0.3109
   14CHL1   H3'  966   0.430   0.134   6.421 -0.7948 -1.4675  1.1446
   14CHL1    C4  967   0.210   0.167   6.206 -0.0983  0.5018  0.3841
   14CHL1   H4A  968   0.222   0.058   6.224 -0.6527 -0.1321 -2.6197
   14CHL1   H4B  969   0.119   0.202   6.259  0.2750  1.3088  0.5043
   14CHL1    C5  970   0.207   0.195   6.053  0.3908 -0.2003 -0.1432
   14CHL1    C6  971   0.095   0.241   6.005 -0.4683 -0.9503 -0.5154
   14CHL1    H6  972   0.006   0.243   6.070  0.7867 -1.3702  1.2942
   14CHL1    C7  973   0.077   0.269   5.856  0.0927  0.4635 -0.6337
   14CHL1   H7A  974  -0.021   0.224   5.828 -0.5657 -1.3798  3.7797
   14CHL1   H7B  975   0.070   0.379   5.839 -0.2497  0.7566  1.2314
   14CHL1    C8  976   0.190   0.210   5.762  0.2491 -0.5950 -0.0420
   14CHL1    H8  977   0.163   0.103   5.749 -2.8618  0.0882  0.0238
   14CHL1   C14  978   0.191   0.271   5.622 -0.1463  0.5482  0.0343
   14CHL1   H14  979   0.231   0.374   5.631  3.5271 -0.4617 -2.3106
   14CHL1   C15  980   0.058   0.279   5.543  0.0776 -0.1839 -0.3563
   14CHL1  H15A  981   0.023   0.174   5.535  0.1546 -0.1040 -1.9376
   14CHL1  H15B  982  -0.026   0.339   5.586 -1.3126 -0.9463 -1.9029
   14CHL1   C16  983   0.093   0.326   5.410  0.3883 -0.0843  0.1702
   14CHL1  H16A  984   0.036   0.282   5.326  3.3570 -0.8081 -1.6158
   14CHL1  H16B  985   0.092   0.436   5.397 -2.3210 -0.0739 -0.0529
   14CHL1   C17  986   0.249   0.295   5.401  0.7245 -0.3151  0.0654
   14CHL1   H17  987   0.304   0.391   5.406  0.7721 -0.1869 -1.9709
   14CHL1   C13  988   0.293   0.215   5.528  0.1599  0.1331  0.0350
   14CHL1   C18  989   0.277   0.061   5.508  0.2735 -0.1672 -0.5556
   14CHL1  H18A  990   0.350   0.038   5.427  1.3842  0.7291  0.1562
   14CHL1  H18B  991   0.302   0.002   5.599  0.9612  1.5288  0.4220
   14CHL1  H18C  992   0.168   0.046   5.496 -0.0205 -0.7018  2.0644
   14CHL1   C12  993   0.428   0.256   5.586 -0.8620  0.6038 -0.1629
   14CHL1  H12A  994   0.511   0.205   5.532 -0.4156 -0.0477  1.0908
   14CHL1  H12B  995   0.449   0.365   5.584  4.4131 -0.1289 -1.5997
   14CHL1   C11  996   0.448   0.196   5.736  0.3946 -0.0726  0.2055
   14CHL1  H11A  997   0.463   0.086   5.731  0.1592 -0.0586 -1.5244
   14CHL1  H11B  998   0.545   0.244   5.763  1.0146 -1.0758 -0.1767
   14CHL1    C9  999   0.324   0.233   5.827 -0.1101 -0.1968  0.0418
   14CHL1    H9 1000   0.328   0.342   5.847  0.7629 -0.0299 -0.9443
   14CHL1   C10 1001   0.333   0.170   5.965  0.6204  0.3382 -0.6816
   14CHL1   C19 1002   0.344   0.015   5.951 -0.0846  0.0343  0.1274
   14CHL1  H19A 1003   0.268  -0.038   5.891  0.8673  1.0137 -2.0890
   14CHL1  H19B 1004   0.442  -0.010   5.905 -1.0968 -0.5607 -1.8196
   14CHL1  H19C 1005   0.345  -0.032   6.052 -1.3520 -3.4188 -1.3302
   14CHL1    C1 1006   0.459   0.228   6.047  0.2713  0.5681 -0.7299
   14CHL1   H1A 1007   0.539   0.166   6.000  0.2356  1.8918 -2.6194
   14CHL1   H1B 1008   0.457   0.338   6.033 -1.0844  1.0144  2.2194
   14CHL1    C2 1009   0.461   0.189   6.197  0.6368 -0.1900  0.4235
   14CHL1   H2A 1010   0.543   0.250   6.239  0.5296  1.3129 -1.4015
   14CHL1   H2B 1011   0.483   0.081   6.209  0.0078 -0.6384 -1.8245
   14CHL1   C20 1012   0.281   0.238   5.258  0.5441  0.4075  0.1063
   14CHL1   H20 1013   0.374   0.179   5.269  0.8730  1.2665  2.3997
   14CHL1   C21 1014   0.302   0.356   5.149 -0.7278  0.2540 -0.1511
   14CHL1  H21A 1015   0.359   0.312   5.065 -0.4563 -3.3045  1.7402
   14CHL1  H21B 1016   0.369   0.432   5.193 -0.0071 -0.7244  0.4736
   14CHL1  H21C 1017   0.208   0.406   5.117 -0.4292  0.7780 -0.2189
   14CHL1   C22 1018   0.188   0.134   5.189  0.0533  0.3265 -0.8025
   14CHL1  H22A 1019   0.155   0.061   5.266  0.9561  0.4298 -0.3050
   14CHL1  H22B 1020   0.094   0.184   5.155  1.0302  0.9478 -2.7049
   14CHL1   C23 1021   0.243   0.069   5.063 -0.4895 -0.1933 -0.4008
   14CHL1  H23A 1022   0.208   0.130   4.977  0.0771  0.3901 -0.2284
   14CHL1  H23B 1023   0.354   0.071   5.067 -0.5513  0.9976  1.9236
   14CHL1   C24 1024   0.181  -0.076   5.041  0.0435 -0.1187  0.7159
   14CHL1  H24A 1025   0.264  -0.150   5.043  1.2439  1.1562  0.1537
   14CHL1  H24B 1026   0.113  -0.104   5.124  0.8450 -1.0802  1.0690
   14CHL1   C25 1027   0.107  -0.088   4.909 -0.5300  0.4063  0.1434
   14CHL1   H25 1028   0.027  -0.011   4.911 -0.3592  0.5804  0.2497
   14CHL1   C26 1029   0.199  -0.071   4.785 -0.6230 -0.5914 -0.4682
   14CHL1  H26A 1030   0.149  -0.051   4.688  0.9042  0.7872 -1.0115
   14CHL1  H26B 1031   0.262   0.019   4.801 -0.5638 -0.7682  0.3295
   14CHL1  H26C 1032   0.271  -0.155   4.775 -0.2752 -0.1233 -2.1322
   14CHL1   C27 1033   0.033  -0.224   4.898  0.0308  0.3431  0.5524
   14CHL1  H27A 1034  -0.038  -0.221   4.813  2.0988  0.6975 -1.2292
   14CHL1  H27B 1035   0.094  -0.316   4.895  1.4127  1.2453  0.2118
   14CHL1  H27C 1036  -0.038  -0.223   4.984 -0.1108  0.1114  0.4383
   15CHL1    C3 1037   1.264   2.787   5.885 -0.7625 -0.2235  0.2372
   15CHL1    H3 1038   1.309   2.885   5.908 -2.5147  0.3595  1.3722
   15CHL1    O3 1039   1.237   2.708   6.001 -0.5167  0.4958 -0.3949
   15CHL1   H3' 1040   1.210   2.623   5.966  1.4414 -0.6434  0.7177
   15CHL1    C4 1041   1.138   2.811   5.808  0.0447  0.1564  0.4360
   15CHL1   H4A 1042   1.091   2.712   5.791  2.1508 -0.6530 -1.0129
   15CHL1   H4B 1043   1.072   2.872   5.873 -1.1214 -1.6123  0.9844
   15CHL1    C5 1044   1.156   2.876   5.674 -0.6032 -0.3648  0.0531
   15CHL1    C6 1045   1.090   2.992   5.644  0.1339 -0.7564 -0.1102
   15CHL1    H6 1046   1.022   3.041   5.715  1.3416  1.3771 -0.3722
   15CHL1    C7 1047   1.091   3.046   5.503 -0.0842  0.3716 -0.2052
   15CHL1   H7A 1048   0.984   3.052   5.472 -0.1090 -0.1136 -0.2255
   15CHL1   H7B 1049   1.127   3.151   5.513 -0.7560  0.5124  0.8359
   15CHL1    C8 1050   1.170   2.961   5.400 -0.4134  1.1771 -0.1709
   15CHL1    H8 1051   1.103   2.876   5.374 -3.6502  3.5290 -0.1179
   15CHL1   C14 1052   1.212   3.043   5.274 -0.3545  0.2946 -0.0555
   15CHL1   H14 1053   1.281   3.117   5.319 -0.2597 -0.7276  1.5889
   15CHL1   C15 1054   1.108   3.128   5.207  0.3793  0.3498  0.3589
   15CHL1  H15A 1055   1.033   3.055   5.169  1.3624 -0.6179  0.2376
   15CHL1  H15B 1056   1.056   3.201   5.273 -0.9229  0.3271 -0.6111
   15CHL1   C16 1057   1.185   3.178   5.087  0.1611 -0.6046  0.4473
   15CHL1  H16A 1058   1.120   3.179   4.997  2.5349  1.0051 -1.3547
   15CHL1  H16B 1059   1.217   3.283   5.101 -2.3128  0.2711  0.0933
   15CHL1   C17 1060   1.312   3.086   5.069  0.7354 -0.2473  0.3313
   15CHL1   H17 1061   1.394   3.148   5.111  1.0414 -0.2162 -0.3088
   15CHL1   C13 1062   1.285   2.970   5.171  0.0565  0.4981 -0.0893
   15CHL1   C18 1063   1.208   2.857   5.101  0.2512 -0.3702  0.3149
   15CHL1  H18A 1064   1.119   2.894   5.047  1.7352  0.9989 -1.3277
   15CHL1  H18B 1065   1.278   2.811   5.028  2.8193  2.5632  0.6966
   15CHL1  H18C 1066   1.179   2.793   5.187 -0.3954  1.6731  1.6771
   15CHL1   C12 1067   1.420   2.918   5.237 -0.1333  0.9999  0.1624
   15CHL1  H12A 1068   1.476   2.860   5.160 -0.5424  1.2772 -0.3469
   15CHL1  H12B 1069   1.472   3.012   5.265  0.7603  0.6678 -0.3316
   15CHL1   C11 1070   1.381   2.832   5.362  0.0451 -0.7625  0.0437
   15CHL1  H11A 1071   1.341   2.735   5.324 -3.1928  0.4025  0.1939
   15CHL1  H11B 1072   1.481   2.823   5.410 -0.4496  0.5563  1.3946
   15CHL1    C9 1073   1.291   2.901   5.463  0.0096 -0.1981  0.6361
   15CHL1    H9 1074   1.360   2.978   5.503  0.4605 -0.9212  1.2743
   15CHL1   C10 1075   1.254   2.812   5.580 -0.0791  0.3541  0.3510
   15CHL1   C19 1076   1.174   2.689   5.539 -0.4990 -0.0148 -0.1944
   15CHL1  H19A 1077   1.160   2.619   5.625 -0.9531 -0.3613 -0.5430
   15CHL1  H19B 1078   1.077   2.718   5.494 -0.6165 -1.7647 -1.1223
   15CHL1  H19C 1079   1.225   2.642   5.453  1.3863  1.6446 -0.0645
   15CHL1    C1 1080   1.386   2.772   5.656 -0.4472 -0.2795 -0.5282
   15CHL1   H1A 1081   1.447   2.698   5.598  3.9695  1.8697  0.9321
   15CHL1   H1B 1082   1.453   2.859   5.672 -1.2655  0.3354 -0.4015
   15CHL1    C2 1083   1.359   2.709   5.796  0.6564  0.2826 -0.6696
   15CHL1   H2A 1084   1.455   2.686   5.846  1.3322  1.5471 -1.3523
   15CHL1   H2B 1085   1.319   2.606   5.786  1.4401 -0.1147  0.1230
   15CHL1   C20 1086   1.347   3.051   4.922  0.8034 -0.5473  0.0868
   15CHL1   H20 1087   1.269   2.984   4.882  1.0158 -1.1322  0.6336
   15CHL1   C21 1088   1.480   2.979   4.918  0.0759  0.2887 -0.1295
   15CHL1  H21A 1089   1.499   2.969   4.809 -0.4914  2.3871 -0.4634
   15CHL1  H21B 1090   1.478   2.876   4.958  1.6999 -0.6780 -2.3113
   15CHL1  H21C 1091   1.549   3.050   4.970 -0.2959  0.2814  0.3799
   15CHL1   C22 1092   1.346   3.179   4.831 -0.0587 -0.2550 -0.0738
   15CHL1  H22A 1093   1.377   3.149   4.728 -1.7212  1.3298 -1.0913
   15CHL1  H22B 1094   1.241   3.216   4.825 -0.3353 -0.7629  1.3632
   15CHL1   C23 1095   1.430   3.298   4.877 -0.6248 -0.5980 -0.6524
   15CHL1  H23A 1096   1.411   3.312   4.986 -0.9840  2.0089 -0.9943
   15CHL1  H23B 1097   1.538   3.276   4.865 -0.5739 -1.0729  0.5627
   15CHL1   C24 1098   1.390   3.424   4.798 -0.2047 -0.0723 -0.3518
   15CHL1  H24A 1099   1.432   3.404   4.697  1.4651 -0.0522  0.3042
   15CHL1  H24B 1100   1.280   3.438   4.802 -0.3455 -0.6029 -1.7969
   15CHL1   C25 1101   1.457   3.553   4.850  0.6465 -0.3104 -0.1826
   15CHL1   H25 1102   1.446   3.555   4.960 -0.6687 -0.7023 -0.2884
   15CHL1   C26 1103   1.604   3.568   4.820 -0.4627 -0.5800 -0.3186
   15CHL1  H26A 1104   1.659   3.483   4.866 -0.8623 -1.6717 -1.7690
   15CHL1  H26B 1105   1.603   3.566   4.709  3.1036  0.1889 -0.4652
   15CHL1  H26C 1106   1.644   3.666   4.850  0.9822 -1.2362 -0.0281
   15CHL1   C27 1107   1.379   3.668   4.788 -0.5277 -0.8786 -0.6072
   15CHL1  H27A 1108   1.380   3.654   4.678 -0.3195 -0.0199 -0.7191
   15CHL1  H27B 1109   1.271   3.653   4.813 -0.0853 -0.8220  1.4964
   15CHL1  H27C 1110   1.409   3.768   4.826  1.6361 -1.1316 -1.5227
   16CHL1    C3 1111   4.539   1.359   5.945 -0.0896  0.3705  0.2209
   16CHL1    H3 1112   4.633   1.418   5.943  0.4083 -0.4161 -0.6690
   16CHL1    O3 1113   4.494   1.348   6.083  0.1495  0.6910 -0.5831
   16CHL1   H3' 1114   4.446   1.427   6.108 -2.6197 -0.5416 -1.6206
   16CHL1    C4 1115   4.435   1.439   5.870 -0.0169 -0.6327 -0.1833
   16CHL1   H4A 1116   4.330   1.403   5.868 -1.3516  2.7280 -3.5754
   16CHL1   H4B 1117   4.425   1.534   5.927 -1.3873 -1.3309  0.8008
   16CHL1    C5 1118   4.466   1.454   5.723 -1.1287  0.3446 -0.2082
   16CHL1    C6 1119   4.472   1.573   5.663  0.6101  0.2659 -0.3447
   16CHL1    H6 1120   4.453   1.663   5.724  1.1233  0.3792 -0.3470
   16CHL1    C7 1121   4.505   1.595   5.515 -0.0430 -0.4432  0.1173
   16CHL1   H7A 1122   4.427   1.656   5.466 -0.1694 -1.3271 -0.8285
   16CHL1   H7B 1123   4.595   1.659   5.511 -0.3428  0.1769  2.2783
   16CHL1    C8 1124   4.509   1.460   5.431 -0.4903 -0.2603 -0.1633
   16CHL1    H8 1125   4.402   1.435   5.417 -1.3400  2.5556  0.6268
   16CHL1   C14 1126   4.584   1.480   5.300 -0.1213 -0.8852  0.0330
   16CHL1   H14 1127   4.688   1.510   5.327 -0.6106  0.8401  0.1244
   16CHL1   C15 1128   4.544   1.594   5.214 -0.0198  0.2008 -0.6027
   16CHL1  H15A 1129   4.434   1.598   5.204 -0.2078 -2.7120 -0.6735
   16CHL1  H15B 1130   4.583   1.683   5.267  1.2400 -1.3245  1.1490
   16CHL1   C16 1131   4.602   1.568   5.073 -0.2939  0.3289 -0.5091
   16CHL1  H16A 1132   4.509   1.564   5.013  1.3426 -2.2659 -3.1351
   16CHL1  H16B 1133   4.665   1.654   5.043 -1.1606  0.8904 -0.7433
   16CHL1   C17 1134   4.678   1.423   5.086  0.7881  0.9037 -0.3708
   16CHL1   H17 1135   4.783   1.454   5.103  1.1845 -0.6106  0.0660
   16CHL1   C13 1136   4.604   1.355   5.209  0.1516 -0.8895  0.1578
   16CHL1   C18 1137   4.461   1.311   5.165 -0.2324 -0.0762 -0.9030
   16CHL1  H18A 1138   4.463   1.213   5.113 -1.2527  0.0013 -1.1066
   16CHL1  H18B 1139   4.391   1.314   5.251  1.4038  1.2517  0.4844
   16CHL1  H18C 1140   4.428   1.389   5.093  0.5785  0.4124 -0.7650
   16CHL1   C12 1141   4.678   1.254   5.303  0.2555  0.4093 -0.1093
   16CHL1  H12A 1142   4.714   1.158   5.260 -0.0947  0.1741  0.1085
   16CHL1  H12B 1143   4.771   1.299   5.343  1.3503 -1.4998 -0.3626
   16CHL1   C11 1144   4.609   1.224   5.431  0.3265 -0.0483  0.1997
   16CHL1  H11A 1145   4.512   1.175   5.409 -0.3768  1.3663 -0.0023
   16CHL1  H11B 1146   4.667   1.147   5.486  0.6399 -0.7752 -1.1124
   16CHL1    C9 1147   4.575   1.351   5.512 -0.1007 -0.0337 -0.4717
   16CHL1    H9 1148   4.674   1.391   5.545 -1.0407  0.9735  1.3091
   16CHL1   C10 1149   4.502   1.323   5.648  0.4381 -0.1430 -0.0184
   16CHL1   C19 1150   4.377   1.240   5.630  0.2865 -0.1730  0.4331
   16CHL1  H19A 1151   4.341   1.214   5.732  1.0913 -1.6194  0.3713
   16CHL1  H19B 1152   4.286   1.285   5.584  1.1236  1.2590  0.1354
   16CHL1  H19C 1153   4.397   1.139   5.587  2.7816  0.7843 -0.8269
   16CHL1    C1 1154   4.595   1.233   5.738  0.3886  0.2554 -0.3242
   16CHL1   H1A 1155   4.591   1.132   5.692  0.5241  1.0114 -2.0966
   16CHL1   H1B 1156   4.701   1.268   5.728  0.3816  1.0687  1.7907
   16CHL1    C2 1157   4.567   1.218   5.887 -0.1052 -0.4729  0.7810
   16CHL1   H2A 1158   4.648   1.154   5.930  0.2704 -0.0722  0.6778
   16CHL1   H2B 1159   4.479   1.154   5.911  1.0692 -0.7810  5.0009
   16CHL1   C20 1160   4.670   1.337   4.954 -0.5561 -0.3939  0.4218
   16CHL1   H20 1161   4.561   1.320   4.936 -0.9093  1.3877  0.6841
   16CHL1   C21 1162   4.742   1.211   4.989 -0.0330 -0.2590 -0.4961
   16CHL1  H21A 1163   4.675   1.129   5.021 -1.1397  0.8732  0.1908
   16CHL1  H21B 1164   4.825   1.224   5.062  0.7906  2.7026 -1.7867
   16CHL1  H21C 1165   4.803   1.173   4.904  0.6043  1.6465 -0.9572
   16CHL1   C22 1166   4.730   1.403   4.823  0.0533 -0.5376 -0.1789
   16CHL1  H22A 1167   4.683   1.504   4.814 -0.1961 -0.5450  0.9020
   16CHL1  H22B 1168   4.839   1.414   4.839  0.4278 -0.1313 -2.6374
   16CHL1   C23 1169   4.708   1.320   4.694  0.0614  0.1870 -0.2105
   16CHL1  H23A 1170   4.741   1.379   4.606  0.2624 -0.4020 -0.5378
   16CHL1  H23B 1171   4.764   1.225   4.701 -3.5782 -2.2081 -0.9140
   16CHL1   C24 1172   4.561   1.291   4.658  0.9429 -0.1088 -0.3340
   16CHL1  H24A 1173   4.515   1.207   4.715  1.1130  0.6542  0.9499
   16CHL1  H24B 1174   4.492   1.377   4.677 -0.0033 -1.3431  2.4438
   16CHL1   C25 1175   4.536   1.264   4.508  0.2949  0.6036 -0.1848
   16CHL1   H25 1176   4.428   1.240   4.502  0.5375 -1.2246  1.7199
   16CHL1   C26 1177   4.567   1.387   4.410  0.6778 -0.3666  0.4509
   16CHL1  H26A 1178   4.533   1.356   4.309 -0.9348 -0.8779  1.1244
   16CHL1  H26B 1179   4.507   1.476   4.438 -0.1334 -0.7872  0.0826
   16CHL1  H26C 1180   4.675   1.413   4.400 -0.2480  3.1928 -2.3766
   16CHL1   C27 1181   4.616   1.149   4.460  0.3115  1.1214  0.7080
   16CHL1  H27A 1182   4.609   1.133   4.350  0.4897  2.0008  0.5616
   16CHL1  H27B 1183   4.724   1.173   4.463  0.8387 -0.9101 -0.0581
   16CHL1  H27C 1184   4.595   1.065   4.530  0.9399  1.9465  1.9130
   17CHL1    C3 1185   4.625   6.638   5.761  0.3248  0.2775  0.8446
   17CHL1    H3 1186   4.588   6.538   5.730  0.3101  0.7587 -0.7579
   17CHL1    O3 1187   4.579   6.670   5.891 -0.4624  0.0094 -0.9233
   17CHL1   H3' 1188   4.501   6.618   5.909  1.9261 -3.0488  1.6869
   17CHL1    C4 1189   4.776   6.619   5.754 -0.6757  0.3006  0.7499
   17CHL1   H4A 1190   4.825   6.707   5.799 -1.2105  1.3604 -0.6625
   17CHL1   H4B 1191   4.806   6.537   5.822 -0.8023  0.2614  0.7598
   17CHL1    C5 1192   4.822   6.590   5.612  0.5708  0.0513  0.1723
   17CHL1    C6 1193   4.894   6.485   5.584 -0.8103  0.0746  0.2533
   17CHL1    H6 1194   4.921   6.404   5.653 -0.6600  1.0590  1.3777
   17CHL1    C7 1195   4.947   6.457   5.447  0.2556  0.0555  0.9332
   17CHL1   H7A 1196   5.053   6.423   5.450  0.4045  0.4594  0.4195
   17CHL1   H7B 1197   4.894   6.374   5.395 -0.4210  0.6032  0.7444
   17CHL1    C8 1198   4.942   6.583   5.345  0.8444 -0.0464  0.3109
   17CHL1    H8 1199   5.016   6.663   5.368  1.5992 -0.2023 -1.3724
   17CHL1   C14 1200   4.961   6.524   5.207 -0.4446 -0.9096  0.3530
   17CHL1   H14 1201   4.878   6.455   5.179 -1.5011  1.5726 -3.4015
   17CHL1   C15 1202   5.082   6.432   5.175  0.1617  0.3018  0.2435
   17CHL1  H15A 1203   5.175   6.470   5.224  0.3076  0.9240 -0.4928
   17CHL1  H15B 1204   5.062   6.332   5.217 -2.3928 -0.5692 -2.6465
   17CHL1   C16 1205   5.088   6.433   5.017  0.3820 -0.6427 -0.3418
   17CHL1  H16A 1206   5.191   6.468   4.993 -0.7843  3.0329 -0.6620
   17CHL1  H16B 1207   5.061   6.333   4.977 -1.8594  0.3297 -1.4685
   17CHL1   C17 1208   4.976   6.543   4.972 -0.0098  1.0577 -0.3506
   17CHL1   H17 1209   4.891   6.472   4.961  0.1451  0.5095  1.5292
   17CHL1   C13 1210   4.947   6.630   5.096 -0.6017 -0.9360 -0.0392
   17CHL1   C18 1211   5.057   6.743   5.113  0.4549 -0.1089  0.3992
   17CHL1  H18A 1212   5.156   6.693   5.105 -0.8132 -2.3635 -2.9280
   17CHL1  H18B 1213   5.038   6.832   5.050 -1.1557  0.6316  1.8327
   17CHL1  H18C 1214   5.037   6.788   5.213 -1.1112  1.9825 -0.7600
   17CHL1   C12 1215   4.808   6.687   5.114 -0.2690 -0.4396  0.9265
   17CHL1  H12A 1216   4.808   6.775   5.047  0.1806 -0.1735  1.2660
   17CHL1  H12B 1217   4.736   6.608   5.084  0.1405 -1.3549  2.2145
   17CHL1   C11 1218   4.773   6.734   5.255  0.3616  0.0386  0.1745
   17CHL1  H11A 1219   4.827   6.828   5.278  0.0876 -0.0896  1.4247
   17CHL1  H11B 1220   4.664   6.754   5.243 -0.0025 -1.6085  0.4525
   17CHL1    C9 1221   4.804   6.635   5.361 -0.2876  0.0705 -0.0072
   17CHL1    H9 1222   4.728   6.555   5.349  0.5715 -0.6729 -0.6442
   17CHL1   C10 1223   4.771   6.689   5.505  0.2301 -0.1985  0.0966
   17CHL1   C19 1224   4.850   6.821   5.523 -0.4640  0.4139  0.0231
   17CHL1  H19A 1225   4.959   6.800   5.522  0.0722  2.7650 -1.3991
   17CHL1  H19B 1226   4.822   6.905   5.455 -2.7029  0.7487  1.2687
   17CHL1  H19C 1227   4.818   6.870   5.618  0.1199 -0.3513  0.6222
   17CHL1    C1 1228   4.624   6.715   5.516  0.3402  0.4540  0.7410
   17CHL1   H1A 1229   4.582   6.800   5.459  0.0201  0.0873  0.4177
   17CHL1   H1B 1230   4.555   6.633   5.486 -0.0288  1.0610 -0.0991
   17CHL1    C2 1231   4.573   6.744   5.660 -0.2021  0.9340  0.1428
   17CHL1   H2A 1232   4.462   6.747   5.660 -0.2722 -0.4115  1.5896
   17CHL1   H2B 1233   4.612   6.840   5.700 -2.3749  1.5456  0.9852
   17CHL1   C20 1234   5.018   6.605   4.839  0.4498  0.1188 -0.4473
   17CHL1   H20 1235   5.106   6.670   4.855  0.2920  0.3015 -0.3185
   17CHL1   C21 1236   4.907   6.695   4.789 -0.0651 -0.1763 -0.3491
   17CHL1  H21A 1237   4.876   6.769   4.866 -2.2464 -0.5857 -0.7645
   17CHL1  H21B 1238   4.818   6.629   4.777 -0.6994  0.8332 -1.4687
   17CHL1  H21C 1239   4.936   6.748   4.696 -0.7949  0.3734 -0.2758
   17CHL1   C22 1240   5.050   6.497   4.734  0.4283 -0.0013 -0.7832
   17CHL1  H22A 1241   5.119   6.415   4.764 -1.3354 -0.8210  1.3089
   17CHL1  H22B 1242   4.951   6.448   4.721 -0.4771  1.2960  0.9048
   17CHL1   C23 1243   5.091   6.538   4.595 -0.0690 -0.1011 -0.1537
   17CHL1  H23A 1244   5.007   6.586   4.541 -1.9195 -1.5966  1.2627
   17CHL1  H23B 1245   5.178   6.607   4.606 -0.4924  0.0388  3.7947
   17CHL1   C24 1246   5.127   6.413   4.509  0.1683 -0.2721 -0.0769
   17CHL1  H24A 1247   5.219   6.383   4.564  1.4461  1.5253 -1.1480
   17CHL1  H24B 1248   5.054   6.329   4.511  0.9618 -0.9774  0.1276
   17CHL1   C25 1249   5.166   6.443   4.360 -0.3102  0.1853 -0.3656
   17CHL1   H25 1250   5.078   6.489   4.310 -0.7238 -0.0600  0.1277
   17CHL1   C26 1251   5.275   6.544   4.357 -0.2908 -0.6544 -0.2432
   17CHL1  H26A 1252   5.358   6.523   4.429  1.2517  2.0189 -1.1126
   17CHL1  H26B 1253   5.320   6.556   4.257 -2.3723  2.0204 -0.9627
   17CHL1  H26C 1254   5.235   6.644   4.384 -1.0348 -1.0379  0.1181
   17CHL1   C27 1255   5.205   6.316   4.282 -0.5101 -0.0248 -0.0548
   17CHL1  H27A 1256   5.119   6.245   4.279 -0.2393 -0.3736  0.2177
   17CHL1  H27B 1257   5.247   6.330   4.180  1.0600  0.7003  0.6629
   17CHL1  H27C 1258   5.284   6.254   4.330 -0.3792  0.6548  0.6067
   18CHL1    C3 1259   0.365   1.976   5.862 -0.8628  1.0154  0.3351
   18CHL1    H3 1260   0.276   1.914   5.838 -0.4955  0.1302  1.2000
   18CHL1    O3 1261   0.384   2.003   5.998  0.4242  0.0488 -0.0637
   18CHL1   H3' 1262   0.304   2.049   6.023  0.8063  0.6306  0.1318
   18CHL1    C4 1263   0.488   1.902   5.796 -0.6605  0.6344 -0.4188
   18CHL1   H4A 1264   0.585   1.955   5.808 -0.0208 -0.4903 -0.5117
   18CHL1   H4B 1265   0.490   1.807   5.853 -0.2601  0.5970 -0.4884
   18CHL1    C5 1266   0.479   1.882   5.642  1.2010  0.2071  0.0246
   18CHL1    C6 1267   0.484   1.761   5.590  0.5192  0.7042  0.2137
   18CHL1    H6 1268   0.510   1.675   5.653 -0.9844 -1.3834 -1.8198
   18CHL1    C7 1269   0.485   1.744   5.440  1.0108  0.1559 -0.0124
   18CHL1   H7A 1270   0.566   1.678   5.404  1.6016  0.8032  0.1204
   18CHL1   H7B 1271   0.386   1.708   5.403  0.1546  1.7026  0.6541
   18CHL1    C8 1272   0.502   1.874   5.361 -0.7684  0.7792  0.5471
   18CHL1    H8 1273   0.611   1.897   5.355 -0.1394 -2.1066 -4.0870
   18CHL1   C14 1274   0.464   1.838   5.217 -0.2144  0.1645 -1.0987
   18CHL1   H14 1275   0.358   1.809   5.228 -0.0557  0.3865  1.7504
   18CHL1   C15 1276   0.529   1.715   5.151 -0.4637 -0.2925  0.4576
   18CHL1  H15A 1277   0.635   1.694   5.178  0.6145  0.9921 -2.3862
   18CHL1  H15B 1278   0.470   1.622   5.164 -0.8398 -0.6026 -2.8483
   18CHL1   C16 1279   0.528   1.749   5.002 -0.4712  0.6353  0.4229
   18CHL1  H16A 1280   0.630   1.771   4.963 -1.0245  1.4848 -0.6309
   18CHL1  H16B 1281   0.475   1.676   4.937  1.2756  0.2343 -0.6373
   18CHL1   C17 1282   0.448   1.888   4.997  0.2684  0.7615 -0.6101
   18CHL1   H17 1283   0.343   1.857   5.017  0.1816  2.3313  1.8010
   18CHL1   C13 1284   0.481   1.957   5.126  0.4217  0.7731 -0.4760
   18CHL1   C18 1285   0.636   1.994   5.115 -0.1894 -0.1334  0.1525
   18CHL1  H18A 1286   0.660   2.075   5.043  1.5117 -0.7323 -0.0112
   18CHL1  H18B 1287   0.676   2.029   5.213  1.4451  0.0622 -0.5425
   18CHL1  H18C 1288   0.702   1.909   5.085 -1.5989 -0.8528 -0.9860
   18CHL1   C12 1289   0.383   2.064   5.172 -0.8361 -0.1591  0.2703
   18CHL1  H12A 1290   0.387   2.149   5.101  0.6750  0.5902  1.1951
   18CHL1  H12B 1291   0.282   2.018   5.173  0.5884 -3.5944  1.4114
   18CHL1   C11 1292   0.405   2.108   5.317 -0.3745  0.5440  0.1097
   18CHL1  H11A 1293   0.495   2.172   5.328 -0.2490  0.2223  1.0714
   18CHL1  H11B 1294   0.325   2.181   5.340 -0.2228  1.4955 -2.1019
   18CHL1    C9 1295   0.412   1.985   5.412  0.0936  0.3357 -1.1218
   18CHL1    H9 1296   0.315   1.932   5.414  0.3133 -0.0430 -0.0838
   18CHL1   C10 1297   0.444   2.014   5.561  0.1962  0.3598 -0.4235
   18CHL1   C19 1298   0.571   2.106   5.567 -0.0535 -0.4464 -0.0073
   18CHL1  H19A 1299   0.541   2.209   5.538  1.0801 -0.0678  0.1262
   18CHL1  H19B 1300   0.603   2.113   5.673  0.4969 -2.0986 -0.0376
   18CHL1  H19C 1301   0.660   2.080   5.506 -0.1380 -0.7407 -0.0027
   18CHL1    C1 1302   0.324   2.093   5.634  0.4999 -0.4614 -0.1700
   18CHL1   H1A 1303   0.311   2.196   5.594 -0.8956  0.2636  1.9879
   18CHL1   H1B 1304   0.230   2.036   5.620  0.6411 -0.6048 -0.5536
   18CHL1    C2 1305   0.338   2.102   5.792  0.0099 -0.3729 -0.5204
   18CHL1   H2A 1306   0.247   2.150   5.833  3.3865  2.4912  4.7782
   18CHL1   H2B 1307   0.422   2.172   5.813  1.3395 -1.6893 -1.2367
   18CHL1   C20 1308   0.461   1.964   4.863  0.7893 -0.2207  0.0106
   18CHL1   H20 1309   0.554   2.025   4.854  0.5531  0.1641  0.1348
   18CHL1   C21 1310   0.345   2.059   4.832  0.7418 -0.4094 -0.0225
   18CHL1  H21A 1311   0.328   2.142   4.903  0.1748  0.7146 -1.4196
   18CHL1  H21B 1312   0.251   2.000   4.826  1.7648 -2.2622  1.1491
   18CHL1  H21C 1313   0.351   2.095   4.727 -0.6539 -0.3460 -0.1001
   18CHL1   C22 1314   0.475   1.865   4.741 -0.2195 -0.5341 -0.1726
   18CHL1  H22A 1315   0.494   1.919   4.646  2.1921 -1.1449 -0.1095
   18CHL1  H22B 1316   0.570   1.812   4.763  1.4366  2.0970 -0.5159
   18CHL1   C23 1317   0.353   1.780   4.714  0.7521 -0.2605  0.2438
   18CHL1  H23A 1318   0.324   1.728   4.807  0.2798 -1.5291 -0.5772
   18CHL1  H23B 1319   0.265   1.846   4.698  0.4678 -0.7747 -0.3500
   18CHL1   C24 1320   0.359   1.680   4.595 -0.0940  0.2524  0.0922
   18CHL1  H24A 1321   0.259   1.632   4.586 -1.0375  2.4633 -2.2912
   18CHL1  H24B 1322   0.375   1.738   4.501  1.0578 -2.3718 -1.4559
   18CHL1   C25 1323   0.474   1.576   4.616  0.7984  0.7479  0.1979
   18CHL1   H25 1324   0.570   1.624   4.643  0.7220  0.2535  1.4165
   18CHL1   C26 1325   0.428   1.475   4.722  0.5274  0.5397  0.5506
   18CHL1  H26A 1326   0.514   1.405   4.734  0.3532  0.1523 -0.3543
   18CHL1  H26B 1327   0.403   1.528   4.816 -1.2025 -0.9623  0.9802
   18CHL1  H26C 1328   0.342   1.419   4.680  1.8691  0.1352 -1.8586
   18CHL1   C27 1329   0.510   1.510   4.483  0.1150 -0.4568  0.7757
   18CHL1  H27A 1330   0.430   1.442   4.448 -0.5468  1.0116 -0.7056
   18CHL1  H27B 1331   0.532   1.593   4.413  1.2453 -0.4141  1.1627
   18CHL1  H27C 1332   0.606   1.455   4.491 -0.3551 -1.5215 -0.6223
   19CHL1    C3 1333   4.530   0.238   5.510  0.2478  0.6886  0.3403
   19CHL1    H3 1334   4.591   0.149   5.534 -0.5229  0.0085 -0.1838
   19CHL1    O3 1335   4.462   0.279   5.624 -0.2049 -0.8953 -0.6281
   19CHL1   H3' 1336   4.526   0.291   5.694 -2.2013  1.9741  0.8891
   19CHL1    C4 1337   4.626   0.348   5.447 -0.9947  0.1451  0.4531
   19CHL1   H4A 1338   4.570   0.444   5.439  1.0042  1.3730  0.4180
   19CHL1   H4B 1339   4.700   0.367   5.528 -3.2331  2.2413  2.1439
   19CHL1    C5 1340   4.683   0.312   5.313  0.0971 -0.3866  0.7994
   19CHL1    C6 1341   4.814   0.314   5.290  0.5117 -0.3239 -0.4881
   19CHL1    H6 1342   4.884   0.330   5.373 -1.0698 -1.7896  1.2329
   19CHL1    C7 1343   4.874   0.288   5.153 -0.2722 -0.3385 -0.2244
   19CHL1   H7A 1344   4.950   0.367   5.137 -2.2722  1.7118 -0.2379
   19CHL1   H7B 1345   4.916   0.186   5.146 -0.1753 -0.2246 -1.4800
   19CHL1    C8 1346   4.773   0.288   5.034 -0.7093 -0.7486 -0.3217
   19CHL1    H8 1347   4.747   0.395   5.017 -1.5158 -1.0742 -1.2627
   19CHL1   C14 1348   4.833   0.234   4.906  0.3965  0.2097  0.2951
   19CHL1   H14 1349   4.852   0.128   4.931  0.4134  0.4288  1.2622
   19CHL1   C15 1350   4.959   0.304   4.858 -0.0849  0.5317 -0.1457
   19CHL1  H15A 1351   4.947   0.414   4.863  1.0592  0.6608  0.2282
   19CHL1  H15B 1352   5.049   0.269   4.914  0.7119  1.5911 -0.7318
   19CHL1   C16 1353   4.960   0.257   4.715 -0.4288  0.3675 -0.4080
   19CHL1  H16A 1354   4.986   0.336   4.641 -1.2851  0.7798 -0.2888
   19CHL1  H16B 1355   5.033   0.174   4.711 -1.3966 -0.5682  0.7070
   19CHL1   C17 1356   4.827   0.183   4.681 -0.2400  0.0528 -0.3544
   19CHL1   H17 1357   4.852   0.078   4.704 -1.6798 -0.6714 -1.9098
   19CHL1   C13 1358   4.733   0.228   4.787  0.1971 -0.0093 -0.4474
   19CHL1   C18 1359   4.681   0.366   4.758  0.0482 -1.1138  0.5220
   19CHL1  H18A 1360   4.750   0.425   4.695 -0.8300  0.0153  0.5816
   19CHL1  H18B 1361   4.589   0.358   4.696 -0.0432 -0.1269  0.5261
   19CHL1  H18C 1362   4.649   0.416   4.851 -0.2864  3.4583 -1.7748
   19CHL1   C12 1363   4.616   0.133   4.829 -0.4364  0.5510 -1.4493
   19CHL1  H12A 1364   4.539   0.137   4.749  0.6565  3.2182 -2.4873
   19CHL1  H12B 1365   4.647   0.027   4.839 -0.7135  0.6435  0.8275
   19CHL1   C11 1366   4.549   0.186   4.960 -0.4105 -0.3644 -0.5748
   19CHL1  H11A 1367   4.475   0.263   4.930 -1.3347 -1.3335 -0.8374
   19CHL1  H11B 1368   4.487   0.098   4.988 -0.8835  0.0946 -0.1766
   19CHL1    C9 1369   4.648   0.216   5.074  1.0028 -1.0699 -0.2334
   19CHL1    H9 1370   4.681   0.116   5.108  1.1649 -1.2660 -0.9459
   19CHL1   C10 1371   4.581   0.278   5.203  0.0888 -0.0152 -0.0613
   19CHL1   C19 1372   4.509   0.410   5.164 -0.1224 -1.3391  0.5330
   19CHL1  H19A 1373   4.467   0.457   5.256 -1.3381 -0.9582 -0.2024
   19CHL1  H19B 1374   4.583   0.480   5.119  2.2496 -2.0863  3.0158
   19CHL1  H19C 1375   4.434   0.397   5.084  1.4948 -0.0252 -1.2967
   19CHL1    C1 1376   4.478   0.179   5.263  0.3549 -0.3307  0.3203
   19CHL1   H1A 1377   4.390   0.167   5.197  1.0073 -0.6510 -0.5082
   19CHL1   H1B 1378   4.537   0.085   5.260  1.5365  0.4107 -0.3480
   19CHL1    C2 1379   4.427   0.208   5.408 -0.4990 -0.2054  0.6917
   19CHL1   H2A 1380   4.361   0.122   5.435  0.2138 -0.9080  0.2299
   19CHL1   H2B 1381   4.358   0.293   5.394 -0.6698 -0.6735 -1.7699
   19CHL1   C20 1382   4.790   0.194   4.522 -0.4106  0.0435 -0.3685
   19CHL1   H20 1383   4.800   0.302   4.500 -1.4426  1.0108  3.2192
   19CHL1   C21 1384   4.647   0.152   4.498 -0.7653 -0.5192  0.4443
   19CHL1  H21A 1385   4.625   0.172   4.391  0.9500 -3.3178 -0.5386
   19CHL1  H21B 1386   4.564   0.197   4.556 -1.7580  0.3596 -1.5486
   19CHL1  H21C 1387   4.648   0.044   4.526  3.0253 -0.9857 -0.8987
   19CHL1   C22 1388   4.889   0.113   4.434 -0.1393 -0.7125  0.3825
   19CHL1  H22A 1389   4.995   0.145   4.447 -0.2172  0.9772 -2.2981
   19CHL1  H22B 1390   4.868   0.007   4.459 -3.4262 -0.7556 -1.9652
   19CHL1   C23 1391   4.869   0.115   4.278 -0.6165  0.4912  0.0420
   19CHL1  H23A 1392   4.773   0.069   4.247 -0.9246  1.3483 -0.2925
   19CHL1  H23B 1393   4.877   0.221   4.245  0.6872 -0.1889 -2.0459
   19CHL1   C24 1394   4.976   0.035   4.214  0.0896  0.7307  1.0856
   19CHL1  H24A 1395   5.078   0.079   4.227 -0.1051  0.7932  2.5121
   19CHL1  H24B 1396   4.981  -0.070   4.250  0.8568  0.2296 -0.3660
   19CHL1   C25 1397   4.953   0.030   4.057  0.0925  0.1183 -0.1116
   19CHL1   H25 1398   4.843   0.018   4.041  0.4778 -3.8242 -0.8217
   19CHL1   C26 1399   4.991   0.160   3.982 -0.3967  0.9556  0.0869
   19CHL1  H26A 1400   4.970   0.147   3.873  0.6717 -0.6130  0.0459
   19CHL1  H26B 1401   4.941   0.250   4.024 -1.5365  0.1249  0.5628
   19CHL1  H26C 1402   5.102   0.163   3.983 -0.3787  0.3305  0.1333
   19CHL1   C27 1403   5.022  -0.093   3.991 -0.5189 -0.4573 -0.3467
   19CHL1  H27A 1404   5.131  -0.071   3.980 -1.1141  2.3225 -1.4637
   19CHL1  H27B 1405   5.020  -0.181   4.059  2.3130  1.5244  2.6173
   19CHL1  H27C 1406   4.967  -0.107   3.896 -0.1342  0.1187 -0.6621
   20CHL1    C3 1407   3.831   1.976   5.849 -0.3189 -0.1430 -0.1341
   20CHL1    H3 1408   3.926   1.922   5.832  0.0184  0.4338 -0.0897
   20CHL1    O3 1409   3.835   2.005   5.984  0.1071 -1.0330 -0.0570
   20CHL1   H3' 1410   3.878   2.090   5.995 -0.4161 -0.6859 -0.6358
   20CHL1    C4 1411   3.814   2.106   5.767  0.5929  0.4680  0.5649
   20CHL1   H4A 1412   3.719   2.155   5.796  0.3675  0.3878 -0.0258
   20CHL1   H4B 1413   3.902   2.169   5.791  1.2717 -0.0653 -0.4353
   20CHL1    C5 1414   3.805   2.081   5.619 -0.4161  0.4577  0.6188
   20CHL1    C6 1415   3.876   2.151   5.528 -0.8682 -0.3654 -0.2654
   20CHL1    H6 1416   3.936   2.234   5.567 -0.3500  0.1151 -2.0160
   20CHL1    C7 1417   3.881   2.124   5.384  0.3582  0.1250  0.6687
   20CHL1   H7A 1418   3.892   2.211   5.315 -0.2619  1.2787  1.9840
   20CHL1   H7B 1419   3.974   2.066   5.366  1.2805  2.1247 -1.8090
   20CHL1    C8 1420   3.767   2.035   5.325 -0.2244  0.0326 -1.5933
   20CHL1    H8 1421   3.675   2.096   5.318 -1.7840 -1.8124  1.2537
   20CHL1   C14 1422   3.815   1.968   5.192  0.8511  0.0764  0.2240
   20CHL1   H14 1423   3.913   1.917   5.203  1.3056  0.8741 -0.0804
   20CHL1   C15 1424   3.834   2.069   5.077 -0.5318 -1.1086  0.0528
   20CHL1  H15A 1425   3.751   2.142   5.075  1.6584  1.6082  1.2178
   20CHL1  H15B 1426   3.935   2.116   5.077 -0.4354 -1.2957  0.7837
   20CHL1   C16 1427   3.836   1.977   4.955  0.5260  0.4791 -1.1774
   20CHL1  H16A 1428   3.770   2.014   4.873  1.2894  2.6522 -0.8783
   20CHL1  H16B 1429   3.940   1.975   4.916  0.1263  0.1109 -2.2577
   20CHL1   C17 1430   3.788   1.836   4.997  0.7052  0.1854 -0.1860
   20CHL1   H17 1431   3.876   1.774   5.024 -0.5142 -0.4010  2.7724
   20CHL1   C13 1432   3.719   1.868   5.131 -0.1676  0.4231 -0.0020
   20CHL1   C18 1433   3.577   1.923   5.097  0.3654  0.3140  0.0122
   20CHL1  H18A 1434   3.507   1.840   5.071  1.3701 -0.6529  0.3312
   20CHL1  H18B 1435   3.541   1.977   5.187  0.2860  0.2208  0.0367
   20CHL1  H18C 1436   3.583   1.996   5.014  2.2104  1.0250  0.7296
   20CHL1   C12 1437   3.698   1.750   5.227  0.1728 -0.5305 -0.0924
   20CHL1  H12A 1438   3.621   1.672   5.208  0.5876 -0.5243 -1.9035
   20CHL1  H12B 1439   3.800   1.715   5.250  0.7797  1.8541  1.2173
   20CHL1   C11 1440   3.652   1.806   5.368  0.0875  0.6377 -0.0051
   20CHL1  H11A 1441   3.551   1.850   5.356  0.4710  1.0453 -2.1339
   20CHL1  H11B 1442   3.656   1.718   5.436  2.1868  1.3652  0.8914
   20CHL1    C9 1443   3.740   1.920   5.431 -0.4710  0.7809 -0.4157
   20CHL1    H9 1444   3.843   1.878   5.432 -1.2682 -1.3100  1.3211
   20CHL1   C10 1445   3.712   1.962   5.580 -0.4236 -0.0162  0.8823
   20CHL1   C19 1446   3.566   2.009   5.590 -0.0597  0.2348 -0.0369
   20CHL1  H19A 1447   3.502   1.925   5.555 -0.8558  1.5590 -1.9144
   20CHL1  H19B 1448   3.548   2.038   5.696  0.1400 -1.7473  0.5754
   20CHL1  H19C 1449   3.554   2.103   5.532 -1.2302 -0.5102 -1.0575
   20CHL1    C1 1450   3.731   1.838   5.668  0.8928  1.0472 -0.5519
   20CHL1   H1A 1451   3.655   1.762   5.638  0.1510  1.2878  0.6212
   20CHL1   H1B 1452   3.831   1.793   5.654  1.9536  3.1078  0.0402
   20CHL1    C2 1453   3.724   1.877   5.815  0.4508 -0.6826 -0.3216
   20CHL1   H2A 1454   3.729   1.784   5.875 -0.1043  0.9048  2.3296
   20CHL1   H2B 1455   3.624   1.907   5.852  1.1597 -0.0525  1.1439
   20CHL1   C20 1456   3.707   1.766   4.886  0.1347  0.8397  0.2918
   20CHL1   H20 1457   3.612   1.822   4.868 -1.1415 -0.7490  1.7287
   20CHL1   C21 1458   3.664   1.622   4.931  0.7407 -0.4984  0.3910
   20CHL1  H21A 1459   3.664   1.548   4.848  1.3004 -0.0133 -0.0440
   20CHL1  H21B 1460   3.566   1.624   4.984  1.0258 -0.3405  0.9163
   20CHL1  H21C 1461   3.739   1.588   5.005  0.6232 -1.6943 -0.0179
   20CHL1   C22 1462   3.772   1.759   4.748  0.4073 -0.3411  0.3948
   20CHL1  H22A 1463   3.716   1.682   4.691  2.5815 -2.6464  1.1992
   20CHL1  H22B 1464   3.760   1.854   4.690 -0.6672 -0.5634  0.2361
   20CHL1   C23 1465   3.917   1.709   4.754  0.8804 -0.0093 -0.4871
   20CHL1  H23A 1466   3.975   1.792   4.801  0.5356 -0.7391  1.2984
   20CHL1  H23B 1467   3.927   1.618   4.817 -1.5568 -0.8305 -1.2219
   20CHL1   C24 1468   3.981   1.681   4.619  0.0280  0.9813  0.3743
   20CHL1  H24A 1469   3.953   1.585   4.571 -0.9329  2.0790 -1.3636
   20CHL1  H24B 1470   3.963   1.752   4.535  3.0806  0.0837 -1.1921
   20CHL1   C25 1471   4.139   1.697   4.614 -0.1817  0.5834 -0.5988
   20CHL1   H25 1472   4.163   1.797   4.655  0.9800  0.1939 -0.2908
   20CHL1   C26 1473   4.195   1.582   4.698 -0.4110 -0.0598  0.4114
   20CHL1  H26A 1474   4.154   1.481   4.678 -0.7368  0.4082 -1.5109
   20CHL1  H26B 1475   4.304   1.577   4.678 -0.2720 -2.8697  1.4403
   20CHL1  H26C 1476   4.191   1.597   4.808  1.7967  0.1277  0.5263
   20CHL1   C27 1477   4.192   1.686   4.471 -0.4127 -0.9012 -0.7481
   20CHL1  H27A 1478   4.298   1.713   4.452 -0.9957  1.0502 -1.5127
   20CHL1  H27B 1479   4.184   1.579   4.441  1.9593 -1.4606  0.3916
   20CHL1  H27C 1480   4.128   1.751   4.407 -2.4645 -2.2248 -0.1441
   21CHL1    C3 1481   4.201   2.411   5.820  0.4226  0.4307  0.3108
   21CHL1    H3 1482   4.201   2.300   5.824  1.9807  0.4360  1.6165
   21CHL1    O3 1483   4.137   2.436   5.943  0.1426  0.2420  0.3152
   21CHL1   H3' 1484   4.148   2.531   5.947 -1.7429  0.4935  0.2681
   21CHL1    C4 1485   4.348   2.460   5.818  0.0945 -0.1997 -0.0051
   21CHL1   H4A 1486   4.347   2.568   5.845  0.0784 -0.3815  0.7485
   21CHL1   H4B 1487   4.404   2.404   5.896 -0.7353  0.2513  0.9432
   21CHL1    C5 1488   4.420   2.434   5.688 -0.0170  0.4384  0.8365
   21CHL1    C6 1489   4.538   2.370   5.679 -0.5723  0.4439  0.6443
   21CHL1    H6 1490   4.592   2.331   5.766 -0.2969 -0.3822  0.1185
   21CHL1    C7 1491   4.614   2.359   5.549  0.7145  0.1115  0.1488
   21CHL1   H7A 1492   4.717   2.400   5.561  1.1314 -0.6389 -0.7671
   21CHL1   H7B 1493   4.620   2.251   5.523  1.0689  0.5932 -1.8853
   21CHL1    C8 1494   4.552   2.429   5.426 -0.0858  0.0268 -0.0810
   21CHL1    H8 1495   4.585   2.535   5.431  3.5389 -0.8058 -2.2875
   21CHL1   C14 1496   4.599   2.360   5.302  0.3188 -0.7154 -0.6061
   21CHL1   H14 1497   4.565   2.255   5.315  0.2083 -0.6157 -0.0468
   21CHL1   C15 1498   4.746   2.356   5.276 -0.2235  0.0154 -0.2330
   21CHL1  H15A 1499   4.797   2.449   5.306 -0.1108  0.3943 -1.5460
   21CHL1  H15B 1500   4.785   2.263   5.323 -0.7938 -0.3649 -0.4971
   21CHL1   C16 1501   4.759   2.344   5.121  0.5032 -0.6520  0.0856
   21CHL1  H16A 1502   4.839   2.416   5.093  2.9481 -1.9009  3.2306
   21CHL1  H16B 1503   4.806   2.246   5.098  1.5451 -0.1557  0.0335
   21CHL1   C17 1504   4.620   2.358   5.060  0.2245  0.1117 -0.4627
   21CHL1   H17 1505   4.581   2.255   5.044  0.7162  0.0491 -1.3134
   21CHL1   C13 1506   4.543   2.427   5.173  0.1672 -0.4790  0.4847
   21CHL1   C18 1507   4.577   2.577   5.162  0.0741  0.0852 -0.3396
   21CHL1  H18A 1508   4.523   2.627   5.245  1.5545  1.4730 -0.1757
   21CHL1  H18B 1509   4.686   2.591   5.169 -0.1292  1.5046  0.2034
   21CHL1  H18C 1510   4.536   2.631   5.073  1.0101  1.8196  0.2428
   21CHL1   C12 1511   4.393   2.411   5.176  0.2166 -0.2002  0.5099
   21CHL1  H12A 1512   4.350   2.468   5.091 -2.3670 -1.9877  0.5112
   21CHL1  H12B 1513   4.357   2.306   5.168 -1.2056  0.2396  0.8627
   21CHL1   C11 1514   4.335   2.464   5.307  0.9742  0.2886  0.2378
   21CHL1  H11A 1515   4.348   2.574   5.296  0.4757  0.3467  0.2253
   21CHL1  H11B 1516   4.229   2.431   5.307  0.8884  0.4822 -1.8521
   21CHL1    C9 1517   4.402   2.421   5.434 -0.2771 -0.0456 -0.0233
   21CHL1    H9 1518   4.380   2.312   5.441  1.9219 -0.5380  0.0529
   21CHL1   C10 1519   4.338   2.479   5.566 -0.1658  0.1007 -0.1319
   21CHL1   C19 1520   4.341   2.637   5.564 -0.0582 -0.7350  0.1042
   21CHL1  H19A 1521   4.297   2.672   5.660  2.3115  0.0200  0.9935
   21CHL1  H19B 1522   4.446   2.670   5.579  0.0442 -1.2314  0.5088
   21CHL1  H19C 1523   4.281   2.686   5.484 -2.9498  0.4019  2.7688
   21CHL1    C1 1524   4.195   2.427   5.568 -0.2902 -0.3035  0.4318
   21CHL1   H1A 1525   4.129   2.486   5.500 -0.3593 -1.0869 -0.1959
   21CHL1   H1B 1526   4.195   2.317   5.553 -0.2544  0.0123 -2.5305
   21CHL1    C2 1527   4.121   2.461   5.700 -0.0394 -0.6756 -0.2706
   21CHL1   H2A 1528   4.029   2.402   5.680  0.6036 -1.3983 -1.2710
   21CHL1   H2B 1529   4.095   2.567   5.717 -1.4654 -1.1438  0.5812
   21CHL1   C20 1530   4.631   2.414   4.923 -0.2528  0.4956  0.7572
   21CHL1   H20 1531   4.677   2.515   4.928  2.5667 -0.6786  0.7721
   21CHL1   C21 1532   4.488   2.420   4.860 -0.4476 -0.2392 -0.0036
   21CHL1  H21A 1533   4.506   2.450   4.755 -0.9588  0.6027  0.1350
   21CHL1  H21B 1534   4.425   2.496   4.912 -0.4210 -1.6716  2.2903
   21CHL1  H21C 1535   4.448   2.318   4.873  1.2368 -0.8786  0.4341
   21CHL1   C22 1536   4.719   2.321   4.830 -0.2312 -0.1795  0.3842
   21CHL1  H22A 1537   4.818   2.302   4.877 -0.1290  0.2235  0.3324
   21CHL1  H22B 1538   4.666   2.223   4.825 -1.6667  0.5685  0.1552
   21CHL1   C23 1539   4.743   2.347   4.678 -0.0902 -0.2181 -0.7372
   21CHL1  H23A 1540   4.835   2.291   4.652  0.3250 -0.1227  0.4611
   21CHL1  H23B 1541   4.664   2.316   4.607 -0.4477  0.3855 -0.6084
   21CHL1   C24 1542   4.781   2.490   4.639 -0.5898  0.1396  0.4684
   21CHL1  H24A 1543   4.690   2.554   4.638 -0.2076  0.8185 -2.6979
   21CHL1  H24B 1544   4.850   2.514   4.722 -1.9695 -0.9021  1.9597
   21CHL1   C25 1545   4.852   2.473   4.508 -0.2062  0.0211  0.5500
   21CHL1   H25 1546   4.907   2.377   4.499  1.8846  1.3573 -2.9768
   21CHL1   C26 1547   4.751   2.482   4.395 -0.2014  0.1062 -0.3120
   21CHL1  H26A 1548   4.813   2.496   4.304  0.8520 -0.5825  0.2889
   21CHL1  H26B 1549   4.676   2.400   4.390  0.3586 -0.4702  0.3736
   21CHL1  H26C 1550   4.682   2.567   4.412 -0.7081 -0.4139  0.3127
   21CHL1   C27 1551   4.958   2.585   4.496  0.4454 -0.4164  0.3021
   21CHL1  H27A 1552   5.038   2.568   4.571  0.6765  2.0158  0.7041
   21CHL1  H27B 1553   5.021   2.589   4.405  1.3297 -0.5210  0.8863
   21CHL1  H27C 1554   4.916   2.687   4.507 -2.1536 -1.1754 -1.5809
   22CHL1    C3 1555   5.110   6.314   6.019 -0.4935 -0.4549  0.0646
   22CHL1    H3 1556   5.074   6.412   5.982 -0.7040 -0.5335  0.0592
   22CHL1    O3 1557   5.111   6.320   6.164  0.4692  0.6157  0.4464
   22CHL1   H3' 1558   5.120   6.413   6.186 -2.3424  0.6567  1.8899
   22CHL1    C4 1559   5.020   6.199   5.972  0.1945  0.2965  0.3699
   22CHL1   H4A 1560   5.054   6.109   6.029  2.4646 -2.2341 -4.3920
   22CHL1   H4B 1561   4.921   6.237   6.004  0.4984  0.7303  0.8075
   22CHL1    C5 1562   5.025   6.147   5.830 -0.5035 -0.3373 -0.4000
   22CHL1    C6 1563   4.915   6.140   5.764  1.0531 -0.5083 -0.1656
   22CHL1    H6 1564   4.820   6.166   5.813 -0.2646  1.2845 -3.3776
   22CHL1    C7 1565   4.899   6.096   5.620 -0.3290  0.5086  1.3992
   22CHL1   H7A 1566   4.828   6.011   5.610  1.2629 -0.9800  2.2767
   22CHL1   H7B 1567   4.870   6.183   5.557  1.6941 -1.1478 -2.1417
   22CHL1    C8 1568   5.029   6.040   5.559 -0.4167  0.8025  0.5644
   22CHL1    H8 1569   5.030   5.931   5.580  0.2106  0.4504 -1.1654
   22CHL1   C14 1570   5.030   6.035   5.408  0.4163 -0.8393  0.3067
   22CHL1   H14 1571   5.013   6.139   5.372  1.0988 -0.8298 -0.0070
   22CHL1   C15 1572   4.918   5.957   5.338  0.1384  0.0289  0.1747
   22CHL1  H15A 1573   4.895   5.866   5.397 -0.9912 -0.1094 -0.4527
   22CHL1  H15B 1574   4.825   6.018   5.333  1.5373  2.1942 -1.1846
   22CHL1   C16 1575   4.976   5.942   5.191  0.3972 -0.0030  0.4722
   22CHL1  H16A 1576   4.974   5.836   5.157  2.2313  0.1871 -0.3533
   22CHL1  H16B 1577   4.913   6.007   5.125  2.5619  1.9422  0.2100
   22CHL1   C17 1578   5.116   6.002   5.188 -0.6274  0.5005  0.6837
   22CHL1   H17 1579   5.098   6.109   5.162 -3.1983 -0.1130 -0.4444
   22CHL1   C13 1580   5.162   5.991   5.336 -0.7213 -0.8833  0.3921
   22CHL1   C18 1581   5.194   5.848   5.370 -0.0007  0.4332 -0.1163
   22CHL1  H18A 1582   5.182   5.841   5.480 -4.2722  1.4562 -0.3219
   22CHL1  H18B 1583   5.119   5.778   5.326 -1.1963  0.1851  2.1507
   22CHL1  H18C 1584   5.296   5.813   5.342  0.4451  1.6670 -0.0774
   22CHL1   C12 1585   5.262   6.093   5.388  0.4037 -0.1022  0.1300
   22CHL1  H12A 1586   5.367   6.090   5.350 -0.3129 -2.5276 -1.8872
   22CHL1  H12B 1587   5.223   6.193   5.361  0.0964 -0.5548 -1.1528
   22CHL1   C11 1588   5.288   6.097   5.536  0.4693 -0.1866 -0.3632
   22CHL1  H11A 1589   5.325   6.003   5.581  0.3314 -0.6919 -1.2677
   22CHL1  H11B 1590   5.359   6.176   5.569 -0.2590  0.2301  0.2483
   22CHL1    C9 1591   5.148   6.129   5.606 -1.4610  0.2998  0.2868
   22CHL1    H9 1592   5.132   6.232   5.570  1.0154 -0.2948 -2.9477
   22CHL1   C10 1593   5.162   6.136   5.764 -0.3377 -1.1179  0.1156
   22CHL1   C19 1594   5.211   6.008   5.830 -0.1225 -0.1480 -0.2781
   22CHL1  H19A 1595   5.136   5.930   5.809  0.0262 -1.1182  2.3670
   22CHL1  H19B 1596   5.313   5.990   5.791  0.6782  0.6319  1.3364
   22CHL1  H19C 1597   5.217   6.010   5.941 -1.7611  0.9899 -0.1677
   22CHL1    C1 1598   5.245   6.258   5.812  0.3066  0.1721  0.9944
   22CHL1   H1A 1599   5.351   6.241   5.785 -0.2292  0.4299 -1.5592
   22CHL1   H1B 1600   5.202   6.345   5.757 -0.6267 -1.9484 -1.8653
   22CHL1    C2 1601   5.250   6.282   5.963  0.1894 -0.0235  0.0835
   22CHL1   H2A 1602   5.318   6.370   5.968 -0.4149  0.5401 -1.1787
   22CHL1   H2B 1603   5.294   6.191   6.009  1.3822  0.6616  0.3283
   22CHL1   C20 1604   5.204   5.943   5.082  0.0526 -0.0983 -0.3600
   22CHL1   H20 1605   5.207   5.838   5.118 -0.9829  0.4336  1.3799
   22CHL1   C21 1606   5.347   6.003   5.076  0.0781  0.7608  0.2958
   22CHL1  H21A 1607   5.341   6.114   5.077  0.9018  0.8154  1.3701
   22CHL1  H21B 1608   5.397   5.977   4.980  0.5286  1.6000  0.2882
   22CHL1  H21C 1609   5.409   5.961   5.158 -2.2069  0.2639  1.8613
   22CHL1   C22 1610   5.151   5.931   4.938 -0.1707  0.2388  0.3144
   22CHL1  H22A 1611   5.204   5.861   4.870 -0.8799  0.5007 -0.5379
   22CHL1  H22B 1612   5.048   5.890   4.932  0.6332 -1.7598 -0.8573
   22CHL1   C23 1613   5.147   6.068   4.871  1.2121 -0.0926  0.1657
   22CHL1  H23A 1614   5.110   6.136   4.951  0.5124  0.9656 -1.0254
   22CHL1  H23B 1615   5.248   6.103   4.843  0.5869 -0.3712 -2.7041
   22CHL1   C24 1616   5.048   6.066   4.748  0.1114 -0.5654 -0.1116
   22CHL1  H24A 1617   4.954   6.044   4.803  0.7067 -0.8201  0.8326
   22CHL1  H24B 1618   5.040   6.168   4.704  0.2217  0.2729  1.6951
   22CHL1   C25 1619   5.070   5.963   4.640 -0.3131  1.1318  1.2447
   22CHL1   H25 1620   5.083   5.865   4.692  0.1522 -0.9814 -2.5189
   22CHL1   C26 1621   4.951   5.940   4.552  0.9580 -0.9530 -0.0961
   22CHL1  H26A 1622   4.968   5.876   4.462  0.2398  0.6558 -1.4266
   22CHL1  H26B 1623   4.861   5.899   4.602 -0.3819 -2.3310 -3.3604
   22CHL1  H26C 1624   4.915   6.029   4.496  1.9478 -1.4159 -1.5281
   22CHL1   C27 1625   5.188   5.996   4.553  0.3416  0.5341  0.1585
   22CHL1  H27A 1626   5.211   5.912   4.484 -0.5106  0.6248 -0.2563
   22CHL1  H27B 1627   5.164   6.085   4.491  0.0059  0.0667 -0.3959
   22CHL1  H27C 1628   5.273   6.029   4.616  0.8409 -1.2575  0.4583
   23CHL1    C3 1629   6.348   3.203   5.882 -0.0483 -0.0391 -0.1538
   23CHL1    H3 1630   6.319   3.102   5.845 -1.8934  1.2555 -2.4783
   23CHL1    O3 1631   6.321   3.185   6.018 -0.3511 -0.5479  0.2118
   23CHL1   H3' 1632   6.359   3.265   6.053 -2.3316  0.2836  0.5880
   23CHL1    C4 1633   6.497   3.221   5.851 -0.4815 -0.1518 -0.0421
   23CHL1   H4A 1634   6.533   3.316   5.896 -2.6004  0.1009  1.2810
   23CHL1   H4B 1635   6.548   3.147   5.916 -1.9249  0.0106  1.3523
   23CHL1    C5 1636   6.531   3.208   5.702 -0.0463 -0.3288 -0.1473
   23CHL1    C6 1637   6.625   3.127   5.650  0.2083  0.4268 -0.3455
   23CHL1    H6 1638   6.685   3.070   5.722 -1.5540  1.5190  2.1142
   23CHL1    C7 1639   6.655   3.109   5.505  0.3191  0.0574 -0.1133
   23CHL1   H7A 1640   6.763   3.119   5.479 -0.2450  0.7417 -2.4180
   23CHL1   H7B 1641   6.627   3.012   5.460 -0.8892  0.4317 -0.2112
   23CHL1    C8 1642   6.594   3.222   5.422 -0.5204  0.3496  0.2449
   23CHL1    H8 1643   6.648   3.314   5.452 -0.5230  0.4555 -0.0683
   23CHL1   C14 1644   6.612   3.192   5.273  0.1697 -0.5479 -0.0883
   23CHL1   H14 1645   6.549   3.101   5.261 -0.2582 -0.0673 -1.7428
   23CHL1   C15 1646   6.747   3.139   5.215  0.0001  0.0854 -0.1427
   23CHL1  H15A 1647   6.832   3.201   5.251 -2.0170  2.5017  0.7608
   23CHL1  H15B 1648   6.755   3.033   5.248 -0.9040  0.6717  2.1953
   23CHL1   C16 1649   6.730   3.152   5.067 -0.3024  0.4818  0.2756
   23CHL1  H16A 1650   6.824   3.208   5.049 -1.9782  4.0432  1.5549
   23CHL1  H16B 1651   6.731   3.052   5.019 -0.6341  0.9685 -0.8006
   23CHL1   C17 1652   6.600   3.234   5.048  1.4514 -0.0163 -0.0783
   23CHL1   H17 1653   6.521   3.155   5.046  2.5744 -1.3139  2.4691
   23CHL1   C13 1654   6.567   3.297   5.178 -0.3324 -0.9841 -0.0856
   23CHL1   C18 1655   6.642   3.428   5.199  0.5114 -0.3403 -0.0682
   23CHL1  H18A 1656   6.606   3.514   5.140  1.1871 -0.3351 -0.4838
   23CHL1  H18B 1657   6.636   3.472   5.301 -2.5826 -0.4099 -0.1287
   23CHL1  H18C 1658   6.749   3.405   5.177  1.1958 -0.0361  2.5471
   23CHL1   C12 1659   6.417   3.325   5.210 -0.1338  1.0858 -0.0430
   23CHL1  H12A 1660   6.375   3.399   5.138  0.8568  1.5593 -0.1523
   23CHL1  H12B 1661   6.357   3.235   5.183  0.1090 -0.2407  3.3252
   23CHL1   C11 1662   6.382   3.359   5.360  1.1224  0.2394  0.5312
   23CHL1  H11A 1663   6.414   3.465   5.370 -0.3554  0.8870 -0.9990
   23CHL1  H11B 1664   6.274   3.367   5.386  0.9933 -1.7080  0.7363
   23CHL1    C9 1665   6.445   3.255   5.457 -0.7600  0.1149  0.5588
   23CHL1    H9 1666   6.391   3.159   5.441  0.4541 -0.7360  1.4109
   23CHL1   C10 1667   6.433   3.284   5.611  0.0467 -0.3099 -0.2654
   23CHL1   C19 1668   6.480   3.432   5.630  0.3718 -0.1694  0.3511
   23CHL1  H19A 1669   6.587   3.446   5.603  0.3503  0.8779  0.7377
   23CHL1  H19B 1670   6.419   3.500   5.567 -1.4458 -1.1695  0.9613
   23CHL1  H19C 1671   6.457   3.471   5.732  0.3075 -0.6722  0.5291
   23CHL1    C1 1672   6.281   3.271   5.650  0.8000  0.6114 -0.7317
   23CHL1   H1A 1673   6.208   3.334   5.593 -2.1818 -0.4104  1.6838
   23CHL1   H1B 1674   6.249   3.167   5.627  0.9740  0.1727  0.9028
   23CHL1    C2 1675   6.260   3.303   5.804  0.4419  0.4091 -0.3769
   23CHL1   H2A 1676   6.154   3.276   5.819  0.7211 -0.1508  0.6494
   23CHL1   H2B 1677   6.273   3.405   5.845 -1.8052  1.1696 -1.4029
   23CHL1   C20 1678   6.578   3.320   4.917 -0.8368 -0.8427 -0.7393
   23CHL1   H20 1679   6.500   3.392   4.948 -1.5916 -1.7663 -0.4324
   23CHL1   C21 1680   6.508   3.229   4.821 -0.0172 -0.0681  0.0362
   23CHL1  H21A 1681   6.479   3.284   4.729  1.1857  1.6579  0.6412
   23CHL1  H21B 1682   6.410   3.202   4.865  0.3823 -3.2525 -0.7260
   23CHL1  H21C 1683   6.570   3.140   4.795 -1.2314 -1.6435  2.2187
   23CHL1   C22 1684   6.711   3.368   4.852  0.5127  0.3627 -0.0963
   23CHL1  H22A 1685   6.752   3.438   4.928 -0.1253 -1.8861  2.4882
   23CHL1  H22B 1686   6.765   3.275   4.824 -4.7281 -2.5293 -2.1201
   23CHL1   C23 1687   6.690   3.450   4.723  0.1334 -0.1004 -0.0110
   23CHL1  H23A 1688   6.648   3.387   4.641 -0.9584  1.5610 -0.7928
   23CHL1  H23B 1689   6.607   3.521   4.743  0.7875  0.5463  0.4645
   23CHL1   C24 1690   6.807   3.533   4.676  0.6524  0.3404  0.0669
   23CHL1  H24A 1691   6.766   3.600   4.598 -1.9464 -2.4894 -1.2116
   23CHL1  H24B 1692   6.849   3.587   4.764  3.1223 -0.1372 -0.7509
   23CHL1   C25 1693   6.914   3.450   4.620  0.0671  0.0697  0.5747
   23CHL1   H25 1694   6.928   3.365   4.690 -0.4679 -1.0705 -0.6792
   23CHL1   C26 1695   6.894   3.404   4.466 -0.0472  0.0346  0.2987
   23CHL1  H26A 1696   6.977   3.334   4.440  0.8096  0.5724  1.5073
   23CHL1  H26B 1697   6.792   3.360   4.467 -0.1140  0.1895  0.3175
   23CHL1  H26C 1698   6.895   3.479   4.384  0.0453 -1.5279 -1.1829
   23CHL1   C27 1699   7.046   3.538   4.625  0.6870 -0.2618 -0.2483
   23CHL1  H27A 1700   7.068   3.570   4.729 -0.4773  1.6724 -0.5574
   23CHL1  H27B 1701   7.135   3.476   4.598 -0.9432 -2.4854 -0.8076
   23CHL1  H27C 1702   7.031   3.629   4.563  1.3302  0.9866  1.3579
   24CHL1    C3 1703   3.129   6.586   5.942  0.2308  0.7058  0.3868
   24CHL1    H3 1704   3.020   6.607   5.936 -0.2067 -1.3049  0.3319
   24CHL1    O3 1705   3.139   6.514   6.062 -0.2842 -0.6302  0.3274
   24CHL1   H3' 1706   3.232   6.522   6.087  0.1730 -2.2934 -0.6782
   24CHL1    C4 1707   3.150   6.482   5.828 -0.1324  0.0211 -0.3091
   24CHL1   H4A 1708   3.240   6.418   5.838 -1.3716 -1.7786 -0.2415
   24CHL1   H4B 1709   3.075   6.402   5.841 -0.6838  0.6089  0.2184
   24CHL1    C5 1710   3.142   6.546   5.689  0.8148 -0.2428 -0.7437
   24CHL1    C6 1711   3.057   6.511   5.598 -0.3699 -0.5318  0.2258
   24CHL1    H6 1712   3.001   6.420   5.625  0.2575 -0.3836  2.1747
   24CHL1    C7 1713   3.052   6.578   5.461  0.0187  0.4274 -0.0953
   24CHL1   H7A 1714   3.048   6.501   5.381  1.2690 -0.5243  0.7011
   24CHL1   H7B 1715   2.973   6.656   5.457  0.6663  1.0485 -1.2349
   24CHL1    C8 1716   3.187   6.654   5.424  0.1328 -0.1563 -0.2181
   24CHL1    H8 1717   3.272   6.584   5.406  0.2021 -0.5278  1.4244
   24CHL1   C14 1718   3.170   6.736   5.296 -0.5581  0.1776 -0.0256
   24CHL1   H14 1719   3.102   6.824   5.307 -1.1641 -0.2519 -0.2915
   24CHL1   C15 1720   3.099   6.666   5.176  0.2008 -0.1592  0.3756
   24CHL1  H15A 1721   3.138   6.563   5.166  2.1509  0.7068 -2.0647
   24CHL1  H15B 1722   2.988   6.662   5.178  0.2402 -3.1589  1.2120
   24CHL1   C16 1723   3.154   6.747   5.056  0.2805  0.1983  0.3300
   24CHL1  H16A 1724   3.215   6.688   4.985 -0.6116  1.1222 -1.2477
   24CHL1  H16B 1725   3.072   6.793   4.997  0.4500  0.7313  0.4962
   24CHL1   C17 1726   3.248   6.862   5.110 -0.3196 -0.4375 -0.3600
   24CHL1   H17 1727   3.178   6.943   5.140  0.3264  0.4547 -1.2014
   24CHL1   C13 1728   3.301   6.801   5.247  0.1786  0.3342 -0.0057
   24CHL1   C18 1729   3.411   6.700   5.198 -0.4561 -0.1039 -0.4830
   24CHL1  H18A 1730   3.457   6.642   5.282  0.3445 -0.5116 -1.1840
   24CHL1  H18B 1731   3.373   6.622   5.130 -0.2350  0.2443 -1.0138
   24CHL1  H18C 1732   3.492   6.761   5.151 -1.9566  3.3130  1.0529
   24CHL1   C12 1733   3.340   6.905   5.353  0.3662  0.5545  0.0217
   24CHL1  H12A 1734   3.440   6.952   5.339  0.5468  0.4566  0.9140
   24CHL1  H12B 1735   3.262   6.984   5.360 -0.3380 -0.0061 -1.2276
   24CHL1   C11 1736   3.354   6.823   5.490 -0.8221 -0.3403  0.8621
   24CHL1  H11A 1737   3.444   6.757   5.486  0.2341  1.0172  1.5447
   24CHL1  H11B 1738   3.374   6.900   5.567 -1.4169  2.0155 -1.1964
   24CHL1    C9 1739   3.232   6.741   5.534 -0.2794 -0.1467 -0.2720
   24CHL1    H9 1740   3.144   6.806   5.554  0.0274  0.4404 -0.8024
   24CHL1   C10 1741   3.244   6.664   5.671  0.4388 -0.0334  0.0698
   24CHL1   C19 1742   3.387   6.599   5.676 -0.1875  0.5752 -0.1366
   24CHL1  H19A 1743   3.410   6.525   5.596  3.8267 -1.3181  2.4396
   24CHL1  H19B 1744   3.463   6.679   5.680 -0.9753  1.3537 -0.3225
   24CHL1  H19C 1745   3.406   6.547   5.773  0.6143  4.4010  1.9396
   24CHL1    C1 1746   3.216   6.771   5.787  0.1539  0.7604  0.0166
   24CHL1   H1A 1747   3.300   6.843   5.791  1.3637 -0.6524  1.4754
   24CHL1   H1B 1748   3.116   6.817   5.773  0.1187  0.7217  0.1374
   24CHL1    C2 1749   3.219   6.709   5.926  0.5054  0.8669  0.8156
   24CHL1   H2A 1750   3.200   6.791   6.000  0.0295 -0.0726  1.7641
   24CHL1   H2B 1751   3.319   6.665   5.945  0.1696  0.4688  1.7627
   24CHL1   C20 1752   3.339   6.925   5.003  0.2497 -0.4869  0.7283
   24CHL1   H20 1753   3.393   6.843   4.950  0.3324 -0.4413  0.7425
   24CHL1   C21 1754   3.452   7.021   5.050  0.6782  0.3585 -0.0946
   24CHL1  H21A 1755   3.503   6.992   5.144  1.1313 -0.3684 -0.5513
   24CHL1  H21B 1756   3.409   7.123   5.060  0.8857  0.4657 -0.2901
   24CHL1  H21C 1757   3.534   7.032   4.976 -0.8095  1.0354 -1.7180
   24CHL1   C22 1758   3.257   6.995   4.895 -0.0621  0.1291 -0.0763
   24CHL1  H22A 1759   3.162   6.942   4.873 -0.9402  0.6865  2.0779
   24CHL1  H22B 1760   3.212   7.088   4.936 -0.2167  0.7512 -1.6149
   24CHL1   C23 1761   3.331   7.032   4.770 -0.2908  0.4866  0.0274
   24CHL1  H23A 1762   3.398   7.117   4.794 -0.4690  0.6691 -0.1211
   24CHL1  H23B 1763   3.402   6.950   4.746 -1.8171 -0.7846 -0.2867
   24CHL1   C24 1764   3.237   7.052   4.644  0.0249 -0.0638  0.0086
   24CHL1  H24A 1765   3.185   6.956   4.622 -1.0439  0.3044  0.8190
   24CHL1  H24B 1766   3.163   7.129   4.673 -0.1587 -1.2296  2.9806
   24CHL1   C25 1767   3.312   7.093   4.517  0.0447 -0.6329  0.1020
   24CHL1   H25 1768   3.243   7.081   4.432 -1.0632  0.9741  0.7227
   24CHL1   C26 1769   3.343   7.246   4.515  0.0188 -0.1159  0.1527
   24CHL1  H26A 1770   3.395   7.275   4.421  2.9122 -1.0042  1.3782
   24CHL1  H26B 1771   3.258   7.317   4.520  1.7733  2.0445  0.7512
   24CHL1  H26C 1772   3.404   7.264   4.606 -0.5140 -1.1405  0.7392
   24CHL1   C27 1773   3.439   7.010   4.495 -0.4011 -0.2670 -0.5086
   24CHL1  H27A 1774   3.501   7.030   4.405  0.4676  1.0326  0.3502
   24CHL1  H27B 1775   3.510   7.037   4.577  2.7780 -1.7296 -2.5510
   24CHL1  H27C 1776   3.422   6.901   4.514 -0.6734  0.1059  1.6624
   25CHL1    C3 1777   3.607   3.132   5.838  0.2073  0.1781 -0.0093
   25CHL1    H3 1778   3.717   3.116   5.839  0.2116  0.1743 -0.2640
   25CHL1    O3 1779   3.558   3.182   5.960  0.9102  0.6056 -0.1653
   25CHL1   H3' 1780   3.592   3.116   6.022 -1.0133 -0.3373 -0.0568
   25CHL1    C4 1781   3.580   3.239   5.727  0.0651 -0.4584 -0.3522
   25CHL1   H4A 1782   3.476   3.271   5.752 -0.4155 -1.0435 -1.5224
   25CHL1   H4B 1783   3.650   3.320   5.756  0.8346 -1.6406  1.2422
   25CHL1    C5 1784   3.596   3.192   5.581  0.0114  0.0504 -0.6043
   25CHL1    C6 1785   3.688   3.249   5.498 -0.2868 -0.3035 -0.1217
   25CHL1    H6 1786   3.737   3.342   5.531 -0.5247 -0.3278  0.3039
   25CHL1    C7 1787   3.693   3.206   5.355  0.0069 -0.6660 -0.0606
   25CHL1   H7A 1788   3.670   3.297   5.296 -1.9837 -2.4738 -2.2280
   25CHL1   H7B 1789   3.794   3.180   5.316 -0.8170  0.2422 -3.0542
   25CHL1    C8 1790   3.578   3.115   5.304  0.9564 -0.6080  1.1896
   25CHL1    H8 1791   3.488   3.179   5.297  1.5558  0.2274  0.8492
   25CHL1   C14 1792   3.610   3.049   5.168  0.0263 -0.3454 -0.5152
   25CHL1   H14 1793   3.701   2.987   5.178  1.5818  1.6352 -1.6528
   25CHL1   C15 1794   3.663   3.144   5.053  0.3123 -0.0114  0.3838
   25CHL1  H15A 1795   3.609   3.240   5.045 -0.8713 -0.6450  0.5542
   25CHL1  H15B 1796   3.774   3.149   5.064  0.4515  0.6280 -1.0304
   25CHL1   C16 1797   3.625   3.065   4.923  0.1116  0.0611 -0.3986
   25CHL1  H16A 1798   3.551   3.121   4.863 -0.1117  0.1534 -0.0426
   25CHL1  H16B 1799   3.716   3.043   4.863 -1.1705  1.1514 -2.8858
   25CHL1   C17 1800   3.552   2.939   4.974  0.6862  1.0522  0.4621
   25CHL1   H17 1801   3.635   2.869   4.995  0.0558 -0.2174 -1.0316
   25CHL1   C13 1802   3.493   2.974   5.114 -0.4367  0.0162  0.3021
   25CHL1   C18 1803   3.363   3.057   5.085  0.1289 -0.0270  0.0045
   25CHL1  H18A 1804   3.377   3.137   5.009  0.2887  0.0487  0.1124
   25CHL1  H18B 1805   3.279   2.991   5.055  0.4432 -0.1005 -0.7506
   25CHL1  H18C 1806   3.314   3.103   5.173 -3.0292 -1.7533 -0.7129
   25CHL1   C12 1807   3.473   2.854   5.207 -0.1730  0.5499 -0.3989
   25CHL1  H12A 1808   3.393   2.782   5.178 -0.7211  0.9937  0.0066
   25CHL1  H12B 1809   3.561   2.786   5.216 -0.3142  0.4777  0.5914
   25CHL1   C11 1810   3.444   2.909   5.352 -0.3101  0.3598 -0.3931
   25CHL1  H11A 1811   3.350   2.965   5.333  0.1089  1.6415  1.0164
   25CHL1  H11B 1812   3.429   2.822   5.420 -1.3791  0.7286 -0.1433
   25CHL1    C9 1813   3.550   3.007   5.407 -0.2930 -0.6113 -0.1199
   25CHL1    H9 1814   3.644   2.951   5.421  0.1613  0.3450  0.8754
   25CHL1   C10 1815   3.514   3.063   5.549 -0.2254 -0.1610  0.0689
   25CHL1   C19 1816   3.363   3.087   5.567  0.0878  0.7524  0.0395
   25CHL1  H19A 1817   3.333   3.127   5.666 -1.9683 -1.6695  0.4985
   25CHL1  H19B 1818   3.316   3.145   5.484 -1.4576 -1.0371 -0.4152
   25CHL1  H19C 1819   3.321   2.984   5.570  2.3208 -0.1848  2.8321
   25CHL1    C1 1820   3.561   2.963   5.658  0.0411 -0.0097 -0.7801
   25CHL1   H1A 1821   3.507   2.872   5.625 -2.1078  0.7194  0.5427
   25CHL1   H1B 1822   3.669   2.942   5.637 -0.0003 -0.7675 -0.2561
   25CHL1    C2 1823   3.534   3.000   5.803 -0.1235  0.7957 -0.1554
   25CHL1   H2A 1824   3.561   2.915   5.868 -0.2230  1.9528  1.4743
   25CHL1   H2B 1825   3.426   3.025   5.807  0.3342  3.3074 -1.4104
   25CHL1   C20 1826   3.464   2.879   4.861 -0.6708  0.1500 -0.1144
   25CHL1   H20 1827   3.388   2.956   4.835  0.4409  1.5875  0.7941
   25CHL1   C21 1828   3.389   2.754   4.910  0.3084 -0.1438 -0.6558
   25CHL1  H21A 1829   3.468   2.693   4.958  0.4078  1.0244  0.7570
   25CHL1  H21B 1830   3.339   2.693   4.833  1.0799 -0.3893 -0.9674
   25CHL1  H21C 1831   3.314   2.789   4.985  2.3115  1.8976  0.5463
   25CHL1   C22 1832   3.544   2.855   4.731 -0.0292 -0.5148  0.5012
   25CHL1  H22A 1833   3.462   2.800   4.680 -0.8027  1.9520 -1.0855
   25CHL1  H22B 1834   3.571   2.952   4.685  0.1062 -0.0192  1.5854
   25CHL1   C23 1835   3.669   2.772   4.737  0.7428  0.9023  0.0322
   25CHL1  H23A 1836   3.753   2.833   4.775  0.9403  0.9366 -0.4532
   25CHL1  H23B 1837   3.646   2.683   4.800  1.1417  0.7412 -0.0442
   25CHL1   C24 1838   3.707   2.726   4.596  0.4167 -0.2278 -0.4277
   25CHL1  H24A 1839   3.621   2.675   4.546 -0.2884  1.0841 -0.6099
   25CHL1  H24B 1840   3.743   2.809   4.532 -0.2945  0.1099 -0.3965
   25CHL1   C25 1841   3.820   2.620   4.592 -0.0864  0.2626 -0.2720
   25CHL1   H25 1842   3.792   2.556   4.678  0.8426  0.8872  0.5132
   25CHL1   C26 1843   3.816   2.537   4.463 -0.1332  0.6752 -0.0050
   25CHL1  H26A 1844   3.890   2.455   4.477  1.1185  2.0141  1.6414
   25CHL1  H26B 1845   3.725   2.482   4.432  1.2898 -1.9782  0.1840
   25CHL1  H26C 1846   3.837   2.612   4.384  0.3870  1.2107  0.6282
   25CHL1   C27 1847   3.958   2.694   4.603  0.0916 -0.6096 -0.1893
   25CHL1  H27A 1848   4.041   2.620   4.614 -0.3797 -1.0185  0.7851
   25CHL1  H27B 1849   3.967   2.755   4.511  2.6522  0.8317  0.9184
   25CHL1  H27C 1850   3.958   2.754   4.696  1.7516  1.2218 -1.2957
   26CHL1    C3 1851   0.961   5.533   5.852 -0.6779  0.2795 -0.0595
   26CHL1    H3 1852   0.996   5.634   5.882  0.5100 -0.2227  0.3365
   26CHL1    O3 1853   0.924   5.463   5.973  0.2354  0.2166 -0.3316
   26CHL1   H3' 1854   0.899   5.376   5.940  0.8783 -0.1844  0.2195
   26CHL1    C4 1855   0.846   5.560   5.752 -0.8385 -0.2844 -0.3969
   26CHL1   H4A 1856   0.777   5.473   5.752 -1.9593  0.5739  0.7106
   26CHL1   H4B 1857   0.787   5.640   5.802  0.0110 -0.8125  1.5441
   26CHL1    C5 1858   0.894   5.596   5.613  1.0350  0.8675 -0.6388
   26CHL1    C6 1859   0.845   5.702   5.549 -0.1584  0.0941  0.3913
   26CHL1    H6 1860   0.781   5.773   5.605  0.0908  0.8328 -0.2371
   26CHL1    C7 1861   0.873   5.727   5.403  0.2891 -0.1652 -0.8863
   26CHL1   H7A 1862   0.785   5.769   5.349 -0.9652  1.0822  1.8799
   26CHL1   H7B 1863   0.948   5.808   5.396  0.5265 -0.3183 -0.2579
   26CHL1    C8 1864   0.944   5.612   5.329 -0.5287 -0.2103  0.5734
   26CHL1    H8 1865   0.878   5.526   5.305  1.7617 -2.0355  0.4586
   26CHL1   C14 1866   0.999   5.679   5.201  0.0987  0.3185 -0.0294
   26CHL1   H14 1867   1.081   5.750   5.226  2.2974 -1.0058 -2.9265
   26CHL1   C15 1868   0.906   5.758   5.100 -0.5684  0.4071  0.5594
   26CHL1  H15A 1869   0.811   5.702   5.094  0.5476 -1.6251  0.7868
   26CHL1  H15B 1870   0.894   5.861   5.140 -0.2103  1.1615 -1.1761
   26CHL1   C16 1871   0.985   5.764   4.974  0.3634  0.0230  0.3000
   26CHL1  H16A 1872   0.925   5.706   4.901 -0.4311 -0.8108  1.5790
   26CHL1  H16B 1873   0.984   5.864   4.926 -1.2423  0.1744  0.5804
   26CHL1   C17 1874   1.123   5.693   4.999  0.7839  0.3907  0.5695
   26CHL1   H17 1875   1.191   5.761   5.055  0.5415  1.4453 -0.3806
   26CHL1   C13 1876   1.089   5.586   5.113  0.0052 -0.6422  0.0375
   26CHL1   C18 1877   1.002   5.474   5.058 -0.3294 -0.2120 -0.6032
   26CHL1  H18A 1878   1.074   5.409   5.004 -0.1742  0.1097 -0.7831
   26CHL1  H18B 1879   0.949   5.409   5.131 -0.7133 -0.5938 -1.2171
   26CHL1  H18C 1880   0.925   5.500   4.983  0.1527  0.5355 -0.8397
   26CHL1   C12 1881   1.205   5.541   5.197  0.1388 -0.1417  0.3335
   26CHL1  H12A 1882   1.278   5.482   5.138  0.6610 -1.2483  2.0073
   26CHL1  H12B 1883   1.257   5.635   5.226 -1.3011  1.6636 -2.5351
   26CHL1   C11 1884   1.161   5.472   5.331 -0.3079 -0.1302  0.3974
   26CHL1  H11A 1885   1.127   5.373   5.294 -0.5453 -0.3818  1.2853
   26CHL1  H11B 1886   1.252   5.458   5.393  0.4179  0.6481 -0.4488
   26CHL1    C9 1887   1.061   5.560   5.408  0.0195 -0.6648  0.3026
   26CHL1    H9 1888   1.131   5.645   5.423  0.4086 -0.7154 -1.0895
   26CHL1   C10 1889   1.005   5.510   5.555 -0.6190  0.7028  1.0972
   26CHL1   C19 1890   0.937   5.374   5.527  0.0137  0.0502  0.4767
   26CHL1  H19A 1891   1.008   5.310   5.470  1.6696  2.2590 -0.0556
   26CHL1  H19B 1892   0.908   5.315   5.617  0.2799 -0.9643 -0.0808
   26CHL1  H19C 1893   0.843   5.383   5.467 -0.1747 -0.4539  0.6875
   26CHL1    C1 1894   1.126   5.492   5.658  0.0496 -0.0960 -0.0918
   26CHL1   H1A 1895   1.193   5.416   5.613  1.7655  0.7558  0.9153
   26CHL1   H1B 1896   1.183   5.587   5.662  1.2996 -0.8273  3.2595
   26CHL1    C2 1897   1.084   5.454   5.803  0.4525  0.2135 -0.0167
   26CHL1   H2A 1898   1.172   5.460   5.871  0.0481  1.0157  0.4603
   26CHL1   H2B 1899   1.044   5.352   5.789  0.7293 -0.3332  2.6527
   26CHL1   C20 1900   1.194   5.632   4.873 -0.5422 -0.7358 -0.0422
   26CHL1   H20 1901   1.242   5.537   4.905 -3.2972 -2.4073 -0.5387
   26CHL1   C21 1902   1.299   5.748   4.838 -0.0221 -0.6932  0.2287
   26CHL1  H21A 1903   1.375   5.717   4.763  0.8912 -1.6152  1.4855
   26CHL1  H21B 1904   1.350   5.777   4.932  1.9092 -3.6412  0.2359
   26CHL1  H21C 1905   1.239   5.831   4.796 -0.4161 -0.5326  1.0978
   26CHL1   C22 1906   1.104   5.597   4.758 -0.3832  0.1753  0.0160
   26CHL1  H22A 1907   1.031   5.520   4.792 -0.8533  0.1466 -1.0090
   26CHL1  H22B 1908   1.048   5.683   4.715  1.4995  0.9369 -0.9972
   26CHL1   C23 1909   1.188   5.537   4.641 -0.2404  0.2448 -0.3115
   26CHL1  H23A 1910   1.239   5.618   4.585  0.4814  1.0295  1.4121
   26CHL1  H23B 1911   1.260   5.462   4.680  1.3103  1.3248 -0.9996
   26CHL1   C24 1912   1.096   5.481   4.537 -0.3359  0.1018 -0.8128
   26CHL1  H24A 1913   1.008   5.435   4.588 -0.0702  1.5125  1.0569
   26CHL1  H24B 1914   1.051   5.567   4.482  0.9411  2.3070  1.3377
   26CHL1   C25 1915   1.162   5.381   4.453 -0.3816 -0.0920  0.1946
   26CHL1   H25 1916   1.268   5.403   4.426 -0.6675  0.5160 -0.4536
   26CHL1   C26 1917   1.199   5.245   4.524 -0.3054  0.4151  0.3860
   26CHL1  H26A 1918   1.266   5.185   4.459 -3.8708 -0.3974 -2.9276
   26CHL1  H26B 1919   1.257   5.276   4.613  1.9365  2.9009 -1.7739
   26CHL1  H26C 1920   1.111   5.184   4.555 -1.1239  1.6043  0.4584
   26CHL1   C27 1921   1.062   5.346   4.339  0.0074  0.3066  0.5815
   26CHL1  H27A 1922   1.046   5.445   4.293 -0.6203  1.0399  2.2988
   26CHL1  H27B 1923   1.101   5.268   4.270 -1.3759 -1.2326  1.4575
   26CHL1  H27C 1924   0.968   5.315   4.389 -0.5082 -0.4755 -0.8098
   27CHL1    C3 1925   4.035   5.892   5.780 -0.1388  0.2873 -0.4652
   27CHL1    H3 1926   4.145   5.894   5.766  0.4895 -1.0978  3.1582
   27CHL1    O3 1927   4.010   5.879   5.920 -0.4146 -0.2147 -0.2110
   27CHL1   H3' 1928   4.037   5.959   5.967  1.4064 -1.1294  0.3872
   27CHL1    C4 1929   3.978   6.026   5.733  0.1983 -0.6688 -0.1621
   27CHL1   H4A 1930   3.867   6.024   5.740  0.0904  0.0182 -1.4807
   27CHL1   H4B 1931   4.012   6.106   5.803 -1.2973 -0.8607  0.8461
   27CHL1    C5 1932   4.020   6.054   5.592  0.3317 -0.1924  0.1328
   27CHL1    C6 1933   4.093   6.163   5.565  0.0635  0.4117 -0.2328
   27CHL1    H6 1934   4.115   6.226   5.652 -2.4196  0.9277  0.0788
   27CHL1    C7 1935   4.136   6.199   5.423  0.1627 -0.0499  0.6111
   27CHL1   H7A 1936   4.125   6.304   5.389 -1.3772 -1.1007 -2.5144
   27CHL1   H7B 1937   4.241   6.166   5.408  0.3378  0.6899  0.1351
   27CHL1    C8 1938   4.049   6.116   5.316 -1.4583 -0.4376 -0.6057
   27CHL1    H8 1939   3.946   6.160   5.311 -1.3699 -0.1553 -0.0783
   27CHL1   C14 1940   4.128   6.134   5.190  0.2025  0.7587 -0.0250
   27CHL1   H14 1941   4.229   6.094   5.215  0.6399  2.2112  0.6612
   27CHL1   C15 1942   4.145   6.282   5.146  0.0082 -0.1463  0.8594
   27CHL1  H15A 1943   4.043   6.326   5.155  0.1576  0.1437  1.1173
   27CHL1  H15B 1944   4.223   6.328   5.210 -0.0658  0.6506  0.3900
   27CHL1   C16 1945   4.175   6.267   4.997  0.5722 -0.5273  0.2731
   27CHL1  H16A 1946   4.102   6.331   4.942  3.0203  2.4667  0.1772
   27CHL1  H16B 1947   4.279   6.299   4.975  0.7693 -0.5778  1.1040
   27CHL1   C17 1948   4.165   6.115   4.963  0.4509  0.1340  0.0112
   27CHL1   H17 1949   4.259   6.068   4.999  0.5816  0.2877 -0.1277
   27CHL1   C13 1950   4.073   6.054   5.077  0.8649 -0.0865  1.0955
   27CHL1   C18 1951   3.925   6.091   5.056  0.4001  0.2188  0.1798
   27CHL1  H18A 1952   3.860   6.071   5.143 -2.7715  0.1018 -2.0493
   27CHL1  H18B 1953   3.907   6.195   5.021  1.2000 -0.5406 -2.7493
   27CHL1  H18C 1954   3.887   6.018   4.981  0.4708  1.9240 -1.5995
   27CHL1   C12 1955   4.091   5.907   5.113 -0.2555  0.3967 -0.9443
   27CHL1  H12A 1956   4.045   5.840   5.038  0.1207 -0.1084 -0.7265
   27CHL1  H12B 1957   4.196   5.876   5.126 -0.1273  0.8769 -0.7993
   27CHL1   C11 1958   4.021   5.871   5.243  0.3059  0.3590 -0.0001
   27CHL1  H11A 1959   3.912   5.872   5.223  0.6402 -1.9868 -2.5503
   27CHL1  H11B 1960   4.030   5.772   5.292 -0.6158  0.3310  0.1112
   27CHL1    C9 1961   4.050   5.971   5.358 -0.4167 -0.3447  0.0356
   27CHL1    H9 1962   4.155   5.951   5.388 -0.8646 -1.0401  1.1772
   27CHL1   C10 1963   3.969   5.950   5.490 -1.0425  0.5596  0.7383
   27CHL1   C19 1964   3.818   5.968   5.466 -0.3307  1.1327 -0.0603
   27CHL1  H19A 1965   3.777   5.894   5.394 -0.2356  1.5326 -0.5326
   27CHL1  H19B 1966   3.765   5.961   5.564 -0.3105 -1.7380 -0.1864
   27CHL1  H19C 1967   3.789   6.066   5.423 -0.7566  0.8241 -0.4796
   27CHL1    C1 1968   4.008   5.807   5.553  0.4635 -0.0330  0.5701
   27CHL1   H1A 1969   3.951   5.728   5.500  0.2370  1.4017 -1.4053
   27CHL1   H1B 1970   4.117   5.787   5.551  0.3714 -0.5226  0.1185
   27CHL1    C2 1971   3.959   5.790   5.700 -0.3360 -0.4430 -0.7132
   27CHL1   H2A 1972   3.989   5.688   5.732  1.7843  0.2136 -0.4654
   27CHL1   H2B 1973   3.851   5.801   5.725 -0.0848 -0.1907  0.2782
   27CHL1   C20 1974   4.132   6.087   4.821 -0.2487  0.1753 -0.3778
   27CHL1   H20 1975   4.031   6.130   4.805 -0.3052  0.7756  1.3843
   27CHL1   C21 1976   4.112   5.930   4.792 -0.2627 -1.3097  0.1276
   27CHL1  H21A 1977   4.201   5.877   4.833  0.2789  0.1071  0.8553
   27CHL1  H21B 1978   4.102   5.919   4.682  0.3931  0.5468 -0.1513
   27CHL1  H21C 1979   4.013   5.900   4.831 -0.3019  0.4578  1.5004
   27CHL1   C22 1980   4.222   6.155   4.721  0.5751 -0.1492  0.0623
   27CHL1  H22A 1981   4.211   6.262   4.752 -1.4219 -0.5140  0.8152
   27CHL1  H22B 1982   4.327   6.121   4.720  0.8458  0.6673 -0.5361
   27CHL1   C23 1983   4.170   6.150   4.575  0.2643  0.2202 -0.7186
   27CHL1  H23A 1984   4.167   6.049   4.529  0.8783 -1.0256  1.7867
   27CHL1  H23B 1985   4.065   6.186   4.582  0.2338  0.1287 -0.7115
   27CHL1   C24 1986   4.238   6.255   4.482  0.0039  0.1031  0.0090
   27CHL1  H24A 1987   4.239   6.354   4.532 -0.5395  0.2637 -0.2903
   27CHL1  H24B 1988   4.346   6.226   4.476 -0.6280 -2.3024 -0.6979
   27CHL1   C25 1989   4.175   6.269   4.340  0.3311 -0.2241 -0.7504
   27CHL1   H25 1990   4.253   6.328   4.287 -0.9985  0.7978 -1.6244
   27CHL1   C26 1991   4.150   6.132   4.272  0.4955 -0.0412 -0.2899
   27CHL1  H26A 1992   4.079   6.071   4.333  1.6236 -0.2174  0.9030
   27CHL1  H26B 1993   4.110   6.154   4.171 -0.2723 -0.7447 -0.1529
   27CHL1  H26C 1994   4.231   6.057   4.259 -2.2914 -3.8927  2.2315
   27CHL1   C27 1995   4.034   6.335   4.343 -0.0751 -0.1448 -0.0212
   27CHL1  H27A 1996   4.038   6.436   4.390 -0.2918 -0.8313  1.5611
   27CHL1  H27B 1997   4.003   6.368   4.242 -1.7312  2.2207  1.1324
   27CHL1  H27C 1998   3.965   6.267   4.397 -0.1873 -0.8990 -1.0983
   28CHL1    C3 1999   4.998   0.877   5.788  0.0424  1.0704  0.8135
   28CHL1    H3 2000   5.076   0.956   5.786  1.0947  0.0589  0.8104
   28CHL1    O3 2001   4.940   0.877   5.916 -0.3361 -0.0247  0.1741
   28CHL1   H3' 2002   4.859   0.826   5.907 -1.5415  1.9749 -1.0311
   28CHL1    C4 2003   4.897   0.920   5.678  0.2212  0.5705  0.9653
   28CHL1   H4A 2004   4.810   0.851   5.684  0.2016  0.6260  1.3631
   28CHL1   H4B 2005   4.853   1.020   5.700  0.4946  1.0256 -0.4454
   28CHL1    C5 2006   4.950   0.911   5.532  0.2282  0.2377  0.4118
   28CHL1    C6 2007   4.953   1.020   5.452 -0.4991 -0.1113  0.4393
   28CHL1    H6 2008   4.920   1.116   5.493  1.3561  0.5236  0.5424
   28CHL1    C7 2009   4.999   1.021   5.309  0.5165  0.5596  0.9876
   28CHL1   H7A 2010   4.925   1.085   5.255  1.3712 -1.0106 -2.2934
   28CHL1   H7B 2011   5.097   1.071   5.296  1.6333 -2.0149 -1.4563
   28CHL1    C8 2012   5.004   0.875   5.249 -0.2385 -0.4765  0.6981
   28CHL1    H8 2013   4.901   0.833   5.245 -0.3440 -0.1566 -0.8959
   28CHL1   C14 2014   5.058   0.858   5.100 -0.1653 -0.5984 -0.7119
   28CHL1   H14 2015   5.156   0.911   5.091 -0.6748  0.3524 -0.7803
   28CHL1   C15 2016   4.973   0.934   5.006 -0.3223 -0.3560  0.0788
   28CHL1  H15A 2017   4.865   0.919   5.028 -0.7252  1.7673 -0.2270
   28CHL1  H15B 2018   4.995   1.043   5.018 -1.7408 -0.0974  0.5360
   28CHL1   C16 2019   5.025   0.875   4.874  0.1877 -0.9582  0.1182
   28CHL1  H16A 2020   4.937   0.834   4.820  1.9373 -0.7507 -3.1620
   28CHL1  H16B 2021   5.082   0.949   4.814 -1.2754  0.7021  0.6662
   28CHL1   C17 2022   5.131   0.757   4.901  0.2493  0.6262 -0.0900
   28CHL1   H17 2023   5.231   0.805   4.908  0.8600 -0.7017  0.6416
   28CHL1   C13 2024   5.088   0.718   5.051  0.2050  0.7579 -0.7836
   28CHL1   C18 2025   4.953   0.642   5.051  0.1708 -0.0522  0.0182
   28CHL1  H18A 2026   4.957   0.538   5.014 -1.5425  0.1899 -0.9685
   28CHL1  H18B 2027   4.873   0.651   5.128 -0.6501  0.0240 -0.8313
   28CHL1  H18C 2028   4.896   0.687   4.967 -0.6193 -2.0629 -0.5608
   28CHL1   C12 2029   5.197   0.662   5.149 -0.2094  0.2184 -0.1018
   28CHL1  H12A 2030   5.229   0.563   5.108 -1.7262 -0.0026 -0.8220
   28CHL1  H12B 2031   5.288   0.725   5.150 -1.7593  2.6632  2.8650
   28CHL1   C11 2032   5.140   0.651   5.291  0.5706  0.3780 -0.3554
   28CHL1  H11A 2033   5.055   0.579   5.295 -0.1886  1.2896  0.6382
   28CHL1  H11B 2034   5.218   0.611   5.359  1.1825 -0.4013 -1.5000
   28CHL1    C9 2035   5.089   0.787   5.350  0.0533  0.0163  0.1352
   28CHL1    H9 2036   5.178   0.851   5.363  2.3055 -2.4590 -1.9158
   28CHL1   C10 2037   5.009   0.777   5.489  0.7079  0.0169  0.0909
   28CHL1   C19 2038   4.892   0.671   5.475 -0.4295  0.2370  0.3878
   28CHL1  H19A 2039   4.837   0.693   5.382  1.3250  0.2627 -0.6950
   28CHL1  H19B 2040   4.930   0.566   5.476 -2.7585 -0.6673 -0.0000
   28CHL1  H19C 2041   4.819   0.680   5.558 -0.6136  0.9926  0.1524
   28CHL1    C1 2042   5.111   0.733   5.601 -0.7645  0.6838  0.5273
   28CHL1   H1A 2043   5.141   0.629   5.575  2.4737  1.9670 -1.4818
   28CHL1   H1B 2044   5.197   0.800   5.581 -0.1454  0.0022  0.8873
   28CHL1    C2 2045   5.057   0.736   5.742 -0.0886 -0.2556  0.1474
   28CHL1   H2A 2046   5.136   0.708   5.814  0.6414  1.5867  0.1267
   28CHL1   H2B 2047   4.969   0.668   5.743  0.1239 -0.7006 -3.1835
   28CHL1   C20 2048   5.134   0.644   4.801 -0.3158  0.3753 -0.2518
   28CHL1   H20 2049   5.040   0.586   4.793  1.3305 -2.6151  0.5418
   28CHL1   C21 2050   5.240   0.541   4.841 -0.3919  0.0250  0.1034
   28CHL1  H21A 2051   5.199   0.499   4.935  0.3346 -0.1637  0.3418
   28CHL1  H21B 2052   5.342   0.572   4.872  0.1428 -3.4486  2.4254
   28CHL1  H21C 2053   5.254   0.457   4.769  0.4735  1.1522 -1.0969
   28CHL1   C22 2054   5.153   0.699   4.656  0.2025  0.0974 -0.7529
   28CHL1  H22A 2055   5.084   0.785   4.645  0.4935  0.4598  0.1806
   28CHL1  H22B 2056   5.258   0.735   4.652  0.6197 -1.1481 -1.6715
   28CHL1   C23 2057   5.116   0.595   4.551 -0.6419  1.4714  0.0598
   28CHL1  H23A 2058   5.128   0.491   4.587 -0.6676  1.2980 -0.4182
   28CHL1  H23B 2059   5.007   0.602   4.530 -0.3231  3.0281 -1.3753
   28CHL1   C24 2060   5.192   0.624   4.421 -0.4734 -0.0969  1.0315
   28CHL1  H24A 2061   5.149   0.545   4.355  3.0736  0.0111 -1.7830
   28CHL1  H24B 2062   5.169   0.726   4.382 -0.5872 -0.5105 -0.0188
   28CHL1   C25 2063   5.346   0.600   4.426  0.8516 -0.2428  0.3580
   28CHL1   H25 2064   5.390   0.680   4.490  0.9466 -0.2262  0.2719
   28CHL1   C26 2065   5.380   0.455   4.476 -0.8111 -0.1160  0.3522
   28CHL1  H26A 2066   5.358   0.443   4.584  2.6104 -0.0551  1.1796
   28CHL1  H26B 2067   5.339   0.380   4.406  0.4698 -0.6075  0.1063
   28CHL1  H26C 2068   5.490   0.438   4.471 -0.7335  0.2560  0.6998
   28CHL1   C27 2069   5.413   0.639   4.287 -0.0492  0.2675 -0.2236
   28CHL1  H27A 2070   5.378   0.742   4.265  0.8813  0.4293 -1.0038
   28CHL1  H27B 2071   5.524   0.637   4.297 -0.0543  1.5061  0.2585
   28CHL1  H27C 2072   5.365   0.573   4.212  0.4217  0.3757 -0.6205
   29CHL1    C3 2073   1.819   4.564   2.602 -0.3921 -0.5083  0.6287
   29CHL1    H3 2074   1.900   4.614   2.545 -0.4617  0.8729  1.6920
   29CHL1    O3 2075   1.698   4.520   2.534 -0.0772 -0.0840 -0.3289
   29CHL1   H3' 2076   1.644   4.476   2.600 -0.1328  1.2721  0.5650
   29CHL1    C4 2077   1.884   4.440   2.672 -0.2169  0.3563 -1.0163
   29CHL1   H4A 2078   1.797   4.384   2.713 -0.8707  1.9168 -0.2172
   29CHL1   H4B 2079   1.922   4.370   2.594 -0.1496 -1.0294  0.2073
   29CHL1    C5 2080   1.988   4.477   2.777 -0.0640 -0.2079 -0.0894
   29CHL1    C6 2081   2.116   4.444   2.757 -0.5270 -0.6541  0.1704
   29CHL1    H6 2082   2.131   4.375   2.673  0.9558 -2.6318  1.9300
   29CHL1    C7 2083   2.229   4.469   2.852 -0.3524  0.2967  0.0994
   29CHL1   H7A 2084   2.291   4.378   2.871 -0.6719  0.1655  0.5590
   29CHL1   H7B 2085   2.290   4.550   2.808  0.3280 -0.7439 -0.9239
   29CHL1    C8 2086   2.175   4.506   2.988  0.3687  0.0318  0.8536
   29CHL1    H8 2087   2.122   4.429   3.049 -1.7591 -0.5684 -1.5659
   29CHL1   C14 2088   2.291   4.563   3.075 -0.6698  0.0407 -0.2906
   29CHL1   H14 2089   2.319   4.658   3.025  0.0880  1.7402  3.0774
   29CHL1   C15 2090   2.426   4.477   3.085 -0.1705  0.0184  0.1755
   29CHL1  H15A 2091   2.399   4.375   3.119 -0.8031 -0.3899 -1.4788
   29CHL1  H15B 2092   2.478   4.478   2.987  0.2637  1.1586  0.3999
   29CHL1   C16 2093   2.507   4.550   3.202  0.6472  1.1760 -0.4265
   29CHL1  H16A 2094   2.550   4.479   3.275 -1.4441 -0.8203 -0.9920
   29CHL1  H16B 2095   2.583   4.622   3.164  2.4681 -1.8767 -3.1151
   29CHL1   C17 2096   2.394   4.646   3.271  0.5181 -0.4440 -0.0650
   29CHL1   H17 2097   2.399   4.742   3.215 -0.6325 -0.7841 -0.7737
   29CHL1   C13 2098   2.253   4.600   3.222 -0.2450  0.6967  0.2726
   29CHL1   C18 2099   2.212   4.480   3.307  1.0870  0.3654 -1.1948
   29CHL1  H18A 2100   2.290   4.402   3.296  1.2705  0.4907 -0.8125
   29CHL1  H18B 2101   2.205   4.486   3.418 -1.6653  1.1859 -1.3415
   29CHL1  H18C 2102   2.108   4.449   3.286  0.6853  2.0224 -1.7895
   29CHL1   C12 2103   2.138   4.701   3.218 -0.4335 -0.1647  0.3984
   29CHL1  H12A 2104   2.094   4.711   3.319  0.2639 -0.4546  0.7397
   29CHL1  H12B 2105   2.190   4.793   3.181 -0.1242  0.2731  1.8655
   29CHL1   C11 2106   2.026   4.660   3.118 -0.1795  0.0126  0.2813
   29CHL1  H11A 2107   1.978   4.578   3.176 -0.8839  1.8379  2.4000
   29CHL1  H11B 2108   1.954   4.741   3.098 -0.0445 -0.0978 -0.6814
   29CHL1    C9 2109   2.068   4.612   2.975  0.6948  0.0668 -0.4133
   29CHL1    H9 2110   2.120   4.697   2.926  1.8422 -0.4263 -0.0831
   29CHL1   C10 2111   1.943   4.573   2.888  0.4558  0.0737  0.2196
   29CHL1   C19 2112   1.833   4.503   2.979 -0.6370  0.1997  0.2176
   29CHL1  H19A 2113   1.885   4.419   3.030  0.9925  0.0579 -1.5984
   29CHL1  H19B 2114   1.797   4.564   3.064  0.1164  2.8804 -1.2926
   29CHL1  H19C 2115   1.752   4.480   2.907 -0.2857  1.2471 -0.5270
   29CHL1    C1 2116   1.876   4.701   2.817  0.0852  0.2038  0.3248
   29CHL1   H1A 2117   1.833   4.759   2.902 -2.4770 -0.9713 -0.0691
   29CHL1   H1B 2118   1.947   4.775   2.774 -0.7347  0.4615 -0.6042
   29CHL1    C2 2119   1.767   4.660   2.715 -0.3087 -0.1453  0.6304
   29CHL1   H2A 2120   1.721   4.752   2.675 -0.2417 -0.7669 -0.9493
   29CHL1   H2B 2121   1.683   4.612   2.770  0.9617 -0.8082  2.0794
   29CHL1   C20 2122   2.412   4.675   3.417 -0.7444 -0.5696  0.1763
   29CHL1   H20 2123   2.313   4.709   3.456  0.2092  1.1790  1.1692
   29CHL1   C21 2124   2.495   4.799   3.426  0.0794 -0.4148  0.2742
   29CHL1  H21A 2125   2.461   4.897   3.387  3.3629  0.6798 -0.2093
   29CHL1  H21B 2126   2.593   4.786   3.374 -0.8665  1.0370 -2.0307
   29CHL1  H21C 2127   2.526   4.820   3.531  1.8527 -4.0276  0.6451
   29CHL1   C22 2128   2.466   4.568   3.510  0.1810  0.0671 -0.2618
   29CHL1  H22A 2129   2.426   4.469   3.480  2.7900 -0.9636 -0.6201
   29CHL1  H22B 2130   2.575   4.563   3.491  0.3771  1.8997  0.1274
   29CHL1   C23 2131   2.453   4.587   3.662  0.6589 -0.3311  0.1648
   29CHL1  H23A 2132   2.492   4.689   3.684  0.7649 -0.5195  0.8737
   29CHL1  H23B 2133   2.347   4.594   3.694  0.9692 -0.5769  1.2944
   29CHL1   C24 2134   2.512   4.468   3.739 -0.2787 -0.2435 -0.0587
   29CHL1  H24A 2135   2.464   4.380   3.694 -3.3515  1.2917 -0.0430
   29CHL1  H24B 2136   2.622   4.473   3.723 -0.5122  2.5933 -1.4523
   29CHL1   C25 2137   2.478   4.465   3.888 -0.9743 -0.0956 -1.2777
   29CHL1   H25 2138   2.371   4.495   3.893 -0.8113  0.8170 -2.7155
   29CHL1   C26 2139   2.505   4.325   3.948  0.0479 -0.2752 -0.0945
   29CHL1  H26A 2140   2.614   4.306   3.962  0.5055  3.9564  6.4820
   29CHL1  H26B 2141   2.479   4.321   4.056 -1.9005  1.1605 -0.4588
   29CHL1  H26C 2142   2.451   4.244   3.897 -1.4979  1.0407 -0.6291
   29CHL1   C27 2143   2.555   4.575   3.972  0.4272  0.0759 -0.7526
   29CHL1  H27A 2144   2.532   4.677   3.932 -1.6402  0.3009  0.8682
   29CHL1  H27B 2145   2.521   4.575   4.077 -1.3573  3.2705 -1.1739
   29CHL1  H27C 2146   2.665   4.559   3.973  0.4169 -0.1551  1.4916
   30CHL1    C3 2147   4.941   1.613   2.753 -0.2443 -0.3056  0.8032
   30CHL1    H3 2148   4.845   1.562   2.776 -0.2266 -1.2688 -1.0223
   30CHL1    O3 2149   4.964   1.599   2.614  0.4173 -0.2121  0.2537
   30CHL1   H3' 2150   5.021   1.672   2.589 -0.5588  1.1416  1.7297
   30CHL1    C4 2151   4.909   1.761   2.796 -0.2585  0.9750 -0.2453
   30CHL1   H4A 2152   4.999   1.822   2.771 -0.9244  1.4745 -1.5480
   30CHL1   H4B 2153   4.833   1.799   2.725 -1.5865 -1.8742 -0.4448
   30CHL1    C5 2154   4.881   1.772   2.943  0.3982  0.6088  0.1589
   30CHL1    C6 2155   4.768   1.836   2.985 -0.0341 -0.1510  0.7458
   30CHL1    H6 2156   4.705   1.879   2.906 -2.1121  2.8393  3.7608
   30CHL1    C7 2157   4.724   1.849   3.125 -0.2745 -0.4247 -0.2881
   30CHL1   H7A 2158   4.666   1.941   3.145  0.4724 -0.1305  0.6437
   30CHL1   H7B 2159   4.669   1.762   3.167  2.0245 -2.8620 -1.9690
   30CHL1    C8 2160   4.846   1.830   3.221 -1.0189  0.3233  0.1313
   30CHL1    H8 2161   4.917   1.914   3.206 -0.3497 -0.3596 -0.6389
   30CHL1   C14 2162   4.799   1.832   3.359 -0.0339 -0.0946 -0.5124
   30CHL1   H14 2163   4.725   1.750   3.366 -2.0477  1.7713  1.9393
   30CHL1   C15 2164   4.719   1.958   3.403  0.2730 -0.4945 -0.2631
   30CHL1  H15A 2165   4.766   2.053   3.367 -2.0017  1.3012  1.2007
   30CHL1  H15B 2166   4.620   1.951   3.353  1.0098 -0.3012 -1.8197
   30CHL1   C16 2167   4.719   1.943   3.557  0.1812 -0.1260 -0.1470
   30CHL1  H16A 2168   4.764   2.041   3.584 -2.5746  0.8781  1.0533
   30CHL1  H16B 2169   4.618   1.954   3.601  0.2255  0.2039 -0.1222
   30CHL1   C17 2170   4.815   1.816   3.591  0.1560  0.2589 -0.9642
   30CHL1   H17 2171   4.729   1.745   3.594 -0.5784  1.0743 -1.8771
   30CHL1   C13 2172   4.907   1.803   3.470  0.0335 -0.3366  0.2766
   30CHL1   C18 2173   5.026   1.901   3.478 -0.8758 -0.0543 -0.0083
   30CHL1  H18A 2174   5.070   1.895   3.377 -0.7930  0.1596  0.0149
   30CHL1  H18B 2175   5.006   2.008   3.502 -2.3129 -0.2240 -0.3372
   30CHL1  H18C 2176   5.107   1.865   3.545  0.2989 -1.3030 -2.0158
   30CHL1   C12 2177   4.952   1.660   3.441  0.2994 -0.5660  0.6327
   30CHL1  H12A 2178   5.020   1.618   3.519  1.3079 -0.9445 -0.4212
   30CHL1  H12B 2179   4.858   1.602   3.452 -0.4714  0.0224 -2.1081
   30CHL1   C11 2180   5.002   1.633   3.295 -0.8980  0.1036  0.2477
   30CHL1  H11A 2181   5.101   1.680   3.284 -0.0442 -1.8992 -1.2686
   30CHL1  H11B 2182   5.021   1.526   3.269 -2.9893 -0.0080 -1.0680
   30CHL1    C9 2183   4.910   1.692   3.179  0.2846  0.2274 -0.0845
   30CHL1    H9 2184   4.827   1.620   3.163  0.1678  0.6439 -1.5091
   30CHL1   C10 2185   4.983   1.705   3.043 -0.2788  0.1973 -0.4018
   30CHL1   C19 2186   5.112   1.799   3.046  0.4345  0.7580 -0.4773
   30CHL1  H19A 2187   5.187   1.756   3.115 -0.4621  0.8329  0.5777
   30CHL1  H19B 2188   5.149   1.826   2.945  0.7835 -0.6574 -0.7407
   30CHL1  H19C 2189   5.090   1.896   3.095 -0.0539 -0.2692  1.4481
   30CHL1    C1 2190   5.022   1.562   2.987 -0.2025  0.2061 -0.6537
   30CHL1   H1A 2191   5.106   1.530   3.052  1.4761  1.7411 -1.9277
   30CHL1   H1B 2192   4.936   1.500   3.018  0.2768  0.5499  1.5626
   30CHL1    C2 2193   5.056   1.549   2.844  1.0171 -0.1369 -0.1177
   30CHL1   H2A 2194   5.058   1.440   2.821 -1.1073 -0.2040 -0.1751
   30CHL1   H2B 2195   5.157   1.591   2.824  0.2502  2.5291  1.1813
   30CHL1   C20 2196   4.877   1.826   3.732 -0.8242  0.9420  0.2541
   30CHL1   H20 2197   4.955   1.905   3.728  0.3123 -0.1529  0.5901
   30CHL1   C21 2198   4.945   1.693   3.774 -0.0737  0.0603 -0.7184
   30CHL1  H21A 2199   4.957   1.704   3.884  0.8949 -0.3530 -0.7773
   30CHL1  H21B 2200   5.043   1.693   3.723  1.3393 -0.9550  1.8270
   30CHL1  H21C 2201   4.884   1.602   3.756  2.4259 -2.1842  1.2877
   30CHL1   C22 2202   4.786   1.879   3.839  0.3794 -0.7739 -0.0979
   30CHL1  H22A 2203   4.834   1.889   3.939  0.1330  0.4534 -0.0964
   30CHL1  H22B 2204   4.755   1.982   3.815  0.4465  0.1574  3.2865
   30CHL1   C23 2205   4.659   1.795   3.858  0.1792  0.8047  0.5724
   30CHL1  H23A 2206   4.583   1.785   3.778 -0.7985  0.6544  1.5115
   30CHL1  H23B 2207   4.684   1.692   3.891 -2.1776  0.2131  0.6725
   30CHL1   C24 2208   4.571   1.858   3.968  0.0836  0.0701  0.2892
   30CHL1  H24A 2209   4.625   1.877   4.063 -0.1934 -1.3749  0.7624
   30CHL1  H24B 2210   4.551   1.960   3.928 -0.6816 -0.2365 -0.1340
   30CHL1   C25 2211   4.438   1.784   3.998  0.0105  0.1458  0.1265
   30CHL1   H25 2212   4.402   1.734   3.905 -2.9455  1.5630  0.3886
   30CHL1   C26 2213   4.446   1.680   4.109 -0.0413  0.4389  0.2701
   30CHL1  H26A 2214   4.349   1.629   4.128 -1.0619  2.5188  0.9440
   30CHL1  H26B 2215   4.523   1.602   4.088  0.2269  0.2215  1.8975
   30CHL1  H26C 2216   4.480   1.729   4.202 -3.8660  1.6928  1.1636
   30CHL1   C27 2217   4.327   1.881   4.044  0.0338 -0.4295  0.8067
   30CHL1  H27A 2218   4.232   1.827   4.062 -0.3976  0.0413  0.0128
   30CHL1  H27B 2219   4.362   1.942   4.130  2.3844  1.1857 -1.1351
   30CHL1  H27C 2220   4.305   1.953   3.962  0.6118 -1.6041 -0.4043
   31CHL1    C3 2221   4.844   0.576   2.421  0.1065 -0.0559 -0.7170
   31CHL1    H3 2222   4.940   0.629   2.407  0.6325 -0.8045  0.0455
   31CHL1    O3 2223   4.785   0.549   2.296  0.1637  0.1205 -0.2330
   31CHL1   H3' 2224   4.697   0.514   2.312  0.0824  0.3033 -0.2792
   31CHL1    C4 2225   4.850   0.443   2.495 -0.2263  0.8757 -0.0806
   31CHL1   H4A 2226   4.753   0.392   2.477  0.2589 -1.6308  3.4252
   31CHL1   H4B 2227   4.927   0.386   2.438 -0.8876  1.2923 -1.4553
   31CHL1    C5 2228   4.880   0.449   2.646 -0.1912  0.0814  0.0220
   31CHL1    C6 2229   4.982   0.378   2.698  0.4550 -0.5383  0.6941
   31CHL1    H6 2230   5.049   0.315   2.638 -0.9256  0.1251 -1.7136
   31CHL1    C7 2231   5.002   0.379   2.842 -0.1355 -0.2011  0.3303
   31CHL1   H7A 2232   5.045   0.280   2.869  1.4251  0.4261  0.2115
   31CHL1   H7B 2233   5.084   0.450   2.864 -0.5890  0.6501 -0.6237
   31CHL1    C8 2234   4.888   0.426   2.930 -0.0190 -0.1498 -1.3512
   31CHL1    H8 2235   4.810   0.347   2.935  1.2715 -1.3893  2.0688
   31CHL1   C14 2236   4.938   0.447   3.073 -0.0054  0.7315 -0.4129
   31CHL1   H14 2237   5.001   0.538   3.064  0.0987  0.5725 -1.4405
   31CHL1   C15 2238   5.022   0.333   3.141  0.3241  0.2214  0.4270
   31CHL1  H15A 2239   4.970   0.236   3.128 -1.0956  0.7454  1.8010
   31CHL1  H15B 2240   5.126   0.319   3.106  0.0750  0.5237 -0.4604
   31CHL1   C16 2241   5.011   0.365   3.291 -0.3414  0.7593  0.8935
   31CHL1  H16A 2242   4.980   0.285   3.361  0.1864 -0.7801 -0.5756
   31CHL1  H16B 2243   5.106   0.397   3.339 -1.0639  2.0063  1.5546
   31CHL1   C17 2244   4.899   0.481   3.302  0.1031 -0.2243 -0.3557
   31CHL1   H17 2245   4.951   0.578   3.316  0.7395 -0.7645  1.2761
   31CHL1   C13 2246   4.828   0.492   3.170  0.0329 -0.3039  0.5275
   31CHL1   C18 2247   4.727   0.374   3.167 -0.3232  0.1406 -0.4242
   31CHL1  H18A 2248   4.771   0.272   3.173 -0.7878 -0.0702 -0.5311
   31CHL1  H18B 2249   4.649   0.385   3.246  1.3335  0.8242  1.1919
   31CHL1  H18C 2250   4.677   0.373   3.068  0.9240 -0.0605 -1.0710
   31CHL1   C12 2251   4.766   0.626   3.121 -0.0383  0.2569  0.2255
   31CHL1  H12A 2252   4.673   0.644   3.179 -1.5484 -1.6030 -1.4843
   31CHL1  H12B 2253   4.839   0.709   3.136  0.9710 -0.8898  2.0504
   31CHL1   C11 2254   4.722   0.621   2.978 -0.0255  0.2506  0.3751
   31CHL1  H11A 2255   4.620   0.576   2.972 -0.1727  0.3484  1.8237
   31CHL1  H11B 2256   4.698   0.722   2.940 -1.2031  0.0078  0.4207
   31CHL1    C9 2257   4.826   0.554   2.879  0.3011  0.1329  0.0749
   31CHL1    H9 2258   4.918   0.615   2.868 -0.2497  0.8936 -0.4055
   31CHL1   C10 2259   4.781   0.539   2.723 -0.4756 -0.0777 -0.0419
   31CHL1   C19 2260   4.639   0.479   2.736 -0.1515  0.3451 -0.3494
   31CHL1  H19A 2261   4.567   0.552   2.778  0.9193  0.3143  1.7142
   31CHL1  H19B 2262   4.598   0.445   2.639 -0.5949  0.9527 -0.3750
   31CHL1  H19C 2263   4.647   0.384   2.794  0.4582 -0.6547 -2.0052
   31CHL1    C1 2264   4.783   0.679   2.651 -0.7763  0.3881  0.4557
   31CHL1   H1A 2265   4.719   0.743   2.714 -0.6295  2.6599 -1.5737
   31CHL1   H1B 2266   4.883   0.728   2.647  0.0554 -1.0106  2.2927
   31CHL1    C2 2267   4.745   0.673   2.499 -0.3106  0.1394  0.4422
   31CHL1   H2A 2268   4.741   0.770   2.446  0.2116 -0.1564 -0.1589
   31CHL1   H2B 2269   4.644   0.626   2.491 -0.7165  0.8475  1.2443
   31CHL1   C20 2270   4.812   0.466   3.429 -0.0658 -0.4990 -0.7429
   31CHL1   H20 2271   4.764   0.366   3.424  0.0748 -0.5151 -3.9762
   31CHL1   C21 2272   4.705   0.577   3.429  0.0655  0.1874 -0.2834
   31CHL1  H21A 2273   4.633   0.567   3.345 -1.9235 -1.0574  1.4574
   31CHL1  H21B 2274   4.743   0.681   3.425  2.9141 -0.7843 -2.7553
   31CHL1  H21C 2275   4.657   0.569   3.529  0.0512  2.9296  0.0145
   31CHL1   C22 2276   4.881   0.470   3.568 -0.1218 -0.7054  0.1508
   31CHL1  H22A 2277   4.814   0.450   3.655  0.1405 -2.5914 -0.0424
   31CHL1  H22B 2278   4.947   0.381   3.559 -0.7700 -1.0666 -1.3628
   31CHL1   C23 2279   4.973   0.583   3.615  0.2031 -0.4435  0.2865
   31CHL1  H23A 2280   5.062   0.589   3.549  0.0515  1.3820  0.1892
   31CHL1  H23B 2281   4.922   0.678   3.587  1.8146 -0.3684 -2.8992
   31CHL1   C24 2282   5.019   0.582   3.762 -0.1892  0.1549 -0.4460
   31CHL1  H24A 2283   5.047   0.480   3.797  3.5623  1.5300  1.1448
   31CHL1  H24B 2284   5.114   0.640   3.770  0.0815 -0.4670  1.2518
   31CHL1   C25 2285   4.902   0.626   3.861  0.4348  0.8159  0.4508
   31CHL1   H25 2286   4.812   0.620   3.796  0.0609  1.8502  0.8699
   31CHL1   C26 2287   4.896   0.526   3.981  0.6754  0.2255 -0.3764
   31CHL1  H26A 2288   4.821   0.562   4.055 -1.8217 -0.1368 -2.5803
   31CHL1  H26B 2289   4.864   0.423   3.954 -0.9810  0.3317  0.9999
   31CHL1  H26C 2290   4.992   0.517   4.037  1.7013 -2.7964 -2.3920
   31CHL1   C27 2291   4.906   0.773   3.899  0.5374 -0.4406  0.0197
   31CHL1  H27A 2292   4.805   0.809   3.926  0.4122  0.6223 -1.7026
   31CHL1  H27B 2293   4.974   0.800   3.983 -1.9234  1.0594  1.6452
   31CHL1  H27C 2294   4.947   0.830   3.812  1.2054 -1.5289 -0.3942
   32CHL1    C3 2295   3.679   6.827   2.487  0.5489  0.0690  0.4083
   32CHL1    H3 2296   3.753   6.746   2.506  0.4124 -0.0459  0.4475
   32CHL1    O3 2297   3.646   6.827   2.352  0.1753 -0.8242 -0.1648
   32CHL1   H3' 2298   3.613   6.739   2.333 -0.3646 -0.8394  0.7569
   32CHL1    C4 2299   3.546   6.794   2.558 -0.4936 -0.3328  0.0844
   32CHL1   H4A 2300   3.471   6.870   2.528  0.5872  0.6770 -0.1449
   32CHL1   H4B 2301   3.517   6.695   2.517  0.7148 -0.4876 -0.4441
   32CHL1    C5 2302   3.549   6.800   2.713  0.0198 -0.5641  0.7220
   32CHL1    C6 2303   3.522   6.685   2.783 -0.3400 -0.2590  0.1297
   32CHL1    H6 2304   3.491   6.592   2.733 -0.4512 -0.9738  1.4860
   32CHL1    C7 2305   3.523   6.684   2.927 -0.2057 -0.5055 -0.3283
   32CHL1   H7A 2306   3.432   6.632   2.961 -1.3165  2.8563  2.3620
   32CHL1   H7B 2307   3.615   6.632   2.962 -0.2115 -0.0516  0.3809
   32CHL1    C8 2308   3.521   6.827   2.985  0.4496  0.2965 -0.5086
   32CHL1    H8 2309   3.416   6.861   2.969  0.8955  1.8120 -0.3457
   32CHL1   C14 2310   3.549   6.818   3.136 -0.3370  0.3265 -0.4344
   32CHL1   H14 2311   3.649   6.774   3.154  0.5698  1.1649 -2.9978
   32CHL1   C15 2312   3.457   6.725   3.212  0.1534 -0.2501  0.0469
   32CHL1  H15A 2313   3.351   6.752   3.189  0.4571  0.8200 -0.1313
   32CHL1  H15B 2314   3.473   6.616   3.195 -0.7615 -0.4017  0.0784
   32CHL1   C16 2315   3.479   6.754   3.359  0.1174  0.3316 -0.8770
   32CHL1  H16A 2316   3.383   6.760   3.414  0.8339 -2.2651  0.8590
   32CHL1  H16B 2317   3.533   6.674   3.414 -0.4996 -2.1981 -3.6839
   32CHL1   C17 2318   3.553   6.893   3.364 -0.4348  0.5880  0.6399
   32CHL1   H17 2319   3.662   6.868   3.367 -0.7002 -1.1912 -1.6127
   32CHL1   C13 2320   3.548   6.944   3.216 -0.2776  0.4547  0.2140
   32CHL1   C18 2321   3.415   7.026   3.195 -0.1759  0.4559 -0.4642
   32CHL1  H18A 2322   3.325   6.979   3.242  0.3106 -1.1862 -1.0987
   32CHL1  H18B 2323   3.432   7.129   3.231  0.7964  0.7747 -1.7919
   32CHL1  H18C 2324   3.391   7.048   3.089 -0.5800  2.3496 -0.0053
   32CHL1   C12 2325   3.668   7.025   3.161  0.2096  0.4766  0.5657
   32CHL1  H12A 2326   3.691   7.127   3.199 -2.1089  1.1673  0.2631
   32CHL1  H12B 2327   3.758   6.960   3.174  0.0894  0.2235  0.1524
   32CHL1   C11 2328   3.654   7.047   3.004 -0.1779 -1.5928 -0.0119
   32CHL1  H11A 2329   3.573   7.122   2.989  1.8007  0.5075 -0.7055
   32CHL1  H11B 2330   3.751   7.085   2.965 -0.2165  0.4333  1.6731
   32CHL1    C9 2331   3.616   6.922   2.922 -0.0990  0.6248 -0.3705
   32CHL1    H9 2332   3.712   6.868   2.941 -0.8584 -0.8296 -0.5814
   32CHL1   C10 2333   3.596   6.934   2.766  0.1625 -0.6074 -0.8176
   32CHL1   C19 2334   3.481   7.037   2.736  0.3372  0.0399 -0.2680
   32CHL1  H19A 2335   3.386   7.030   2.792  1.4440 -1.7675  1.4953
   32CHL1  H19B 2336   3.525   7.138   2.756  2.0796 -0.1016 -2.8736
   32CHL1  H19C 2337   3.454   7.043   2.628  0.6165  0.3132 -0.3252
   32CHL1    C1 2338   3.730   6.960   2.687 -0.2506 -0.2090 -0.2900
   32CHL1   H1A 2339   3.775   7.046   2.741  1.1520 -2.0858  1.6878
   32CHL1   H1B 2340   3.800   6.881   2.719 -0.7659 -0.6687 -0.2815
   32CHL1    C2 2341   3.736   6.967   2.529  0.0556  0.2677 -0.0826
   32CHL1   H2A 2342   3.843   6.976   2.501  0.4490  0.1459  1.3076
   32CHL1   H2B 2343   3.679   7.053   2.488  1.1341  1.1452  0.2266
   32CHL1   C20 2344   3.517   6.985   3.477  0.3112  0.0690  0.5056
   32CHL1   H20 2345   3.414   7.025   3.485  0.8602  1.2705  2.3769
   32CHL1   C21 2346   3.605   7.110   3.468  0.1652  0.2798 -0.9313
   32CHL1  H21A 2347   3.584   7.185   3.547 -0.7286  0.5446 -1.4022
   32CHL1  H21B 2348   3.583   7.160   3.371 -0.3092  0.2274 -0.8522
   32CHL1  H21C 2349   3.715   7.093   3.465  0.3177  1.1708 -0.7425
   32CHL1   C22 2350   3.542   6.928   3.621 -0.3933 -0.1192  0.5151
   32CHL1  H22A 2351   3.510   6.823   3.638  1.2538 -0.2363  3.7874
   32CHL1  H22B 2352   3.653   6.922   3.622 -0.3774  0.1237  0.3504
   32CHL1   C23 2353   3.489   7.010   3.736 -0.6607  0.3710 -0.1933
   32CHL1  H23A 2354   3.518   7.117   3.727  0.6085 -0.1337 -3.3199
   32CHL1  H23B 2355   3.378   7.014   3.724 -0.7679  1.3985  0.9572
   32CHL1   C24 2356   3.528   6.950   3.873  0.4393  0.2049 -0.4406
   32CHL1  H24A 2357   3.492   6.845   3.882  0.4207  0.3341  1.3258
   32CHL1  H24B 2358   3.637   6.952   3.893  0.5826 -0.7898 -1.0575
   32CHL1   C25 2359   3.467   7.027   3.994 -0.1280  0.2783 -0.2699
   32CHL1   H25 2360   3.369   7.064   3.958  0.8563  3.9443  0.3708
   32CHL1   C26 2361   3.441   6.941   4.112 -0.4488 -0.3070 -0.1564
   32CHL1  H26A 2362   3.409   7.003   4.199 -1.3146 -0.8521 -0.0758
   32CHL1  H26B 2363   3.354   6.874   4.096 -0.2309 -1.2274  2.0957
   32CHL1  H26C 2364   3.526   6.872   4.129 -0.5179 -0.5356 -0.7320
   32CHL1   C27 2365   3.553   7.153   4.024 -0.0343  0.3982  0.3797
   32CHL1  H27A 2366   3.646   7.129   4.080 -0.4601  0.8875  1.3190
   32CHL1  H27B 2367   3.575   7.208   3.930 -1.9088 -1.0627 -0.9964
   32CHL1  H27C 2368   3.502   7.224   4.092 -0.1260  1.1729 -0.4826
   33CHL1    C3 2369   3.171   0.327   2.599  0.0262  0.3057  0.4532
   33CHL1    H3 2370   3.206   0.224   2.580 -0.0592  0.4619 -0.5688
   33CHL1    O3 2371   3.264   0.404   2.525  0.1929  0.2001  0.3251
   33CHL1   H3' 2372   3.295   0.343   2.458  0.5997  0.9833 -0.2128
   33CHL1    C4 2373   3.023   0.335   2.546 -0.1160 -0.2392 -0.0690
   33CHL1   H4A 2374   2.993   0.439   2.520 -3.0590 -0.0728  3.2301
   33CHL1   H4B 2375   3.033   0.279   2.450  0.2592  0.4557 -0.4384
   33CHL1    C5 2376   2.922   0.275   2.635  0.8087  0.4339  0.2595
   33CHL1    C6 2377   2.825   0.187   2.595 -0.1034  0.5490 -0.0762
   33CHL1    H6 2378   2.825   0.154   2.490 -0.8754 -1.1922  0.4259
   33CHL1    C7 2379   2.711   0.131   2.682  0.1349 -0.8753  0.3342
   33CHL1   H7A 2380   2.610   0.118   2.639 -1.1518  0.6747  2.6852
   33CHL1   H7B 2381   2.740   0.028   2.711 -2.6158 -1.8097 -0.0179
   33CHL1    C8 2382   2.689   0.216   2.812 -0.2305  0.8133 -0.0177
   33CHL1    H8 2383   2.629   0.305   2.782 -3.9945 -1.6073 -0.4692
   33CHL1   C14 2384   2.606   0.134   2.912  0.3319  0.3329  0.4912
   33CHL1   H14 2385   2.664   0.047   2.950  0.0798  0.0045  0.1305
   33CHL1   C15 2386   2.475   0.080   2.868  0.3040  0.1630 -0.2724
   33CHL1  H15A 2387   2.426   0.137   2.787  0.7388  0.8748 -0.0423
   33CHL1  H15B 2388   2.491  -0.018   2.819  1.5325 -0.7040  1.7348
   33CHL1   C16 2389   2.391   0.063   2.999  0.0781  0.2714 -0.3991
   33CHL1  H16A 2390   2.297   0.118   2.977 -1.1870 -1.3890  0.6060
   33CHL1  H16B 2391   2.358  -0.041   3.022 -1.7277  1.0923  0.9658
   33CHL1   C17 2392   2.479   0.120   3.112 -0.6032 -0.0114 -1.0141
   33CHL1   H17 2393   2.542   0.036   3.148  0.4514  1.5372  0.9563
   33CHL1   C13 2394   2.580   0.214   3.042 -0.6045 -0.4549  0.5142
   33CHL1   C18 2395   2.508   0.352   3.024  0.3496 -0.2501 -0.5336
   33CHL1  H18A 2396   2.571   0.423   2.968  0.8299 -0.1119  0.1635
   33CHL1  H18B 2397   2.415   0.326   2.968 -1.0458 -1.0411  1.9699
   33CHL1  H18C 2398   2.487   0.409   3.117  2.8971  3.2914 -1.9182
   33CHL1   C12 2399   2.720   0.240   3.115  0.1109  0.2591 -0.3400
   33CHL1  H12A 2400   2.705   0.298   3.209 -0.0914 -2.7578  1.6216
   33CHL1  H12B 2401   2.764   0.141   3.139 -1.3778 -0.6008 -1.0166
   33CHL1   C11 2402   2.819   0.306   3.016  0.5250 -0.0666  0.1408
   33CHL1  H11A 2403   2.787   0.412   3.011 -2.2511 -0.8701 -0.7903
   33CHL1  H11B 2404   2.918   0.302   3.068 -1.0284 -2.6722  3.3113
   33CHL1    C9 2405   2.824   0.246   2.875  0.5027 -0.3762  0.2869
   33CHL1    H9 2406   2.872   0.148   2.895 -0.3786 -1.2271 -1.5863
   33CHL1   C10 2407   2.921   0.318   2.778  0.2515  0.1573  0.0777
   33CHL1   C19 2408   2.886   0.467   2.779 -0.4580  0.1612 -0.3964
   33CHL1  H19A 2409   2.933   0.531   2.701  1.2996 -0.6765 -0.0693
   33CHL1  H19B 2410   2.776   0.478   2.761 -0.5930  0.3818  0.5327
   33CHL1  H19C 2411   2.911   0.516   2.875  1.3558 -1.1048 -0.1754
   33CHL1    C1 2412   3.063   0.297   2.833  0.3557 -0.2403  0.2141
   33CHL1   H1A 2413   3.073   0.334   2.937  0.2207 -2.0699  0.9173
   33CHL1   H1B 2414   3.074   0.186   2.832  0.1003 -0.3102 -2.2881
   33CHL1    C2 2415   3.177   0.354   2.749 -0.6969  0.4691 -0.8240
   33CHL1   H2A 2416   3.275   0.321   2.789 -0.5477  2.4421  0.5670
   33CHL1   H2B 2417   3.171   0.464   2.757  0.2947  0.4073  1.8949
   33CHL1   C20 2418   2.408   0.162   3.242  0.4701  0.1459 -0.2049
   33CHL1   H20 2419   2.461   0.244   3.295  0.1639 -0.4821  1.1227
   33CHL1   C21 2420   2.423   0.046   3.328  0.3605  0.8114 -0.5322
   33CHL1  H21A 2421   2.528   0.028   3.358 -0.0783 -1.4820 -0.2256
   33CHL1  H21B 2422   2.371  -0.046   3.296 -2.0872  1.3576  1.5172
   33CHL1  H21C 2423   2.392   0.064   3.433  2.1999 -0.8506  0.3709
   33CHL1   C22 2424   2.261   0.209   3.227  0.3825 -1.2108 -0.1067
   33CHL1  H22A 2425   2.252   0.299   3.163  0.3635 -0.6822  0.6283
   33CHL1  H22B 2426   2.201   0.125   3.187  1.1343 -2.0523  0.4990
   33CHL1   C23 2427   2.191   0.241   3.362 -0.2776 -0.6731 -0.3216
   33CHL1  H23A 2428   2.089   0.283   3.355  0.0665  1.0312  2.7838
   33CHL1  H23B 2429   2.181   0.151   3.426 -0.9449 -1.1203 -1.0430
   33CHL1   C24 2430   2.262   0.348   3.455 -0.0086 -0.2342 -0.4222
   33CHL1  H24A 2431   2.365   0.309   3.472  0.9028  1.7441 -1.0874
   33CHL1  H24B 2432   2.258   0.454   3.421  0.6597  0.6052  1.9281
   33CHL1   C25 2433   2.201   0.359   3.594 -0.7971 -0.1253 -0.8215
   33CHL1   H25 2434   2.091   0.363   3.576 -0.9966  1.5126  0.4806
   33CHL1   C26 2435   2.236   0.240   3.688 -0.5696  0.0063 -0.4097
   33CHL1  H26A 2436   2.343   0.213   3.678 -0.3844  1.2371 -2.4682
   33CHL1  H26B 2437   2.201   0.268   3.789 -0.5285  0.5255 -0.5380
   33CHL1  H26C 2438   2.182   0.146   3.662 -0.6205 -1.0369  2.9592
   33CHL1   C27 2439   2.246   0.496   3.663 -0.5043 -0.0037 -0.4962
   33CHL1  H27A 2440   2.207   0.506   3.767 -0.8802 -0.8906 -0.5390
   33CHL1  H27B 2441   2.357   0.491   3.664 -0.3575  2.1226  1.8482
   33CHL1  H27C 2442   2.213   0.585   3.607 -1.1701 -0.7996 -1.4004
   34CHL1    C3 2443   4.724   1.189   2.599  0.7556  0.0985  0.1221
   34CHL1    H3 2444   4.617   1.159   2.604  0.4552  1.0687 -0.2424
   34CHL1    O3 2445   4.757   1.226   2.466 -0.2394  0.1646 -0.3598
   34CHL1   H3' 2446   4.850   1.204   2.461 -0.2762 -0.4064  0.9058
   34CHL1    C4 2447   4.766   1.304   2.692  0.2518 -0.2983 -0.1800
   34CHL1   H4A 2448   4.867   1.344   2.670  0.5261 -0.2027  1.1754
   34CHL1   H4B 2449   4.695   1.384   2.661 -1.6475 -1.5391  0.7081
   34CHL1    C5 2450   4.746   1.268   2.837 -0.2097  0.2958  0.1924
   34CHL1    C6 2451   4.672   1.343   2.922  0.2660 -0.3496  0.6632
   34CHL1    H6 2452   4.620   1.431   2.882  1.8572 -0.4843 -1.9039
   34CHL1    C7 2453   4.664   1.315   3.068 -0.2925  0.1750  0.0587
   34CHL1   H7A 2454   4.643   1.401   3.136 -0.3446  0.4493 -0.3046
   34CHL1   H7B 2455   4.583   1.239   3.075  1.1411 -1.7703 -2.7253
   34CHL1    C8 2456   4.793   1.239   3.117  0.4697 -0.0738 -0.3267
   34CHL1    H8 2457   4.877   1.310   3.098  1.9719 -1.5795  0.4905
   34CHL1   C14 2458   4.785   1.207   3.264  0.1191  0.1058  0.3221
   34CHL1   H14 2459   4.706   1.130   3.273  0.3323 -0.3057 -0.9927
   34CHL1   C15 2460   4.742   1.310   3.364 -0.3485 -0.3661 -0.8194
   34CHL1  H15A 2461   4.783   1.406   3.327  0.6709 -0.1393  0.7727
   34CHL1  H15B 2462   4.633   1.321   3.383  0.0956  3.7208  0.2654
   34CHL1   C16 2463   4.792   1.251   3.501 -0.5112 -0.2183 -0.5107
   34CHL1  H16A 2464   4.861   1.327   3.544 -1.0606  0.9244 -1.5567
   34CHL1  H16B 2465   4.713   1.247   3.579  0.3962  1.9198  0.6003
   34CHL1   C17 2466   4.874   1.121   3.471  0.4370  0.6963 -0.5845
   34CHL1   H17 2467   4.819   1.025   3.481  3.0664 -1.0529 -1.8163
   34CHL1   C13 2468   4.905   1.135   3.326  0.6343  0.4586  0.1430
   34CHL1   C18 2469   5.030   1.229   3.307  0.3341  0.7596 -0.3726
   34CHL1  H18A 2470   5.073   1.237   3.205 -3.0690 -2.0138 -2.2129
   34CHL1  H18B 2471   5.013   1.328   3.355  0.0122  0.1300  0.8506
   34CHL1  H18C 2472   5.116   1.186   3.363  0.3936  0.7989 -0.4330
   34CHL1   C12 2473   4.925   1.003   3.249 -0.0869  0.4897 -0.0819
   34CHL1  H12A 2474   5.015   0.946   3.278 -0.1513  0.2656 -0.3225
   34CHL1  H12B 2475   4.839   0.933   3.249  0.3011  0.0054 -0.5621
   34CHL1   C11 2476   4.939   1.026   3.092 -0.2238  0.0985  0.2291
   34CHL1  H11A 2477   5.041   1.068   3.082 -1.1481  1.9496 -2.6950
   34CHL1  H11B 2478   4.917   0.937   3.030  0.8055  0.6535 -0.9869
   34CHL1    C9 2479   4.826   1.120   3.036 -0.1598 -0.0175 -0.0726
   34CHL1    H9 2480   4.744   1.049   3.060  0.4132 -0.1095  1.7329
   34CHL1   C10 2481   4.840   1.145   2.881  0.8753 -0.4340  0.1388
   34CHL1   C19 2482   4.988   1.185   2.862  0.8875  0.2674  0.0842
   34CHL1  H19A 2483   5.012   1.223   2.761 -1.5323  2.7665  0.3606
   34CHL1  H19B 2484   5.024   1.262   2.933  2.1035  0.1050 -0.3318
   34CHL1  H19C 2485   5.045   1.091   2.881  0.1304 -0.6092 -1.7631
   34CHL1    C1 2486   4.794   1.031   2.792 -0.1637  0.1585  0.3546
   34CHL1   H1A 2487   4.867   0.949   2.804  0.2800  0.2776 -1.3011
   34CHL1   H1B 2488   4.692   0.999   2.822 -0.3483  1.2782  0.9860
   34CHL1    C2 2489   4.787   1.053   2.638 -0.4307 -0.3879  0.4650
   34CHL1   H2A 2490   4.726   0.976   2.587 -0.9397 -2.4100  3.8294
   34CHL1   H2B 2491   4.892   1.049   2.602  0.0540 -0.6337  1.8314
   34CHL1   C20 2492   4.992   1.091   3.579 -0.1715  0.0933  0.1303
   34CHL1   H20 2493   5.080   1.159   3.569 -0.4152  0.2833 -0.8535
   34CHL1   C21 2494   5.048   0.945   3.563 -0.1347 -0.0947 -0.3831
   34CHL1  H21A 2495   5.124   0.922   3.641 -2.3320 -1.3722  1.4924
   34CHL1  H21B 2496   5.083   0.918   3.461  1.1278 -1.2324  0.3261
   34CHL1  H21C 2497   4.973   0.868   3.588 -0.4666  0.3773  0.0912
   34CHL1   C22 2498   4.960   1.127   3.728  0.1159  0.1201 -0.5931
   34CHL1  H22A 2499   4.857   1.106   3.764 -0.0888  0.8514 -0.7403
   34CHL1  H22B 2500   5.009   1.043   3.783  0.4814  1.2605  0.9182
   34CHL1   C23 2501   5.013   1.260   3.786  0.0673  0.2256  0.1264
   34CHL1  H23A 2502   5.119   1.260   3.755  0.3263  1.9246  0.9219
   34CHL1  H23B 2503   4.970   1.354   3.746 -1.1112 -0.7402 -0.9493
   34CHL1   C24 2504   4.993   1.263   3.938 -0.3108  0.2730  0.3066
   34CHL1  H24A 2505   4.940   1.168   3.959  0.5410 -0.3359 -0.2114
   34CHL1  H24B 2506   5.089   1.259   3.994 -0.2550 -0.2115  0.1764
   34CHL1   C25 2507   4.890   1.372   3.988  0.1529  1.0348 -0.0050
   34CHL1   H25 2508   4.926   1.463   3.934 -0.5588  0.7208 -1.0408
   34CHL1   C26 2509   4.750   1.344   3.927 -0.6965 -0.4337  0.4012
   34CHL1  H26A 2510   4.694   1.437   3.948 -0.1852 -0.0406  0.0692
   34CHL1  H26B 2511   4.763   1.313   3.821  1.7738  0.4964  0.3691
   34CHL1  H26C 2512   4.692   1.270   3.986 -1.0495 -1.9340 -1.6981
   34CHL1   C27 2513   4.880   1.399   4.135 -0.3107 -0.7490  0.6095
   34CHL1  H27A 2514   4.812   1.485   4.154  0.6711  0.4565 -1.0906
   34CHL1  H27B 2515   4.831   1.312   4.185 -1.7133  0.0574  0.6789
   34CHL1  H27C 2516   4.984   1.418   4.168  0.6453  1.2990 -3.0349
   35CHL1    C3 2517   4.171   0.385   2.605 -0.1692 -0.6687  0.3407
   35CHL1    H3 2518   4.118   0.473   2.647 -0.2127 -1.6655  2.5307
   35CHL1    O3 2519   4.189   0.395   2.463  0.3635  0.4946  0.1268
   35CHL1   H3' 2520   4.227   0.313   2.431 -1.3902 -0.2029 -0.3347
   35CHL1    C4 2521   4.305   0.352   2.673 -0.2543  0.2115  0.4180
   35CHL1   H4A 2522   4.345   0.259   2.627 -2.4006 -0.3028 -0.5067
   35CHL1   H4B 2523   4.385   0.424   2.643  1.2742 -0.6054  2.3148
   35CHL1    C5 2524   4.294   0.352   2.824  0.5547  0.5396  0.1465
   35CHL1    C6 2525   4.351   0.445   2.908 -0.3648 -0.1353  0.3369
   35CHL1    H6 2526   4.397   0.540   2.878 -0.5130  0.6211  2.3707
   35CHL1    C7 2527   4.333   0.431   3.055  0.2414  0.2585 -0.0008
   35CHL1   H7A 2528   4.429   0.461   3.102  0.4503  1.2778 -1.0455
   35CHL1   H7B 2529   4.246   0.492   3.087 -1.5883 -2.5429  0.7264
   35CHL1    C8 2530   4.294   0.287   3.103  0.4160  0.1840  0.2528
   35CHL1    H8 2531   4.371   0.209   3.086 -0.0304 -0.2498  0.2125
   35CHL1   C14 2532   4.265   0.285   3.246 -0.0838  0.2344  0.1133
   35CHL1   H14 2533   4.196   0.370   3.268 -0.1575  0.2862 -0.3014
   35CHL1   C15 2534   4.383   0.307   3.342  0.3122 -0.4600 -0.2899
   35CHL1  H15A 2535   4.477   0.252   3.323  0.4329 -0.6058  0.6744
   35CHL1  H15B 2536   4.403   0.416   3.333 -1.1404 -0.3486 -3.4184
   35CHL1   C16 2537   4.318   0.260   3.478  0.1179 -0.8316 -0.0726
   35CHL1  H16A 2538   4.395   0.191   3.519  0.9313  0.2581  0.3027
   35CHL1  H16B 2539   4.299   0.342   3.551 -0.1203  0.7732 -1.8497
   35CHL1   C17 2540   4.184   0.184   3.440 -0.1869 -0.1972 -0.2160
   35CHL1   H17 2541   4.096   0.251   3.453  0.8307  0.7439  2.3928
   35CHL1   C13 2542   4.195   0.156   3.290 -0.1921 -0.0062 -0.1890
   35CHL1   C18 2543   4.288   0.039   3.269  0.1057 -0.0603 -0.2732
   35CHL1  H18A 2544   4.248  -0.056   3.309  0.9559 -0.0685  0.6109
   35CHL1  H18B 2545   4.307   0.033   3.160 -0.6722 -1.3998 -0.3510
   35CHL1  H18C 2546   4.387   0.054   3.318  0.8579  2.9363 -2.4149
   35CHL1   C12 2547   4.056   0.150   3.215 -0.4908 -0.0995 -0.2636
   35CHL1  H12A 2548   4.013   0.059   3.263 -1.4283 -0.1441 -1.1590
   35CHL1  H12B 2549   3.977   0.223   3.242 -2.5410 -2.2950  0.0417
   35CHL1   C11 2550   4.082   0.132   3.067  0.0945 -0.1135  0.6895
   35CHL1  H11A 2551   4.135   0.037   3.044  2.2238  1.2848 -0.5288
   35CHL1  H11B 2552   3.988   0.121   3.009  1.5839 -2.1633 -1.5450
   35CHL1    C9 2553   4.170   0.249   3.018  0.0357 -0.0351  0.1038
   35CHL1    H9 2554   4.104   0.339   3.025 -2.2079 -1.7399  2.7796
   35CHL1   C10 2555   4.205   0.237   2.870 -0.5277 -0.0355 -0.2792
   35CHL1   C19 2556   4.277   0.096   2.848 -0.6822 -0.3306 -0.2183
   35CHL1  H19A 2557   4.352   0.082   2.928 -0.3072 -0.3723 -0.5767
   35CHL1  H19B 2558   4.205   0.012   2.856  1.3402 -2.0545  1.0015
   35CHL1  H19C 2559   4.322   0.095   2.747  0.5160  0.4031  0.2833
   35CHL1    C1 2560   4.078   0.234   2.784  0.3113  0.2307 -0.2299
   35CHL1   H1A 2561   4.030   0.135   2.795  2.8608 -1.0815 -0.0771
   35CHL1   H1B 2562   4.012   0.312   2.829 -0.5324 -0.1545 -0.7914
   35CHL1    C2 2563   4.076   0.266   2.630  0.1505  0.0657  0.3365
   35CHL1   H2A 2564   3.970   0.285   2.604 -0.3526 -0.4219  1.8685
   35CHL1   H2B 2565   4.125   0.175   2.590  2.7233  1.6319 -0.3517
   35CHL1   C20 2566   4.139   0.068   3.531  0.2285  0.2063 -0.1203
   35CHL1   H20 2567   4.178  -0.029   3.494 -1.9775 -0.5814 -0.5716
   35CHL1   C21 2568   3.986   0.054   3.541 -0.1355  0.3429  0.4912
   35CHL1  H21A 2569   3.948   0.127   3.616 -0.8933  0.5668 -0.1061
   35CHL1  H21B 2570   3.958  -0.052   3.561 -0.8732  0.6253  0.9940
   35CHL1  H21C 2571   3.940   0.083   3.445  0.0921 -0.5304  0.1087
   35CHL1   C22 2572   4.202   0.071   3.671  0.8321  0.7336 -0.2541
   35CHL1  H22A 2573   4.313   0.074   3.666  0.9679  0.8094  1.7822
   35CHL1  H22B 2574   4.176   0.171   3.713  0.2024  0.1042  0.9196
   35CHL1   C23 2575   4.176  -0.055   3.765  0.4146  0.0370 -0.0846
   35CHL1  H23A 2576   4.066  -0.066   3.773  0.3273 -1.1920 -2.0974
   35CHL1  H23B 2577   4.220  -0.147   3.721  0.7167  0.5110 -0.7851
   35CHL1   C24 2578   4.224  -0.046   3.907 -0.4696 -0.2581  0.5387
   35CHL1  H24A 2579   4.332  -0.017   3.906 -0.4602  0.3582  4.2547
   35CHL1  H24B 2580   4.185   0.049   3.947 -2.2855 -1.6049  2.1187
   35CHL1   C25 2581   4.177  -0.152   4.003  0.2964  0.1042  0.2327
   35CHL1   H25 2582   4.068  -0.166   3.981  0.4246  1.2853 -1.2654
   35CHL1   C26 2583   4.252  -0.285   3.973 -0.7734  0.7035  0.0966
   35CHL1  H26A 2584   4.246  -0.309   3.865  1.0952 -0.9341  0.2874
   35CHL1  H26B 2585   4.359  -0.267   4.000 -0.5366  2.0882 -1.6059
   35CHL1  H26C 2586   4.211  -0.371   4.031  0.8279 -0.0534  0.1770
   35CHL1   C27 2587   4.186  -0.121   4.146 -0.0982  0.1008  0.6195
   35CHL1  H27A 2588   4.136  -0.025   4.173  2.6043  1.9396 -0.4727
   35CHL1  H27B 2589   4.139  -0.197   4.213 -0.5292  0.5028  0.7786
   35CHL1  H27C 2590   4.291  -0.097   4.175 -0.6713  2.3790  1.0098
   36CHL1    C3 2591   2.747   6.901   5.870 -0.2214  0.8879 -0.4968
   36CHL1    H3 2592   2.849   6.857   5.875 -0.3623  0.0977 -3.0214
   36CHL1    O3 2593   2.703   6.944   5.996 -0.1155 -0.0408  0.2085
   36CHL1   H3' 2594   2.713   6.862   6.045 -1.1866  0.0492  0.5897
   36CHL1    C4 2595   2.737   7.030   5.781  0.1068 -0.6058  0.6715
   36CHL1   H4A 2596   2.636   7.073   5.799 -1.1919 -3.6728  1.4405
   36CHL1   H4B 2597   2.808   7.107   5.815  0.0650  0.7116 -1.9259
   36CHL1    C5 2598   2.758   7.006   5.634  0.8376  0.5972  1.0173
   36CHL1    C6 2599   2.851   7.078   5.557  0.1836  0.6255  0.3712
   36CHL1    H6 2600   2.912   7.162   5.592  0.8065  0.9885 -1.4444
   36CHL1    C7 2601   2.875   7.064   5.405  0.1139 -0.7253 -0.4474
   36CHL1   H7A 2602   2.877   7.163   5.356  1.5322 -0.3941  0.2342
   36CHL1   H7B 2603   2.976   7.021   5.389  1.0810  1.5323 -0.8010
   36CHL1    C8 2604   2.760   6.985   5.345 -0.3986  1.3686  0.6635
   36CHL1    H8 2605   2.680   7.059   5.327 -0.5325  0.9926 -0.3253
   36CHL1   C14 2606   2.803   6.934   5.202 -0.1048 -0.2586 -0.4267
   36CHL1   H14 2607   2.885   6.866   5.233  2.2718  2.5623 -0.1308
   36CHL1   C15 2608   2.882   7.028   5.105 -0.0102 -0.4995 -0.1570
   36CHL1  H15A 2609   2.842   7.132   5.102  0.7445 -0.2061 -0.3697
   36CHL1  H15B 2610   2.991   7.035   5.127 -0.5908  2.5576  2.6058
   36CHL1   C16 2611   2.855   6.963   4.968 -0.0019 -0.0047  1.1092
   36CHL1  H16A 2612   2.788   7.035   4.917  1.3817  0.4153 -0.1870
   36CHL1  H16B 2613   2.949   6.961   4.908 -2.1328  0.3283 -2.5141
   36CHL1   C17 2614   2.778   6.826   4.996  0.2182 -0.7862 -0.2944
   36CHL1   H17 2615   2.851   6.743   5.009 -0.3361 -1.4414 -1.2376
   36CHL1   C13 2616   2.702   6.859   5.125  0.0349 -0.2059 -0.4521
   36CHL1   C18 2617   2.584   6.951   5.088  0.1996 -0.0712 -0.2122
   36CHL1  H18A 2618   2.502   6.891   5.044 -0.2424  0.3039  0.0922
   36CHL1  H18B 2619   2.530   6.988   5.178 -0.0324  0.8345 -0.7201
   36CHL1  H18C 2620   2.612   7.039   5.028  1.0502 -1.4826 -1.9709
   36CHL1   C12 2621   2.656   6.741   5.212  0.5528 -0.1398 -0.0031
   36CHL1  H12A 2622   2.564   6.693   5.173  0.7162 -1.6367  1.3654
   36CHL1  H12B 2623   2.746   6.681   5.238 -0.7342 -0.8396  3.3103
   36CHL1   C11 2624   2.613   6.784   5.351  0.2426 -0.1233  0.2487
   36CHL1  H11A 2625   2.516   6.836   5.337  0.0773 -0.7895 -1.3624
   36CHL1  H11B 2626   2.602   6.692   5.412  2.8226  0.3640  1.6113
   36CHL1    C9 2627   2.716   6.868   5.432  0.2731 -0.2429 -0.3767
   36CHL1    H9 2628   2.802   6.802   5.455  0.0712  0.3362  2.3720
   36CHL1   C10 2629   2.664   6.890   5.580  0.8154  0.0674  0.4703
   36CHL1   C19 2630   2.520   6.941   5.581 -0.0242 -0.8208  0.0618
   36CHL1  H19A 2631   2.487   7.003   5.495  0.6724 -0.7477 -0.1648
   36CHL1  H19B 2632   2.451   6.856   5.599 -2.2482  0.7366 -0.7316
   36CHL1  H19C 2633   2.499   7.009   5.666 -0.7563  2.5041 -2.5558
   36CHL1    C1 2634   2.674   6.763   5.669 -0.1241  0.0182  0.0029
   36CHL1   H1A 2635   2.591   6.705   5.625 -2.7347  2.8303  0.8620
   36CHL1   H1B 2636   2.769   6.707   5.660  0.7692  1.2909  1.0459
   36CHL1    C2 2637   2.649   6.793   5.821 -1.0963 -1.1666 -0.4826
   36CHL1   H2A 2638   2.661   6.703   5.884  0.2866 -1.1135 -0.6306
   36CHL1   H2B 2639   2.554   6.848   5.836  0.3707  1.5827 -0.4999
   36CHL1   C20 2640   2.698   6.784   4.865 -0.5384 -0.9562  0.4602
   36CHL1   H20 2641   2.609   6.850   4.857 -0.2740 -0.5291  0.9952
   36CHL1   C21 2642   2.643   6.651   4.887  0.0663 -0.0849  0.1078
   36CHL1  H21A 2643   2.561   6.631   4.815  0.0157 -0.4748  0.2744
   36CHL1  H21B 2644   2.598   6.644   4.988  1.4271 -1.2333  0.6699
   36CHL1  H21C 2645   2.718   6.570   4.893 -1.5978 -1.6509  0.6485
   36CHL1   C22 2646   2.778   6.800   4.740 -0.8438 -0.2259  0.4094
   36CHL1  H22A 2647   2.788   6.907   4.713 -0.7234 -0.5889 -1.0643
   36CHL1  H22B 2648   2.879   6.759   4.759  0.0733  0.2375 -2.8809
   36CHL1   C23 2649   2.721   6.734   4.604 -0.3470 -0.1388  0.2473
   36CHL1  H23A 2650   2.713   6.625   4.620 -1.6305  0.1963  2.3210
   36CHL1  H23B 2651   2.615   6.761   4.585 -0.5588 -1.2535 -0.1975
   36CHL1   C24 2652   2.806   6.753   4.484  0.7420  0.1634 -0.3534
   36CHL1  H24A 2653   2.914   6.747   4.509  0.6940 -0.2962 -0.2554
   36CHL1  H24B 2654   2.790   6.672   4.410 -2.1095  0.9871 -0.7853
   36CHL1   C25 2655   2.789   6.879   4.391  0.6423 -0.2557 -0.9221
   36CHL1   H25 2656   2.682   6.906   4.399  0.5818 -0.5335 -0.7656
   36CHL1   C26 2657   2.871   6.994   4.452  0.0895  0.2811 -0.0453
   36CHL1  H26A 2658   2.888   7.080   4.384  0.6982  1.9443  2.0632
   36CHL1  H26B 2659   2.809   7.042   4.531  1.3146  1.0286  0.4958
   36CHL1  H26C 2660   2.964   6.951   4.495 -2.0526 -1.9376  2.7524
   36CHL1   C27 2661   2.829   6.847   4.249 -0.0694  0.3211  0.3763
   36CHL1  H27A 2662   2.807   6.926   4.175  1.4811  1.7686  1.3947
   36CHL1  H27B 2663   2.934   6.812   4.246 -0.1819  0.0607 -1.4851
   36CHL1  H27C 2664   2.766   6.762   4.214 -3.0039  1.6532  2.0852
   37CHL1    C3 2665   1.221   1.194   2.834 -0.0690  1.0836  1.0724
   37CHL1    H3 2666   1.124   1.208   2.783 -0.8198 -0.7083  1.9455
   37CHL1    O3 2667   1.322   1.164   2.735 -0.6022  0.3086 -0.3656
   37CHL1   H3' 2668   1.408   1.193   2.765  0.5631 -2.3960 -0.8393
   37CHL1    C4 2669   1.264   1.319   2.917  0.7721 -0.0645 -0.3749
   37CHL1   H4A 2670   1.370   1.323   2.949  0.4593 -0.3325  0.7045
   37CHL1   H4B 2671   1.255   1.407   2.850 -0.6922 -0.0933 -0.2587
   37CHL1    C5 2672   1.165   1.338   3.032 -0.0093 -0.7499 -0.0923
   37CHL1    C6 2673   1.095   1.452   3.055  0.1377 -1.1712  0.9105
   37CHL1    H6 2674   1.124   1.539   2.993  1.8277  0.3681  3.6783
   37CHL1    C7 2675   1.017   1.487   3.177 -0.9100  0.1067  0.3770
   37CHL1   H7A 2676   1.038   1.591   3.211 -1.0965  2.2359 -5.0529
   37CHL1   H7B 2677   0.910   1.488   3.148 -1.2199 -1.8078  1.2789
   37CHL1    C8 2678   1.043   1.383   3.293  0.8319 -0.4067  0.4898
   37CHL1    H8 2679   1.145   1.401   3.332  0.9237 -2.2898  1.2234
   37CHL1   C14 2680   0.936   1.403   3.400  0.1795  0.6836 -0.1586
   37CHL1   H14 2681   0.841   1.384   3.345 -0.6015  0.3532  1.2604
   37CHL1   C15 2682   0.932   1.532   3.478  0.4048  0.3422 -0.0578
   37CHL1  H15A 2683   1.034   1.564   3.506  0.5529  0.2470 -0.4768
   37CHL1  H15B 2684   0.883   1.603   3.407 -0.2229 -1.1437 -1.1839
   37CHL1   C16 2685   0.846   1.493   3.603  0.2291  0.4662  0.4346
   37CHL1  H16A 2686   0.884   1.541   3.695 -2.3757  3.6319  0.0550
   37CHL1  H16B 2687   0.751   1.544   3.575 -0.2446  0.4693  1.9857
   37CHL1   C17 2688   0.840   1.338   3.607  0.0615  0.2477  0.4821
   37CHL1   H17 2689   0.745   1.320   3.552  1.4159  1.1516 -2.3716
   37CHL1   C13 2690   0.944   1.290   3.505  0.1463 -0.0604  0.2363
   37CHL1   C18 2691   1.084   1.292   3.571 -1.2450 -0.0427  0.4204
   37CHL1  H18A 2692   1.162   1.274   3.494  0.1132 -0.7053  1.8896
   37CHL1  H18B 2693   1.109   1.391   3.614 -0.3743  0.7482 -1.7627
   37CHL1  H18C 2694   1.097   1.214   3.649  2.8742 -0.2718 -0.2721
   37CHL1   C12 2695   0.907   1.159   3.437  0.4616 -0.3682 -0.0275
   37CHL1  H12A 2696   0.884   1.077   3.509 -0.7758  0.0837  0.1187
   37CHL1  H12B 2697   0.815   1.187   3.383 -0.2718 -1.9633  0.3221
   37CHL1   C11 2698   1.005   1.119   3.325 -0.1481  0.4473  0.1510
   37CHL1  H11A 2699   1.097   1.076   3.369 -1.5234 -2.0850  0.7006
   37CHL1  H11B 2700   0.952   1.044   3.262 -1.2482  0.9204  0.4857
   37CHL1    C9 2701   1.037   1.239   3.231 -0.0657  0.3169  0.1903
   37CHL1    H9 2702   0.942   1.243   3.174  0.6550 -1.2948 -1.2115
   37CHL1   C10 2703   1.151   1.219   3.125  0.5813 -0.2711 -0.5837
   37CHL1   C19 2704   1.283   1.195   3.200 -0.5196  0.4447 -0.1113
   37CHL1  H19A 2705   1.366   1.169   3.130  0.0632 -2.0843  1.3791
   37CHL1  H19B 2706   1.313   1.277   3.269  0.2176  1.2233 -1.3191
   37CHL1  H19C 2707   1.273   1.097   3.252 -2.0556 -0.0952 -1.3589
   37CHL1    C1 2708   1.119   1.098   3.042 -0.2468 -0.2215 -1.3299
   37CHL1   H1A 2709   1.140   1.007   3.102 -1.3530  0.5904  0.3422
   37CHL1   H1B 2710   1.015   1.108   3.004 -0.5341  0.4100 -0.3886
   37CHL1    C2 2711   1.206   1.074   2.922  0.2306  0.1055 -0.2723
   37CHL1   H2A 2712   1.167   0.989   2.862  0.8039  0.5278 -1.2664
   37CHL1   H2B 2713   1.311   1.046   2.947  0.4485  1.1678  0.0492
   37CHL1   C20 2714   0.812   1.271   3.742 -0.2590 -0.0417 -0.5390
   37CHL1   H20 2715   0.868   1.175   3.744  0.7979  0.5399 -1.2059
   37CHL1   C21 2716   0.662   1.247   3.756  0.1084  0.0944 -0.8810
   37CHL1  H21A 2717   0.618   1.207   3.662 -0.0253 -1.6120 -0.1408
   37CHL1  H21B 2718   0.613   1.338   3.795 -0.9694 -1.2925  1.2263
   37CHL1  H21C 2719   0.645   1.169   3.833 -0.8006  0.3904 -0.7679
   37CHL1   C22 2720   0.867   1.350   3.855 -0.5552  0.7055  0.0470
   37CHL1  H22A 2721   0.958   1.402   3.819  1.2635 -0.2312  2.9524
   37CHL1  H22B 2722   0.812   1.440   3.889 -0.8114  0.2380  0.9214
   37CHL1   C23 2723   0.906   1.254   3.973  0.3231 -0.3007 -0.0117
   37CHL1  H23A 2724   0.811   1.207   4.004 -0.7293  0.9293 -1.2671
   37CHL1  H23B 2725   0.991   1.188   3.944  0.1242  0.4129 -2.3960
   37CHL1   C24 2726   0.963   1.328   4.098  0.8342  0.1092  0.6238
   37CHL1  H24A 2727   1.046   1.383   4.049 -0.0110  0.2313 -0.7169
   37CHL1  H24B 2728   0.893   1.404   4.137  0.5763 -0.1005  0.5674
   37CHL1   C25 2729   1.013   1.232   4.214 -0.5330  0.0244  0.0429
   37CHL1   H25 2730   1.075   1.155   4.162  1.7188 -0.0861  2.6479
   37CHL1   C26 2731   1.107   1.300   4.323  1.0143  0.1287  0.7288
   37CHL1  H26A 2732   1.158   1.224   4.386 -0.3902 -3.0157 -1.6261
   37CHL1  H26B 2733   1.184   1.353   4.263 -0.6962  1.6205 -0.2462
   37CHL1  H26C 2734   1.046   1.367   4.386  1.4121  0.1787  1.0602
   37CHL1   C27 2735   0.890   1.167   4.282 -0.0773  0.9637  0.2304
   37CHL1  H27A 2736   0.838   1.099   4.210  0.8900  0.0759  0.3428
   37CHL1  H27B 2737   0.917   1.105   4.370 -0.7729 -0.2464 -0.3719
   37CHL1  H27C 2738   0.810   1.237   4.312 -0.1309  1.1234 -0.2706
   38CHL1    C3 2739   3.606   0.539   2.515  0.5360 -0.0053  0.1966
   38CHL1    H3 2740   3.570   0.434   2.526  0.1366  0.2570  1.5379
   38CHL1    O3 2741   3.579   0.575   2.380 -0.1048 -0.1695  0.6196
   38CHL1   H3' 2742   3.597   0.669   2.367  2.6733 -0.7373 -0.3949
   38CHL1    C4 2743   3.521   0.632   2.610  0.3450  1.3768 -0.1010
   38CHL1   H4A 2744   3.533   0.736   2.574 -0.9401  0.9541 -1.9101
   38CHL1   H4B 2745   3.414   0.606   2.594 -0.5809  1.4365  4.5563
   38CHL1    C5 2746   3.558   0.620   2.759  0.5631  0.3821  0.1137
   38CHL1    C6 2747   3.455   0.607   2.851 -0.0378  0.1092  0.9559
   38CHL1    H6 2748   3.351   0.609   2.814  0.6736 -0.5580 -1.2998
   38CHL1    C7 2749   3.488   0.592   2.997  0.5835 -0.0333  0.0866
   38CHL1   H7A 2750   3.415   0.642   3.064  0.0589 -1.0393  0.2924
   38CHL1   H7B 2751   3.476   0.485   3.024 -0.0633  0.2318  0.8926
   38CHL1    C8 2752   3.629   0.631   3.035  0.7011  0.2662 -0.2236
   38CHL1    H8 2753   3.641   0.741   3.044  0.9263  0.1286  1.3986
   38CHL1   C14 2754   3.659   0.568   3.172  0.0368 -1.1452  0.0297
   38CHL1   H14 2755   3.645   0.459   3.153  0.1335 -0.9086 -1.4861
   38CHL1   C15 2756   3.557   0.584   3.290  0.2086 -0.5356  0.0928
   38CHL1  H15A 2757   3.525   0.691   3.285 -0.9384 -0.7882  1.5239
   38CHL1  H15B 2758   3.474   0.514   3.266 -1.5100  1.7146 -0.9594
   38CHL1   C16 2759   3.633   0.567   3.425 -0.2010 -0.0965 -0.0840
   38CHL1  H16A 2760   3.618   0.655   3.491  1.7221  0.6839 -0.6085
   38CHL1  H16B 2761   3.600   0.488   3.494 -0.9218  1.5358  1.5195
   38CHL1   C17 2762   3.781   0.530   3.375  0.8274  0.1228 -0.4933
   38CHL1   H17 2763   3.776   0.421   3.360  0.3206 -0.0414  0.7304
   38CHL1   C13 2764   3.798   0.591   3.233 -0.4712 -0.0501 -0.0631
   38CHL1   C18 2765   3.810   0.743   3.248  0.3711  0.2698  0.0617
   38CHL1  H18A 2766   3.831   0.779   3.145  1.3951 -0.6635 -0.0645
   38CHL1  H18B 2767   3.723   0.805   3.279  0.6592  1.3940 -1.2433
   38CHL1  H18C 2768   3.900   0.767   3.308 -0.7074 -0.8909  2.2708
   38CHL1   C12 2769   3.891   0.512   3.136 -0.2268 -0.7522 -0.3424
   38CHL1  H12A 2770   3.998   0.524   3.163  0.0770 -3.3393 -0.1456
   38CHL1  H12B 2771   3.859   0.405   3.141 -2.1963 -0.1658  0.4615
   38CHL1   C11 2772   3.875   0.554   2.989 -0.8613  0.8723 -0.3839
   38CHL1  H11A 2773   3.922   0.655   2.984  0.5820  0.1974 -1.1226
   38CHL1  H11B 2774   3.933   0.493   2.916 -0.5823  0.6100  0.0571
   38CHL1    C9 2775   3.727   0.565   2.934 -0.8002  0.1193  0.0594
   38CHL1    H9 2776   3.701   0.458   2.922  0.2734 -0.1265 -0.1689
   38CHL1   C10 2777   3.708   0.618   2.791  0.2547  0.5999 -0.0486
   38CHL1   C19 2778   3.762   0.763   2.784  0.1666  0.6026  0.0211
   38CHL1  H19A 2779   3.702   0.828   2.851 -2.8511 -0.3135 -1.6173
   38CHL1  H19B 2780   3.870   0.765   2.812  0.1796 -0.8665  0.1625
   38CHL1  H19C 2781   3.752   0.802   2.681 -1.9027  1.3719  0.4681
   38CHL1    C1 2782   3.781   0.523   2.694  0.2671 -0.0443 -0.7311
   38CHL1   H1A 2783   3.888   0.548   2.711 -0.8185  3.8519  1.9368
   38CHL1   H1B 2784   3.767   0.420   2.732 -1.1262  0.0412 -0.9520
   38CHL1    C2 2785   3.756   0.555   2.546  0.3555 -0.2569  0.6800
   38CHL1   H2A 2786   3.795   0.470   2.485  1.3439 -0.1350  1.1242
   38CHL1   H2B 2787   3.804   0.652   2.521  2.9995 -1.6732 -0.1321
   38CHL1   C20 2788   3.885   0.555   3.482 -0.0685 -0.1344  0.8936
   38CHL1   H20 2789   3.884   0.662   3.512  0.1125 -0.0051  0.4423
   38CHL1   C21 2790   4.025   0.525   3.421  0.9067 -0.2092  0.4396
   38CHL1  H21A 2791   4.006   0.427   3.372 -2.3214  0.3923  0.3104
   38CHL1  H21B 2792   4.100   0.533   3.503  0.1296  2.6114  0.9962
   38CHL1  H21C 2793   4.060   0.599   3.346 -0.3859 -0.5484 -0.5300
   38CHL1   C22 2794   3.855   0.463   3.599 -0.4479  0.2081  0.2226
   38CHL1  H22A 2795   3.759   0.492   3.647  0.8023  0.8173  2.4864
   38CHL1  H22B 2796   3.849   0.359   3.560  1.7632  0.6183 -1.4700
   38CHL1   C23 2797   3.954   0.478   3.721  0.5955  0.2109 -0.1644
   38CHL1  H23A 2798   4.058   0.443   3.706  0.6334  0.5311 -0.6420
   38CHL1  H23B 2799   3.962   0.583   3.758  1.0520  0.1453 -0.0713
   38CHL1   C24 2800   3.893   0.394   3.845  0.4811  0.2808 -0.5993
   38CHL1  H24A 2801   3.795   0.437   3.874  0.7413  0.9438 -0.6737
   38CHL1  H24B 2802   3.874   0.293   3.801 -0.3479  0.1159  0.1298
   38CHL1   C25 2803   3.990   0.376   3.964  0.0958 -0.2357  0.1559
   38CHL1   H25 2804   4.091   0.359   3.921  0.6099 -1.3342  1.7154
   38CHL1   C26 2805   3.986   0.498   4.054  0.0133  0.0807 -0.6113
   38CHL1  H26A 2806   4.054   0.577   4.015 -1.9773  1.5903 -1.1773
   38CHL1  H26B 2807   3.883   0.536   4.069  0.2736  0.6475 -0.2338
   38CHL1  H26C 2808   4.016   0.469   4.157 -4.0058 -0.3500  0.5778
   38CHL1   C27 2809   3.942   0.243   4.032  0.2412  0.2598 -0.7339
   38CHL1  H27A 2810   4.019   0.213   4.106 -0.4912 -0.4164 -0.2259
   38CHL1  H27B 2811   3.843   0.256   4.080  0.5828 -1.7694  0.6442
   38CHL1  H27C 2812   3.933   0.160   3.958  0.2505  1.6796 -2.3940
   39CHL1    C3 2813   4.177   1.027   2.591 -0.2256  0.7614  0.0924
   39CHL1    H3 2814   4.084   1.075   2.629 -1.1538 -2.2648  1.9747
   39CHL1    O3 2815   4.172   1.046   2.450  0.4018  0.0243  0.0009
   39CHL1   H3' 2816   4.255   1.010   2.419  0.2786 -1.4548  1.2688
   39CHL1    C4 2817   4.296   1.098   2.647 -0.3809  0.1375 -0.0479
   39CHL1   H4A 2818   4.394   1.060   2.612 -0.2231  0.7846 -0.3152
   39CHL1   H4B 2819   4.306   1.204   2.617  0.1770 -0.0869 -0.6687
   39CHL1    C5 2820   4.292   1.081   2.805 -0.3961 -1.5497  0.1395
   39CHL1    C6 2821   4.299   1.183   2.894 -0.3468  0.0698  0.1158
   39CHL1    H6 2822   4.321   1.285   2.858  2.2420 -0.9047 -1.2708
   39CHL1    C7 2823   4.309   1.175   3.042  0.3049 -0.2360 -0.0999
   39CHL1   H7A 2824   4.372   1.255   3.087 -0.3886 -0.1885  0.8108
   39CHL1   H7B 2825   4.209   1.197   3.085 -0.6087 -2.2787 -1.0275
   39CHL1    C8 2826   4.353   1.036   3.085 -0.5598 -0.1498 -0.2249
   39CHL1    H8 2827   4.460   1.026   3.060 -0.3386  2.4323 -0.5506
   39CHL1   C14 2828   4.333   1.023   3.233  0.6125 -0.2654 -0.4997
   39CHL1   H14 2829   4.224   1.018   3.255  0.9471 -0.8002  1.1490
   39CHL1   C15 2830   4.392   1.139   3.313  0.5196 -0.6745 -0.1441
   39CHL1  H15A 2831   4.487   1.174   3.268 -0.4027 -0.6106 -2.1836
   39CHL1  H15B 2832   4.318   1.222   3.310 -1.7890 -2.5426  1.4807
   39CHL1   C16 2833   4.395   1.079   3.459  0.0440 -0.2524 -0.1982
   39CHL1  H16A 2834   4.504   1.081   3.483  0.7805 -0.0808 -3.1220
   39CHL1  H16B 2835   4.329   1.134   3.529 -0.3594 -0.1480 -0.6529
   39CHL1   C17 2836   4.330   0.932   3.449  0.7317 -0.1831  0.3092
   39CHL1   H17 2837   4.219   0.939   3.455  0.6200 -0.2816 -1.2554
   39CHL1   C13 2838   4.370   0.893   3.301  0.6892  0.5228  0.2267
   39CHL1   C18 2839   4.520   0.879   3.287 -0.8646 -0.3320 -0.4770
   39CHL1  H18A 2840   4.553   0.881   3.180 -0.8653  0.6357 -0.4655
   39CHL1  H18B 2841   4.560   0.968   3.340 -0.5398 -0.5499 -0.3557
   39CHL1  H18C 2842   4.568   0.786   3.323  1.6013  0.7585 -0.7089
   39CHL1   C12 2843   4.279   0.783   3.230  0.1599 -0.4107  0.2298
   39CHL1  H12A 2844   4.311   0.681   3.259 -0.5734 -0.4761  0.8289
   39CHL1  H12B 2845   4.171   0.790   3.255  0.1875 -0.4624  0.3605
   39CHL1   C11 2846   4.276   0.794   3.077 -0.3280  0.3047  0.2246
   39CHL1  H11A 2847   4.371   0.748   3.041  0.3926  1.3302  0.7795
   39CHL1  H11B 2848   4.193   0.725   3.050  0.6064 -0.6132 -0.4232
   39CHL1    C9 2849   4.260   0.928   3.016 -0.2177 -0.7598 -0.2343
   39CHL1    H9 2850   4.160   0.972   3.037  1.0737  2.5207 -0.4412
   39CHL1   C10 2851   4.268   0.935   2.864  0.0784  0.0998  0.7587
   39CHL1   C19 2852   4.387   0.860   2.811  0.0645  0.3459  0.6328
   39CHL1  H19A 2853   4.411   0.880   2.704 -0.5755 -0.8619  0.2410
   39CHL1  H19B 2854   4.480   0.876   2.869 -1.2303  1.0214  2.6204
   39CHL1  H19C 2855   4.369   0.750   2.817 -0.5599  0.3077 -1.1297
   39CHL1    C1 2856   4.143   0.872   2.790  0.1745  0.1393  0.2474
   39CHL1   H1A 2857   4.134   0.767   2.824 -2.9998  1.0099  2.6030
   39CHL1   H1B 2858   4.060   0.933   2.833  1.1927  1.5582  0.2942
   39CHL1    C2 2859   4.155   0.876   2.636 -0.0635 -0.1790  0.0044
   39CHL1   H2A 2860   4.060   0.839   2.592 -0.2377  0.5370 -0.2371
   39CHL1   H2B 2861   4.240   0.813   2.602  1.9022  3.1563 -1.9150
   39CHL1   C20 2862   4.365   0.835   3.558  0.2369 -0.3250  0.3481
   39CHL1   H20 2863   4.465   0.791   3.539  0.6376  0.5951  0.2325
   39CHL1   C21 2864   4.262   0.723   3.547 -0.3423  0.2510 -0.0727
   39CHL1  H21A 2865   4.320   0.638   3.588  0.4843  0.8179 -0.0373
   39CHL1  H21B 2866   4.230   0.689   3.446  0.1089 -1.5815  0.3708
   39CHL1  H21C 2867   4.174   0.727   3.614 -0.6927  0.9677 -0.5667
   39CHL1   C22 2868   4.369   0.894   3.697  0.3731 -0.4116 -0.4464
   39CHL1  H22A 2869   4.443   0.974   3.677 -0.2863  0.7640  1.4652
   39CHL1  H22B 2870   4.274   0.946   3.725  0.9166  0.4057 -0.0769
   39CHL1   C23 2871   4.416   0.806   3.806 -0.4815  0.2165 -0.6589
   39CHL1  H23A 2872   4.353   0.714   3.806 -0.4433  0.0682 -3.7963
   39CHL1  H23B 2873   4.521   0.775   3.790 -0.3492 -0.4507  1.2724
   39CHL1   C24 2874   4.423   0.879   3.942  0.2977  0.2189  0.7353
   39CHL1  H24A 2875   4.464   0.810   4.018 -0.5262 -0.2097  0.8030
   39CHL1  H24B 2876   4.494   0.964   3.936  0.0345  0.5188  1.6131
   39CHL1   C25 2877   4.287   0.940   4.001 -0.5081 -0.3077 -0.9726
   39CHL1   H25 2878   4.232   0.998   3.924  1.9467 -3.3207 -5.4294
   39CHL1   C26 2879   4.190   0.823   4.033 -0.4346  0.0150 -0.2613
   39CHL1  H26A 2880   4.093   0.872   4.056  1.7584  3.5352  2.4609
   39CHL1  H26B 2881   4.179   0.755   3.946 -1.3535 -0.5722  0.2953
   39CHL1  H26C 2882   4.228   0.772   4.124 -2.0004 -0.4031  0.1962
   39CHL1   C27 2883   4.297   1.020   4.127  0.7875  0.2025 -0.7666
   39CHL1  H27A 2884   4.349   0.974   4.213  1.9888  4.2380  0.9465
   39CHL1  H27B 2885   4.356   1.115   4.121  2.5856 -0.7767  0.5985
   39CHL1  H27C 2886   4.192   1.047   4.151  1.2044  0.2130  1.2061
   40CHL1    C3 2887   1.988   2.712   2.596 -0.7685  0.2132  0.6795
   40CHL1    H3 2888   2.072   2.784   2.590 -1.2380  0.7896  0.9051
   40CHL1    O3 2889   1.946   2.681   2.468 -0.3484 -0.3504  0.4419
   40CHL1   H3' 2890   1.883   2.610   2.482 -0.6356 -0.4441 -1.1535
   40CHL1    C4 2891   2.040   2.589   2.665 -0.2811 -0.5537 -0.3230
   40CHL1   H4A 2892   1.958   2.514   2.659 -1.4645  0.5608  1.2572
   40CHL1   H4B 2893   2.132   2.548   2.616  0.2903 -0.1460  0.3927
   40CHL1    C5 2894   2.076   2.608   2.809 -1.2102  0.5135  0.2760
   40CHL1    C6 2895   2.202   2.579   2.854 -0.6195  1.0229 -0.2828
   40CHL1    H6 2896   2.280   2.536   2.789 -0.6306  0.3719  0.1258
   40CHL1    C7 2897   2.240   2.591   3.003  0.0639  0.8938 -0.1650
   40CHL1   H7A 2898   2.303   2.504   3.033  0.0941  0.2190 -2.0756
   40CHL1   H7B 2899   2.316   2.672   3.004 -0.4056  1.3345  0.1563
   40CHL1    C8 2900   2.125   2.624   3.101  0.0367 -0.2211 -0.1546
   40CHL1    H8 2901   2.073   2.527   3.113  0.8935 -0.6909 -0.1928
   40CHL1   C14 2902   2.167   2.682   3.234  0.3812  0.5252 -0.1243
   40CHL1   H14 2903   2.220   2.776   3.208  0.3319  0.9882  1.3538
   40CHL1   C15 2904   2.282   2.618   3.317  0.6935  0.0244 -0.4436
   40CHL1  H15A 2905   2.248   2.513   3.323 -1.5224  0.7405  0.2564
   40CHL1  H15B 2906   2.382   2.623   3.267  0.5188  0.6363 -0.7453
   40CHL1   C16 2907   2.273   2.690   3.452  0.1633 -0.3056  0.3511
   40CHL1  H16A 2908   2.280   2.620   3.538  0.3833 -0.6381  0.0641
   40CHL1  H16B 2909   2.345   2.771   3.477 -0.8259  0.2565  1.4861
   40CHL1   C17 2910   2.127   2.756   3.463  0.6810  0.0250  0.0825
   40CHL1   H17 2911   2.146   2.866   3.463 -1.6877  0.5267  1.8595
   40CHL1   C13 2912   2.053   2.721   3.333 -0.1958 -0.4492  0.0087
   40CHL1   C18 2913   1.963   2.593   3.356 -0.2125  0.2416  0.2036
   40CHL1  H18A 2914   1.933   2.541   3.263 -0.9536 -1.3449  1.2987
   40CHL1  H18B 2915   2.025   2.522   3.415 -0.9954 -0.0289  0.7086
   40CHL1  H18C 2916   1.868   2.631   3.398 -0.8827  0.1393 -1.1457
   40CHL1   C12 2917   1.971   2.829   3.255 -0.5991  0.0538 -0.0462
   40CHL1  H12A 2918   1.886   2.870   3.313 -1.1281 -0.1678 -0.6568
   40CHL1  H12B 2919   2.037   2.918   3.247 -2.2159  1.7223  3.2930
   40CHL1   C11 2920   1.910   2.778   3.128 -0.2477 -0.1106  0.0864
   40CHL1  H11A 2921   1.827   2.707   3.148 -0.3506 -1.0243 -3.0602
   40CHL1  H11B 2922   1.865   2.868   3.081 -0.4840 -0.2370  0.0658
   40CHL1    C9 2923   2.022   2.726   3.032  0.1371  0.0762  0.1269
   40CHL1    H9 2924   2.085   2.813   3.004  1.7374 -1.1926 -0.3688
   40CHL1   C10 2925   1.974   2.671   2.893 -0.2459 -0.1423 -0.0502
   40CHL1   C19 2926   1.858   2.569   2.927  0.1173  0.6734 -0.7558
   40CHL1  H19A 2927   1.892   2.487   2.993 -0.0176  0.6257 -0.7455
   40CHL1  H19B 2928   1.763   2.614   2.962 -0.3638 -1.1278  0.3757
   40CHL1  H19C 2929   1.833   2.519   2.831  1.9512  0.0413 -0.9374
   40CHL1    C1 2930   1.915   2.794   2.820  0.2548 -0.5037 -0.4472
   40CHL1   H1A 2931   1.827   2.827   2.880  0.6152 -0.0843 -0.1446
   40CHL1   H1B 2932   1.981   2.884   2.820  0.1004 -0.3502 -2.5399
   40CHL1    C2 2933   1.867   2.768   2.676 -0.8890 -0.5517  0.5560
   40CHL1   H2A 2934   1.812   2.855   2.633 -1.5141  1.2827  4.6329
   40CHL1   H2B 2935   1.797   2.682   2.682 -1.1125 -0.4778 -0.6286
   40CHL1   C20 2936   2.058   2.730   3.600 -0.8015 -0.5433 -0.2372
   40CHL1   H20 2937   2.036   2.621   3.605 -0.7692 -0.5545 -0.3296
   40CHL1   C21 2938   1.934   2.818   3.604 -0.3514 -0.4651 -0.2328
   40CHL1  H21A 2939   1.879   2.813   3.701 -1.9952  0.1281 -1.0861
   40CHL1  H21B 2940   1.862   2.794   3.523  0.4558 -0.4264 -0.9622
   40CHL1  H21C 2941   1.971   2.921   3.587 -2.2620  0.2095 -0.6336
   40CHL1   C22 2942   2.148   2.777   3.720 -0.0245  0.2290  0.7159
   40CHL1  H22A 2943   2.253   2.749   3.694 -0.1577  1.1530 -0.9952
   40CHL1  H22B 2944   2.151   2.888   3.716 -0.1467  0.2147 -2.5357
   40CHL1   C23 2945   2.107   2.732   3.850 -0.4769  0.1235  0.4541
   40CHL1  H23A 2946   2.029   2.800   3.891  0.4184  0.1583  2.2109
   40CHL1  H23B 2947   2.068   2.629   3.836  0.1750  0.1051 -1.4961
   40CHL1   C24 2948   2.242   2.730   3.926 -0.2021 -0.7222  0.2862
   40CHL1  H24A 2949   2.326   2.694   3.863  0.2847  0.7127  0.0873
   40CHL1  H24B 2950   2.284   2.828   3.955 -0.2732 -0.7937  0.6365
   40CHL1   C25 2951   2.233   2.636   4.050 -0.3334 -0.3712  0.8291
   40CHL1   H25 2952   2.209   2.533   4.018  0.1338 -0.2212 -0.0484
   40CHL1   C26 2953   2.362   2.646   4.123  0.2894 -0.2128  0.3097
   40CHL1  H26A 2954   2.388   2.753   4.142  1.0985 -0.6994  2.1253
   40CHL1  H26B 2955   2.374   2.605   4.225  0.3462  2.3726  1.4179
   40CHL1  H26C 2956   2.453   2.608   4.071  0.7396 -0.5216  1.3037
   40CHL1   C27 2957   2.117   2.681   4.142 -0.3920  0.0370  0.3514
   40CHL1  H27A 2958   2.017   2.678   4.095 -0.0689  3.6122 -0.8811
   40CHL1  H27B 2959   2.135   2.626   4.237  1.6444  0.7299  0.4278
   40CHL1  H27C 2960   2.125   2.785   4.180 -2.8830  0.4787 -0.1943
   41CHL1    C3 2961   5.058   2.485   2.901  0.1970 -0.1374 -0.1729
   41CHL1    H3 2962   5.143   2.473   2.972 -0.5804 -0.3337  0.7380
   41CHL1    O3 2963   5.115   2.459   2.776 -0.4178  0.5652  0.3641
   41CHL1   H3' 2964   5.045   2.473   2.712  0.2991  0.7509 -0.3923
   41CHL1    C4 2965   4.955   2.383   2.946 -0.2988 -0.4968  0.2672
   41CHL1   H4A 2966   4.876   2.387   2.868  1.3608 -1.6936 -1.5611
   41CHL1   H4B 2967   4.994   2.279   2.933 -0.5862 -0.6247  0.4141
   41CHL1    C5 2968   4.901   2.414   3.087 -0.5174 -0.2811  0.5985
   41CHL1    C6 2969   4.920   2.327   3.185 -0.5849 -0.5514 -0.1050
   41CHL1    H6 2970   4.972   2.230   3.177  1.1517  0.1748  1.6479
   41CHL1    C7 2971   4.864   2.348   3.317  0.0658  0.0393  0.4122
   41CHL1   H7A 2972   4.814   2.259   3.361 -0.6403 -0.4120 -1.2514
   41CHL1   H7B 2973   4.952   2.357   3.385  0.9395 -2.8101 -0.1981
   41CHL1    C8 2974   4.772   2.467   3.338  0.2788 -0.0942  0.3007
   41CHL1    H8 2975   4.672   2.442   3.296  0.3358 -0.0324  0.1266
   41CHL1   C14 2976   4.771   2.506   3.485 -0.1780 -0.2359 -0.4829
   41CHL1   H14 2977   4.877   2.530   3.508 -0.0848 -2.4838  1.8696
   41CHL1   C15 2978   4.729   2.396   3.583 -0.2221 -0.7261  0.8423
   41CHL1  H15A 2979   4.644   2.342   3.538  1.8888 -1.7592 -2.2273
   41CHL1  H15B 2980   4.805   2.318   3.604 -0.6409 -1.6857 -0.9955
   41CHL1   C16 2981   4.691   2.492   3.707 -0.1305  0.3208 -0.1971
   41CHL1  H16A 2982   4.593   2.459   3.749 -1.5093  0.5848 -2.9312
   41CHL1  H16B 2983   4.768   2.481   3.785 -0.1665  2.3700  0.1631
   41CHL1   C17 2984   4.709   2.640   3.656 -0.3029 -0.5282  0.3997
   41CHL1   H17 2985   4.818   2.661   3.669  0.3953 -1.8961 -2.3728
   41CHL1   C13 2986   4.684   2.629   3.511 -0.1093 -0.6649  0.3907
   41CHL1   C18 2987   4.534   2.605   3.477 -0.3200  0.5555 -0.0840
   41CHL1  H18A 2988   4.484   2.704   3.476  2.2531  1.9408  0.8524
   41CHL1  H18B 2989   4.520   2.559   3.377 -2.8854  0.5777  0.1971
   41CHL1  H18C 2990   4.495   2.529   3.549  0.6138  1.7420  1.7528
   41CHL1   C12 2991   4.738   2.749   3.426 -0.2636 -0.2763  0.0099
   41CHL1  H12A 2992   4.668   2.835   3.434 -2.3850 -2.0071  1.3907
   41CHL1  H12B 2993   4.840   2.777   3.461 -1.1355  2.5150  0.5677
   41CHL1   C11 2994   4.741   2.709   3.271 -0.0519  0.0983 -0.1794
   41CHL1  H11A 2995   4.639   2.684   3.236 -0.2277  0.2390  0.2293
   41CHL1  H11B 2996   4.782   2.793   3.210  1.5868 -0.7295 -0.2881
   41CHL1    C9 2997   4.823   2.584   3.253 -0.1357  0.3317 -0.3953
   41CHL1    H9 2998   4.923   2.605   3.297  0.1519 -1.0255 -0.3515
   41CHL1   C10 2999   4.842   2.552   3.104 -0.2530 -0.9910 -0.5800
   41CHL1   C19 3000   4.700   2.551   3.025  0.0960  0.8885  0.0838
   41CHL1  H19A 3001   4.635   2.475   3.073  2.4095 -2.3191 -1.4447
   41CHL1  H19B 3002   4.654   2.652   3.033 -1.1439  0.2066  2.3253
   41CHL1  H19C 3003   4.727   2.529   2.920  2.9091  2.0197  0.4718
   41CHL1    C1 3004   4.931   2.658   3.038  0.7936 -0.5152  0.4336
   41CHL1   H1A 3005   4.865   2.747   3.026  3.0946  1.3331  0.6197
   41CHL1   H1B 3006   5.016   2.693   3.101  1.0243 -0.7437  0.2502
   41CHL1    C2 3007   4.995   2.625   2.902  0.7605 -0.3601 -0.4326
   41CHL1   H2A 3008   5.081   2.694   2.891  0.1845  0.4666  0.1621
   41CHL1   H2B 3009   4.920   2.636   2.820 -0.8538  1.8874  1.2227
   41CHL1   C20 3010   4.638   2.754   3.729  0.8347 -0.0309  0.2958
   41CHL1   H20 3011   4.637   2.839   3.658  2.2495  0.5177  0.8876
   41CHL1   C21 3012   4.734   2.795   3.843  0.0657  0.5815 -0.4779
   41CHL1  H21A 3013   4.698   2.895   3.876 -0.1296  0.2388  0.3957
   41CHL1  H21B 3014   4.838   2.805   3.808  0.6246  1.2031  1.2455
   41CHL1  H21C 3015   4.723   2.723   3.927  2.9813 -2.4764 -2.4555
   41CHL1   C22 3016   4.495   2.712   3.776  0.2344 -0.7287  0.3987
   41CHL1  H22A 3017   4.447   2.636   3.710 -0.9157 -0.4673  0.9064
   41CHL1  H22B 3018   4.495   2.666   3.877 -2.1960 -1.7859 -0.0100
   41CHL1   C23 3019   4.395   2.825   3.795 -0.9237 -0.7990  0.3370
   41CHL1  H23A 3020   4.315   2.786   3.862  0.2254  0.1843  2.3656
   41CHL1  H23B 3021   4.437   2.906   3.857 -0.2194  0.4037 -1.6237
   41CHL1   C24 3022   4.336   2.884   3.661  0.0385  0.1739 -0.3136
   41CHL1  H24A 3023   4.412   2.924   3.591 -0.3144 -2.2917 -2.2595
   41CHL1  H24B 3024   4.297   2.792   3.610 -0.1448  0.1305 -0.0976
   41CHL1   C25 3025   4.212   2.974   3.684  0.7470  0.0888  0.2441
   41CHL1   H25 3026   4.155   2.938   3.772 -1.9417  3.0549 -0.1186
   41CHL1   C26 3027   4.261   3.117   3.712 -0.3666  0.0776 -0.3085
   41CHL1  H26A 3028   4.329   3.117   3.800 -1.2029  0.5822  0.3638
   41CHL1  H26B 3029   4.323   3.160   3.631 -0.0152 -0.1140 -0.1446
   41CHL1  H26C 3030   4.170   3.177   3.735 -1.7215 -1.5744 -1.0979
   41CHL1   C27 3031   4.116   2.979   3.566 -0.7918  0.1539  0.1785
   41CHL1  H27A 3032   4.021   3.031   3.589 -0.5200  0.1837  1.3079
   41CHL1  H27B 3033   4.160   3.042   3.487  0.3362  2.0460  2.1980
   41CHL1  H27C 3034   4.099   2.880   3.518  1.8004 -0.4908  0.4481
   42CHL1    C3 3035   0.628   0.187   3.037  0.9271 -0.5138 -0.0385
   42CHL1    H3 3036   0.519   0.197   3.052  0.9325  0.1729 -0.4493
   42CHL1    O3 3037   0.658   0.183   2.905  0.4567  0.7318  0.1826
   42CHL1   H3' 3038   0.751   0.160   2.904  0.3181  0.0852 -1.3622
   42CHL1    C4 3039   0.719   0.296   3.098  0.3519  0.5205 -0.0152
   42CHL1   H4A 3040   0.825   0.282   3.067  0.3211 -0.2434  0.2165
   42CHL1   H4B 3041   0.689   0.391   3.047  0.5479  0.0839 -0.9643
   42CHL1    C5 3042   0.702   0.305   3.251  0.4865  0.4878  0.3072
   42CHL1    C6 3043   0.649   0.416   3.309  0.0036  1.0753 -0.0740
   42CHL1    H6 3044   0.613   0.495   3.242 -1.8247 -0.8937 -1.5492
   42CHL1    C7 3045   0.643   0.422   3.460  0.1982  0.0192 -0.3660
   42CHL1   H7A 3046   0.667   0.527   3.486 -3.0158  1.3594 -2.2238
   42CHL1   H7B 3047   0.540   0.413   3.499  0.0087  1.3706 -0.5177
   42CHL1    C8 3048   0.723   0.313   3.542 -0.1182 -0.1382  0.1712
   42CHL1    H8 3049   0.833   0.324   3.540  0.3539 -3.1835  2.6655
   42CHL1   C14 3050   0.671   0.315   3.684  0.0987  0.5896  0.1447
   42CHL1   H14 3051   0.559   0.314   3.682  0.0666  1.5226 -2.0965
   42CHL1   C15 3052   0.697   0.443   3.773 -0.0240  0.4529 -0.0945
   42CHL1  H15A 3053   0.797   0.487   3.751  0.2877 -0.6975 -1.1430
   42CHL1  H15B 3054   0.626   0.527   3.760  0.5981  1.2535  1.4401
   42CHL1   C16 3055   0.690   0.385   3.911 -0.5504  0.0320 -0.4628
   42CHL1  H16A 3056   0.783   0.406   3.969 -1.1826  0.2423  0.5120
   42CHL1  H16B 3057   0.607   0.423   3.975 -1.0362 -2.2903  0.4097
   42CHL1   C17 3058   0.672   0.231   3.908  0.0747 -0.9289 -0.0767
   42CHL1   H17 3059   0.562   0.216   3.899  0.1871 -1.4148 -0.8180
   42CHL1   C13 3060   0.730   0.194   3.766  0.5005  0.4482 -1.0161
   42CHL1   C18 3061   0.887   0.196   3.767 -0.1296  0.0282 -0.5371
   42CHL1  H18A 3062   0.930   0.199   3.664  0.0611 -2.3244 -0.5678
   42CHL1  H18B 3063   0.935   0.287   3.810  0.1638 -1.0800  1.5667
   42CHL1  H18C 3064   0.923   0.107   3.823 -1.3594  1.5076  2.8719
   42CHL1   C12 3065   0.679   0.063   3.703  0.3446 -0.2695  0.7884
   42CHL1  H12A 3066   0.715  -0.030   3.751  3.0256 -0.2224 -0.9236
   42CHL1  H12B 3067   0.568   0.061   3.711  0.2542  2.3067  0.9421
   42CHL1   C11 3068   0.724   0.055   3.554  0.8386  0.0507  0.0664
   42CHL1  H11A 3069   0.835   0.048   3.561  0.9049  1.5277  1.0904
   42CHL1  H11B 3070   0.680  -0.037   3.512 -0.2568 -0.3748  2.0047
   42CHL1    C9 3071   0.682   0.179   3.475  0.5182 -0.6737 -0.3296
   42CHL1    H9 3072   0.572   0.189   3.473  0.4493 -1.3232 -2.5616
   42CHL1   C10 3073   0.730   0.170   3.330  0.3726 -0.1900  0.4726
   42CHL1   C19 3074   0.876   0.138   3.311 -0.9009  0.4312  0.3417
   42CHL1  H19A 3075   0.942   0.206   3.368  0.0750 -0.3540  0.1804
   42CHL1  H19B 3076   0.895   0.038   3.356 -1.7810 -0.0836 -0.3967
   42CHL1  H19C 3077   0.911   0.124   3.207 -1.0786  0.8510  0.2260
   42CHL1    C1 3078   0.647   0.054   3.260  0.2469  0.3683  0.5781
   42CHL1   H1A 3079   0.687  -0.040   3.304 -0.0331 -0.2295 -0.3994
   42CHL1   H1B 3080   0.539   0.051   3.285 -0.2261 -2.0595 -1.3123
   42CHL1    C2 3081   0.663   0.057   3.109  0.6730  0.0776  0.2109
   42CHL1   H2A 3082   0.605  -0.027   3.065 -2.2213  0.7277  2.5130
   42CHL1   H2B 3083   0.770   0.046   3.080  0.7997 -0.2948  0.8098
   42CHL1   C20 3084   0.726   0.151   4.032  0.3653 -0.3829  0.1443
   42CHL1   H20 3085   0.834   0.140   4.012  0.4790  0.7153  0.1114
   42CHL1   C21 3086   0.657   0.013   4.036 -0.6257 -0.2251 -0.5048
   42CHL1  H21A 3087   0.546   0.017   4.036 -0.6626 -1.1130 -1.0862
   42CHL1  H21B 3088   0.693  -0.023   4.134 -0.2737  0.3625 -0.4143
   42CHL1  H21C 3089   0.699  -0.047   3.953 -1.0380 -1.9835  0.5074
   42CHL1   C22 3090   0.715   0.220   4.164 -0.0570  0.3567 -0.1190
   42CHL1  H22A 3091   0.714   0.330   4.158 -0.7381  0.4137  0.8850
   42CHL1  H22B 3092   0.620   0.196   4.217 -0.5246  1.9888 -0.1733
   42CHL1   C23 3093   0.831   0.187   4.260 -0.9315  0.8387 -0.0969
   42CHL1  H23A 3094   0.844   0.080   4.288 -1.1220  0.7781 -0.2397
   42CHL1  H23B 3095   0.930   0.213   4.218 -0.5781 -0.9819 -0.5003
   42CHL1   C24 3096   0.817   0.264   4.391  0.1016  0.0441 -0.0029
   42CHL1  H24A 3097   0.778   0.365   4.366  1.8879  0.4935 -1.1399
   42CHL1  H24B 3098   0.740   0.211   4.450 -0.4760 -0.0381 -0.8159
   42CHL1   C25 3099   0.946   0.295   4.476 -0.1520  0.0818  0.5601
   42CHL1   H25 3100   1.020   0.363   4.428 -0.8805  1.4909  1.3823
   42CHL1   C26 3101   0.910   0.373   4.607 -0.0599  0.6743  0.1931
   42CHL1  H26A 3102   1.003   0.386   4.666  1.3633  0.0551 -1.8321
   42CHL1  H26B 3103   0.881   0.475   4.573 -0.1968  1.3694  2.2785
   42CHL1  H26C 3104   0.826   0.332   4.667  0.7390  0.6028  1.2890
   42CHL1   C27 3105   1.021   0.160   4.508  0.5333  0.0395 -0.5681
   42CHL1  H27A 3106   0.946   0.079   4.524  1.4893 -1.2707 -2.4376
   42CHL1  H27B 3107   1.083   0.134   4.420 -0.7436 -2.4097 -0.8426
   42CHL1  H27C 3108   1.090   0.167   4.595 -1.2823  1.7675  0.8505
   43CHL1    C3 3109   3.310   1.995   3.053 -0.6958  1.3795  0.2476
   43CHL1    H3 3110   3.263   2.076   3.112 -0.3898  1.8314 -0.1271
   43CHL1    O3 3111   3.361   2.046   2.934  0.6147  0.5071  0.2225
   43CHL1   H3' 3112   3.325   1.988   2.867 -1.4314  1.1976  0.6481
   43CHL1    C4 3113   3.425   1.934   3.133 -0.6834  0.4645 -0.2401
   43CHL1   H4A 3114   3.494   1.873   3.072  2.4422  0.6628  2.7544
   43CHL1   H4B 3115   3.494   2.013   3.169  1.4112 -1.3170 -0.1364
   43CHL1    C5 3116   3.364   1.865   3.251 -0.6637  0.4293 -0.2708
   43CHL1    C6 3117   3.390   1.896   3.382  0.9146  0.0887  0.5020
   43CHL1    H6 3118   3.465   1.974   3.403  0.8665 -0.2864  2.2377
   43CHL1    C7 3119   3.324   1.836   3.505 -0.3725  0.2702 -0.0823
   43CHL1   H7A 3120   3.405   1.824   3.580  0.1913 -0.4405 -0.7827
   43CHL1   H7B 3121   3.249   1.909   3.542  0.1961  0.6883  0.2666
   43CHL1    C8 3122   3.264   1.698   3.468  0.3956  0.1293 -0.0338
   43CHL1    H8 3123   3.347   1.625   3.453  0.1086 -0.2699  0.2819
   43CHL1   C14 3124   3.181   1.659   3.594  0.0359 -0.2957  0.4644
   43CHL1   H14 3125   3.099   1.733   3.588 -2.0139 -2.5130 -0.1788
   43CHL1   C15 3126   3.240   1.681   3.735 -1.2251  0.0090 -0.4779
   43CHL1  H15A 3127   3.340   1.634   3.727  0.0129  2.4919 -0.5039
   43CHL1  H15B 3128   3.254   1.783   3.777 -2.0759  0.1740 -0.5865
   43CHL1   C16 3129   3.145   1.600   3.827  0.1121  0.1581  0.1870
   43CHL1  H16A 3130   3.204   1.525   3.884 -2.4593 -2.0677  0.1271
   43CHL1  H16B 3131   3.086   1.669   3.891  0.2912 -3.0090  4.1907
   43CHL1   C17 3132   3.051   1.525   3.729  0.6289  0.2129  0.1855
   43CHL1   H17 3133   2.962   1.592   3.723  1.5320  1.3344 -1.2797
   43CHL1   C13 3134   3.115   1.526   3.587  0.6677 -0.0112  0.1763
   43CHL1   C18 3135   3.214   1.404   3.575  0.0613 -0.8422 -0.5466
   43CHL1  H18A 3136   3.277   1.407   3.483  1.0679 -0.4307  0.1385
   43CHL1  H18B 3137   3.279   1.382   3.662 -0.9899 -2.2893 -0.1027
   43CHL1  H18C 3138   3.154   1.312   3.556 -0.5104 -0.5815 -0.0426
   43CHL1   C12 3139   3.010   1.531   3.468  0.3046 -0.1459  0.1080
   43CHL1  H12A 3140   2.964   1.431   3.457 -1.4557  0.4139  1.7271
   43CHL1  H12B 3141   2.941   1.608   3.509  1.1192  0.7224 -0.0906
   43CHL1   C11 3142   3.079   1.573   3.340 -1.0137 -0.0804 -0.4261
   43CHL1  H11A 3143   3.139   1.492   3.295  0.8568  0.8036  0.3708
   43CHL1  H11B 3144   2.999   1.610   3.272 -1.1624  0.5453  0.0832
   43CHL1    C9 3145   3.173   1.697   3.351  0.1826  0.0888 -0.6367
   43CHL1    H9 3146   3.108   1.784   3.372  1.5477  0.7525  1.2217
   43CHL1   C10 3147   3.252   1.754   3.230  0.3866 -0.0620  0.3233
   43CHL1   C19 3148   3.328   1.631   3.163  0.0330 -1.0600 -0.1299
   43CHL1  H19A 3149   3.400   1.572   3.224 -0.7230 -0.1238  1.7329
   43CHL1  H19B 3150   3.254   1.555   3.128 -1.9429  1.3222 -1.3726
   43CHL1  H19C 3151   3.376   1.665   3.069 -0.1675  1.4991  0.6326
   43CHL1    C1 3152   3.151   1.821   3.139  0.2665 -0.0774  0.0029
   43CHL1   H1A 3153   3.079   1.739   3.118  0.9638 -1.6783  3.1799
   43CHL1   H1B 3154   3.091   1.901   3.188  0.6321  0.7581 -0.8795
   43CHL1    C2 3155   3.212   1.887   3.012  0.0725 -0.2264  1.0003
   43CHL1   H2A 3156   3.136   1.931   2.944  2.5242  0.8334 -1.2741
   43CHL1   H2B 3157   3.273   1.810   2.958 -1.1678 -1.1985  0.9475
   43CHL1   C20 3158   3.002   1.390   3.791 -0.1700  1.0401  0.3833
   43CHL1   H20 3159   3.070   1.305   3.768 -1.0498  0.1516  1.0111
   43CHL1   C21 3160   2.872   1.358   3.714 -0.3696  0.0931  0.9547
   43CHL1  H21A 3161   2.884   1.327   3.608  0.9419  2.7903  0.2202
   43CHL1  H21B 3162   2.803   1.446   3.717  0.0313  0.4308  0.4742
   43CHL1  H21C 3163   2.828   1.265   3.756 -1.5420 -0.7173 -1.8835
   43CHL1   C22 3164   2.965   1.396   3.939 -0.0553  0.3853  0.3445
   43CHL1  H22A 3165   2.951   1.293   3.977  1.6874 -0.1612 -0.4165
   43CHL1  H22B 3166   3.047   1.438   4.002 -0.6661 -1.5995  2.5879
   43CHL1   C23 3167   2.853   1.494   3.975  0.0050  0.6771 -0.3217
   43CHL1  H23A 3168   2.882   1.592   3.932  1.9281 -0.9324 -3.0287
   43CHL1  H23B 3169   2.764   1.455   3.922  0.7300  0.2074 -1.2334
   43CHL1   C24 3170   2.822   1.514   4.130 -0.0668 -0.1678 -0.2026
   43CHL1  H24A 3171   2.833   1.410   4.168 -0.8248  0.1259  0.8550
   43CHL1  H24B 3172   2.901   1.583   4.164 -1.8225  2.0694 -0.4427
   43CHL1   C25 3173   2.694   1.582   4.165  0.3866 -0.4700 -0.0870
   43CHL1   H25 3174   2.694   1.676   4.106 -0.4150  0.6045  1.5538
   43CHL1   C26 3175   2.573   1.493   4.138 -0.0697  0.2473  0.3423
   43CHL1  H26A 3176   2.479   1.538   4.177 -0.7022  0.6522 -1.5551
   43CHL1  H26B 3177   2.555   1.481   4.029  0.2736  0.5290  0.2548
   43CHL1  H26C 3178   2.586   1.395   4.188 -2.8601 -0.1274  0.5018
   43CHL1   C27 3179   2.698   1.631   4.315  0.2105  0.3210 -0.1405
   43CHL1  H27A 3180   2.728   1.736   4.334  1.6550 -0.2120  0.7002
   43CHL1  H27B 3181   2.594   1.638   4.353  0.8131 -0.9739  1.9321
   43CHL1  H27C 3182   2.755   1.566   4.385  0.5129  0.7748  0.0349
   44CHL1    C3 3183   5.545   0.355   2.321 -0.0793  0.4011  0.4320
   44CHL1    H3 3184   5.651   0.384   2.305  0.0153  0.8326  1.7132
   44CHL1    O3 3185   5.488   0.342   2.185 -0.0593 -0.3487 -0.0569
   44CHL1   H3' 3186   5.444   0.427   2.175  0.2486 -0.0048  1.2649
   44CHL1    C4 3187   5.544   0.219   2.392 -0.3839 -0.0504  0.2505
   44CHL1   H4A 3188   5.438   0.187   2.387 -0.6671  0.1972  2.8732
   44CHL1   H4B 3189   5.597   0.153   2.321  0.4709 -0.3337  1.1285
   44CHL1    C5 3190   5.588   0.205   2.538 -0.2515  0.1968  0.3816
   44CHL1    C6 3191   5.671   0.110   2.592 -0.2624  0.2696  0.4363
   44CHL1    H6 3192   5.704   0.027   2.528  0.2765 -0.1162  1.2015
   44CHL1    C7 3193   5.727   0.115   2.726  0.1471 -0.4283 -0.9226
   44CHL1   H7A 3194   5.731   0.020   2.783  0.6349  0.7732  1.1093
   44CHL1   H7B 3195   5.831   0.155   2.718  0.5684 -1.5742 -1.4577
   44CHL1    C8 3196   5.661   0.225   2.815 -0.0997 -0.7709  0.6843
   44CHL1    H8 3197   5.563   0.182   2.846 -0.2266  0.0409  1.4217
   44CHL1   C14 3198   5.744   0.251   2.935  0.6865  0.7452 -0.2491
   44CHL1   H14 3199   5.838   0.296   2.897  0.2912  0.4087 -1.6956
   44CHL1   C15 3200   5.803   0.142   3.028  0.4004  0.4714  1.3029
   44CHL1  H15A 3201   5.730   0.062   3.054 -0.8327  0.6210 -1.3820
   44CHL1  H15B 3202   5.884   0.085   2.977 -0.8789 -0.6060  0.4283
   44CHL1   C16 3203   5.843   0.209   3.157 -0.3721 -0.2695 -0.3715
   44CHL1  H16A 3204   5.790   0.172   3.247  1.3787  0.7225  1.1430
   44CHL1  H16B 3205   5.950   0.195   3.183 -0.1755  2.8915  0.9466
   44CHL1   C17 3206   5.800   0.354   3.139  0.7520  0.4430 -0.0713
   44CHL1   H17 3207   5.890   0.413   3.110  2.0975  0.5823  3.7249
   44CHL1   C13 3208   5.688   0.352   3.037 -0.0643  0.2997 -0.1086
   44CHL1   C18 3209   5.551   0.298   3.088  0.4851  0.2990  0.2844
   44CHL1  H18A 3210   5.489   0.378   3.134  1.1799 -0.0168  1.8147
   44CHL1  H18B 3211   5.487   0.265   3.003 -1.1070  1.0428  1.1738
   44CHL1  H18C 3212   5.562   0.213   3.158 -1.5055 -1.1834 -1.0938
   44CHL1   C12 3213   5.678   0.481   2.951  0.0543 -0.1243  0.8123
   44CHL1  H12A 3214   5.648   0.574   3.003 -0.5531  0.6140 -0.7874
   44CHL1  H12B 3215   5.778   0.508   2.911  0.2495  1.0684  2.0630
   44CHL1   C11 3216   5.596   0.464   2.826 -0.2999  0.1314 -0.1567
   44CHL1  H11A 3217   5.493   0.446   2.863 -1.7259  3.1601 -2.2976
   44CHL1  H11B 3218   5.594   0.566   2.783 -0.0917  1.8205  3.5080
   44CHL1    C9 3219   5.643   0.353   2.730  0.6521 -0.5049 -0.4321
   44CHL1    H9 3220   5.740   0.378   2.683  0.2468  0.0896 -0.9833
   44CHL1   C10 3221   5.546   0.335   2.613 -0.1668  0.4190  0.3178
   44CHL1   C19 3222   5.406   0.284   2.654 -0.4309  0.2942 -0.0290
   44CHL1  H19A 3223   5.340   0.292   2.565 -0.7161 -0.9729  0.0600
   44CHL1  H19B 3224   5.408   0.181   2.696  1.7768  0.2838 -0.0457
   44CHL1  H19C 3225   5.370   0.353   2.734 -0.1212 -0.6386  0.9396
   44CHL1    C1 3226   5.537   0.468   2.538 -0.0057  0.0296 -0.1099
   44CHL1   H1A 3227   5.473   0.524   2.610  0.5875 -2.0547  2.2112
   44CHL1   H1B 3228   5.640   0.509   2.528 -1.1666  2.8753 -1.4941
   44CHL1    C2 3229   5.469   0.463   2.398 -0.6635 -0.4139  0.6044
   44CHL1   H2A 3230   5.478   0.557   2.338  0.4009 -0.8413  0.0666
   44CHL1   H2B 3231   5.360   0.440   2.395 -0.3920 -1.6946 -0.3556
   44CHL1   C20 3232   5.761   0.418   3.274  0.5093  0.5305 -0.6083
   44CHL1   H20 3233   5.683   0.356   3.323  0.5266  2.1402  1.6333
   44CHL1   C21 3234   5.705   0.560   3.252 -0.1152 -0.2683 -0.4988
   44CHL1  H21A 3235   5.610   0.552   3.195 -0.9089 -0.8949  0.8536
   44CHL1  H21B 3236   5.781   0.627   3.208 -2.5207  2.3977 -0.9282
   44CHL1  H21C 3237   5.676   0.604   3.350  0.5790 -1.5620  0.3118
   44CHL1   C22 3238   5.885   0.433   3.372  1.0114 -0.2100  0.2931
   44CHL1  H22A 3239   5.961   0.352   3.365  0.0898 -1.0599 -0.2681
   44CHL1  H22B 3240   5.926   0.531   3.342  2.2169 -1.5695 -3.0660
   44CHL1   C23 3241   5.839   0.431   3.523  0.6780  0.5515  0.5129
   44CHL1  H23A 3242   5.755   0.503   3.536  0.4607  0.8694 -2.1755
   44CHL1  H23B 3243   5.794   0.331   3.540 -2.3917  1.8500  0.6922
   44CHL1   C24 3244   5.939   0.474   3.626  0.6262 -0.4039 -0.2453
   44CHL1  H24A 3245   6.019   0.399   3.641 -1.0046 -1.5863  3.6709
   44CHL1  H24B 3246   5.981   0.567   3.582  0.4610 -0.9098 -1.5098
   44CHL1   C25 3247   5.879   0.509   3.773  0.0611  0.9869 -0.3334
   44CHL1   H25 3248   5.827   0.422   3.818  0.2757  1.1024  0.1457
   44CHL1   C26 3249   5.998   0.550   3.860 -1.0393 -0.3526  0.6540
   44CHL1  H26A 3250   6.045   0.646   3.831 -0.9883  0.0065  1.8701
   44CHL1  H26B 3251   5.975   0.556   3.968  0.0345  0.2602  0.8599
   44CHL1  H26C 3252   6.070   0.466   3.848 -0.4668  0.0708  1.0907
   44CHL1   C27 3253   5.776   0.625   3.771  0.0587  0.5662  0.8633
   44CHL1  H27A 3254   5.749   0.653   3.876 -0.1977  2.1298  0.4135
   44CHL1  H27B 3255   5.829   0.709   3.722 -1.7565  1.5327  0.4583
   44CHL1  H27C 3256   5.694   0.594   3.703  2.9360  0.1658 -2.7305
   45CHL1    C3 3257   6.641   2.751   2.893  0.3264 -1.0855 -0.1697
   45CHL1    H3 3258   6.621   2.860   2.886  1.0632 -1.0263 -1.7531
   45CHL1    O3 3259   6.608   2.688   2.768 -0.1089 -0.1416 -0.3134
   45CHL1   H3' 3260   6.627   2.597   2.795  0.3099  0.3463  1.1081
   45CHL1    C4 3261   6.784   2.737   2.930  0.4558 -0.5161  0.0476
   45CHL1   H4A 3262   6.819   2.632   2.940 -1.6396 -1.1437  1.3380
   45CHL1   H4B 3263   6.858   2.786   2.863 -2.1100  3.3926 -0.2723
   45CHL1    C5 3264   6.813   2.800   3.065 -0.6560  0.3273  0.0379
   45CHL1    C6 3265   6.905   2.903   3.077  0.0370  0.5772 -0.2281
   45CHL1    H6 3266   6.969   2.945   2.998  0.1979 -2.8249 -2.0757
   45CHL1    C7 3267   6.934   2.957   3.216 -0.3207  0.0468  1.3531
   45CHL1   H7A 3268   7.044   2.971   3.218 -0.4031  0.7056  1.5230
   45CHL1   H7B 3269   6.886   3.057   3.217 -1.9713 -0.6871  0.1630
   45CHL1    C8 3270   6.887   2.872   3.330 -0.0428 -0.2657 -0.3438
   45CHL1    H8 3271   6.957   2.788   3.344  0.1706  0.2952  2.5763
   45CHL1   C14 3272   6.882   2.956   3.455 -0.5024  0.0267  0.3359
   45CHL1   H14 3273   6.810   3.036   3.425  1.3595  0.7103 -2.8126
   45CHL1   C15 3274   7.017   3.015   3.506  0.3936  0.0462 -0.1314
   45CHL1  H15A 3275   7.101   2.942   3.508  1.6458  1.4228 -0.0793
   45CHL1  H15B 3276   7.059   3.097   3.444  0.5839 -0.9235 -1.3236
   45CHL1   C16 3277   6.994   3.050   3.657  0.4420 -0.5646 -0.5082
   45CHL1  H16A 3278   7.066   2.994   3.719  1.2157  0.7018 -0.2227
   45CHL1  H16B 3279   7.013   3.159   3.670 -1.2510 -0.4815  2.1384
   45CHL1   C17 3280   6.847   3.011   3.684 -0.2781  0.3659  0.0322
   45CHL1   H17 3281   6.782   3.100   3.667 -0.0360  0.1975 -2.1683
   45CHL1   C13 3282   6.817   2.898   3.578  0.2847  0.1357 -1.0203
   45CHL1   C18 3283   6.891   2.770   3.629  0.3813  0.4814  0.8845
   45CHL1  H18A 3284   6.828   2.741   3.716  0.3619 -0.7290  0.4801
   45CHL1  H18B 3285   6.886   2.676   3.569  1.4983  0.6230  0.5420
   45CHL1  H18C 3286   6.995   2.781   3.668  0.5143  1.0686  0.3675
   45CHL1   C12 3287   6.672   2.871   3.550  0.3443  0.4310  0.1329
   45CHL1  H12A 3288   6.629   2.807   3.630 -1.1225  1.7603  0.4641
   45CHL1  H12B 3289   6.613   2.964   3.536  0.6983  0.6444  0.0447
   45CHL1   C11 3290   6.668   2.771   3.428 -0.2602 -0.0659  0.5065
   45CHL1  H11A 3291   6.714   2.677   3.463  0.9839 -0.4914 -2.0134
   45CHL1  H11B 3292   6.558   2.770   3.413 -0.5603 -0.1295  2.4947
   45CHL1    C9 3293   6.740   2.833   3.305 -1.1366 -0.1762  0.3526
   45CHL1    H9 3294   6.698   2.936   3.298  1.4652  1.0535  1.6084
   45CHL1   C10 3295   6.726   2.749   3.178 -0.5546 -0.5214  0.0080
   45CHL1   C19 3296   6.768   2.605   3.213  0.4050  0.0198 -0.5306
   45CHL1  H19A 3297   6.858   2.600   3.277 -0.1011  0.6248  0.2428
   45CHL1  H19B 3298   6.686   2.557   3.270  1.6934 -4.4089 -2.0325
   45CHL1  H19C 3299   6.766   2.539   3.124 -1.0268 -1.9674  0.8874
   45CHL1    C1 3300   6.572   2.749   3.137 -0.2531 -0.6675 -0.6960
   45CHL1   H1A 3301   6.510   2.690   3.209  0.6118 -0.2876  0.3846
   45CHL1   H1B 3302   6.528   2.851   3.135 -0.1481 -0.6253 -0.8317
   45CHL1    C2 3303   6.556   2.684   3.001 -0.3415  0.5215 -0.3637
   45CHL1   H2A 3304   6.451   2.683   2.964  0.5305 -2.7325 -3.3012
   45CHL1   H2B 3305   6.581   2.576   2.998 -1.3047  0.2988 -1.4371
   45CHL1   C20 3306   6.813   2.979   3.835 -0.5154  0.5413  0.7753
   45CHL1   H20 3307   6.855   2.880   3.862 -1.5741  0.1650  1.0842
   45CHL1   C21 3308   6.660   2.991   3.868  0.2642 -0.0923  0.1641
   45CHL1  H21A 3309   6.634   2.946   3.966 -0.2918 -1.4645 -0.5918
   45CHL1  H21B 3310   6.610   2.948   3.778  0.3078 -0.8614  0.4969
   45CHL1  H21C 3311   6.646   3.101   3.874 -0.9433 -0.2615  0.6196
   45CHL1   C22 3312   6.897   3.074   3.928  0.4412 -0.2963  0.4070
   45CHL1  H22A 3313   7.006   3.066   3.909  0.3290 -0.6541 -0.1134
   45CHL1  H22B 3314   6.880   3.182   3.905  1.2638 -0.2152  0.1664
   45CHL1   C23 3315   6.896   3.041   4.082  0.3445  0.4098  0.1053
   45CHL1  H23A 3316   6.788   3.044   4.107  0.8376  1.6915  2.3196
   45CHL1  H23B 3317   6.938   2.938   4.090 -1.6174 -0.4441 -0.0462
   45CHL1   C24 3318   6.973   3.133   4.177  0.8790 -0.0675  0.0305
   45CHL1  H24A 3319   6.940   3.238   4.165  3.2685  0.7914  0.3693
   45CHL1  H24B 3320   6.936   3.104   4.277 -0.0476  2.2160  0.4150
   45CHL1   C25 3321   7.119   3.127   4.153 -1.3043  0.3448 -0.3332
   45CHL1   H25 3322   7.144   3.131   4.045 -0.6249 -2.9368 -0.4296
   45CHL1   C26 3323   7.190   3.242   4.225  0.0167  0.2805  0.4927
   45CHL1  H26A 3324   7.138   3.335   4.192 -2.1334 -1.2978 -0.8207
   45CHL1  H26B 3325   7.179   3.228   4.335 -1.3067  1.7546  0.5854
   45CHL1  H26C 3326   7.295   3.236   4.190 -0.3921 -2.2755 -0.4633
   45CHL1   C27 3327   7.182   2.986   4.180 -0.3120 -0.0047  0.7038
   45CHL1  H27A 3328   7.161   2.952   4.283 -0.9917  1.2721  1.0156
   45CHL1  H27B 3329   7.126   2.907   4.126 -1.2040 -0.9940  2.9602
   45CHL1  H27C 3330   7.290   2.987   4.155 -0.6995 -0.6137 -1.1687
   46CHL1    C3 3331   4.342   1.741   3.075 -0.5140  0.6953  0.2826
   46CHL1    H3 3332   4.370   1.826   3.142 -0.4223 -0.3768  1.6566
   46CHL1    O3 3333   4.361   1.775   2.934 -0.9913 -0.2673 -0.0581
   46CHL1   H3' 3334   4.426   1.713   2.900 -1.2139  0.6028 -2.1988
   46CHL1    C4 3335   4.406   1.611   3.121 -0.2137 -0.2669  0.1252
   46CHL1   H4A 3336   4.373   1.529   3.054 -1.5937  1.2997 -1.1907
   46CHL1   H4B 3337   4.516   1.616   3.105 -0.3552  0.4183 -0.6324
   46CHL1    C5 3338   4.367   1.584   3.269  0.2653 -0.4105  0.2210
   46CHL1    C6 3339   4.461   1.572   3.357 -0.5474 -0.3699 -0.8028
   46CHL1    H6 3340   4.563   1.572   3.317  0.0626  1.1950  0.6708
   46CHL1    C7 3341   4.431   1.553   3.503  0.0337  0.7319  0.3090
   46CHL1   H7A 3342   4.500   1.473   3.536 -1.6227 -1.8179 -1.9764
   46CHL1   H7B 3343   4.457   1.641   3.565 -0.7260  0.1365  1.5228
   46CHL1    C8 3344   4.289   1.501   3.534  0.2895  0.3327 -0.2778
   46CHL1    H8 3345   4.281   1.402   3.485  0.1802  0.3669 -0.3290
   46CHL1   C14 3346   4.269   1.482   3.683 -0.8930  0.0168  0.3551
   46CHL1   H14 3347   4.298   1.578   3.730  2.2725  0.2028 -1.6925
   46CHL1   C15 3348   4.364   1.392   3.763  0.2836  0.4210 -0.3930
   46CHL1  H15A 3349   4.388   1.303   3.702  2.0077  0.7498 -0.2430
   46CHL1  H15B 3350   4.458   1.446   3.788 -0.6828  1.7454  0.5591
   46CHL1   C16 3351   4.284   1.377   3.895 -0.5791  0.1174 -0.1644
   46CHL1  H16A 3352   4.285   1.269   3.923  2.1516 -0.2286 -1.2981
   46CHL1  H16B 3353   4.329   1.445   3.970  0.4372 -0.8569  0.1509
   46CHL1   C17 3354   4.138   1.429   3.868  0.6176 -0.3536  0.1915
   46CHL1   H17 3355   4.135   1.531   3.912  1.7590 -1.4247  2.9795
   46CHL1   C13 3356   4.130   1.439   3.717 -0.2994  0.2182 -0.3545
   46CHL1   C18 3357   4.110   1.305   3.659 -0.1385  0.1719 -0.2202
   46CHL1  H18A 3358   4.006   1.281   3.692  1.0118 -1.9696  2.2508
   46CHL1  H18B 3359   4.119   1.282   3.551 -1.3616 -0.8791 -0.1285
   46CHL1  H18C 3360   4.170   1.218   3.694  0.4525 -0.6479 -3.0562
   46CHL1   C12 3361   4.032   1.546   3.660 -0.2331  0.3454  0.7916
   46CHL1  H12A 3362   3.922   1.533   3.669 -0.3295  0.7487  0.2740
   46CHL1  H12B 3363   4.046   1.646   3.707 -0.6734  0.8612 -0.1499
   46CHL1   C11 3364   4.042   1.554   3.507 -0.3641  0.2531  0.1279
   46CHL1  H11A 3365   4.001   1.457   3.471 -1.9489 -0.0368  2.4654
   46CHL1  H11B 3366   3.978   1.635   3.465 -2.2014 -0.6257  1.1213
   46CHL1    C9 3367   4.193   1.589   3.464  0.1541  0.3936 -0.1449
   46CHL1    H9 3368   4.222   1.691   3.497  4.5274 -0.8387  0.4644
   46CHL1   C10 3369   4.220   1.595   3.304  0.0069 -0.5804  0.0055
   46CHL1   C19 3370   4.153   1.466   3.234  0.0753  0.1995 -0.1679
   46CHL1  H19A 3371   4.188   1.454   3.129  2.7400  1.4828  0.4801
   46CHL1  H19B 3372   4.158   1.368   3.287  0.5615  0.0637 -0.4573
   46CHL1  H19C 3373   4.044   1.484   3.228 -0.0128  1.3474  3.0096
   46CHL1    C1 3374   4.158   1.724   3.241  0.6279  0.2921  0.1473
   46CHL1   H1A 3375   4.048   1.729   3.257  0.8053  1.9543  1.1214
   46CHL1   H1B 3376   4.195   1.803   3.310  0.5419 -0.8078  1.5011
   46CHL1    C2 3377   4.190   1.738   3.094  0.8969 -0.3423 -0.9418
   46CHL1   H2A 3378   4.151   1.836   3.058  2.1633  0.2960 -0.6351
   46CHL1   H2B 3379   4.146   1.666   3.021  1.5978 -0.5495 -1.1671
   46CHL1   C20 3380   4.022   1.361   3.956 -0.3656 -0.2229  0.0104
   46CHL1   H20 3381   4.025   1.258   3.915 -2.2870 -1.0511  1.8075
   46CHL1   C21 3382   3.889   1.420   3.920  0.5537 -0.3671 -0.4697
   46CHL1  H21A 3383   3.893   1.526   3.950 -0.8237 -0.1979 -0.8115
   46CHL1  H21B 3384   3.811   1.365   3.977  1.0968 -0.6163  0.0422
   46CHL1  H21C 3385   3.868   1.406   3.812 -0.0906 -0.8433 -0.2854
   46CHL1   C22 3386   4.046   1.355   4.112 -1.3010 -0.2483  0.0763
   46CHL1  H22A 3387   4.147   1.311   4.127 -0.3488  1.4852 -0.9239
   46CHL1  H22B 3388   4.053   1.457   4.155 -1.6370 -0.1092 -0.1922
   46CHL1   C23 3389   3.952   1.278   4.204 -0.5088  1.1642  0.3550
   46CHL1  H23A 3390   3.846   1.292   4.175 -0.6596  0.7230  0.6758
   46CHL1  H23B 3391   3.992   1.175   4.191  4.5197  2.8010  0.6269
   46CHL1   C24 3392   3.963   1.306   4.352 -0.4741  0.5280 -0.3155
   46CHL1  H24A 3393   4.070   1.331   4.365  0.5682 -1.2695 -4.0528
   46CHL1  H24B 3394   3.894   1.391   4.369 -0.5363  0.9817 -2.5462
   46CHL1   C25 3395   3.935   1.195   4.456  0.5140  0.0575  0.7538
   46CHL1   H25 3396   3.837   1.152   4.428  0.3236  0.9880 -0.0905
   46CHL1   C26 3397   4.045   1.083   4.460  0.4353  0.1081  0.1908
   46CHL1  H26A 3398   4.001   1.003   4.522 -0.7237 -0.9898 -1.9375
   46CHL1  H26B 3399   4.047   1.030   4.363 -0.5319 -2.0129  1.2771
   46CHL1  H26C 3400   4.145   1.121   4.491 -0.2347  0.2942  2.2974
   46CHL1   C27 3401   3.920   1.271   4.587  0.0240 -0.0393 -0.4841
   46CHL1  H27A 3402   4.001   1.338   4.623  0.1016 -1.2743  1.8050
   46CHL1  H27B 3403   3.829   1.335   4.576  0.7209  1.0644  0.0630
   46CHL1  H27C 3404   3.909   1.194   4.666  1.5499  0.9502  0.7335
   47CHL1    C3 3405   2.728   3.243   2.862 -0.2277  0.4762 -0.3357
   47CHL1    H3 3406   2.623   3.222   2.890 -0.1440  0.0691 -0.3199
   47CHL1    O3 3407   2.734   3.233   2.720 -0.3124  0.2207  0.0959
   47CHL1   H3' 3408   2.824   3.232   2.685 -0.3788 -1.0468 -0.0821
   47CHL1    C4 3409   2.775   3.381   2.907  0.0391 -0.2539 -0.2193
   47CHL1   H4A 3410   2.873   3.401   2.859  0.2984  0.8257  0.7092
   47CHL1   H4B 3411   2.708   3.457   2.861  0.4659 -0.2374 -0.8258
   47CHL1    C5 3412   2.790   3.391   3.057 -0.7458 -0.5453  0.1225
   47CHL1    C6 3413   2.713   3.473   3.127 -0.2566  0.3818 -0.4536
   47CHL1    H6 3414   2.637   3.541   3.085 -0.5397 -0.2605 -0.9965
   47CHL1    C7 3415   2.709   3.483   3.280 -0.2680  0.0561 -0.0893
   47CHL1   H7A 3416   2.712   3.589   3.312 -1.7653 -0.1493  0.8511
   47CHL1   H7B 3417   2.616   3.446   3.329 -1.5706  0.3372 -2.2261
   47CHL1    C8 3418   2.835   3.422   3.347 -0.0242 -0.2753 -0.0237
   47CHL1    H8 3419   2.929   3.479   3.330 -0.4322  0.9025  1.5077
   47CHL1   C14 3420   2.810   3.391   3.497 -0.6649  0.0288 -0.9495
   47CHL1   H14 3421   2.730   3.314   3.501 -1.1509  0.5226 -1.0409
   47CHL1   C15 3422   2.764   3.513   3.584 -0.3731  0.6703 -0.0706
   47CHL1  H15A 3423   2.829   3.597   3.552  0.1560  1.1065  1.9984
   47CHL1  H15B 3424   2.658   3.532   3.560 -0.7202 -1.4926 -0.4480
   47CHL1   C16 3425   2.786   3.467   3.722 -0.3779 -0.9878 -0.3537
   47CHL1  H16A 3426   2.842   3.535   3.789 -0.6844  0.0140 -1.1002
   47CHL1  H16B 3427   2.691   3.448   3.778 -0.4700  0.6759  0.1170
   47CHL1   C17 3428   2.872   3.335   3.713  0.1793  0.3493 -0.1352
   47CHL1   H17 3429   2.804   3.247   3.707 -0.8023  0.9526  1.4040
   47CHL1   C13 3430   2.928   3.339   3.572 -0.0715  0.2231 -0.0316
   47CHL1   C18 3431   3.044   3.434   3.558  0.2684 -0.0338  0.2422
   47CHL1  H18A 3432   3.077   3.454   3.454 -0.8403 -0.6474 -0.2347
   47CHL1  H18B 3433   3.014   3.531   3.605 -1.8131  0.0399 -1.1284
   47CHL1  H18C 3434   3.133   3.393   3.609  0.0267 -2.1580 -0.9582
   47CHL1   C12 3435   2.962   3.205   3.510  0.3905  0.1852 -0.2866
   47CHL1  H12A 3436   3.055   3.160   3.550 -0.7973 -0.5537  1.7912
   47CHL1  H12B 3437   2.881   3.129   3.523  0.1427  0.8125  2.2305
   47CHL1   C11 3438   2.973   3.203   3.353 -0.3145 -1.4267 -0.6145
   47CHL1  H11A 3439   3.073   3.244   3.330  0.4937 -2.3752  0.9856
   47CHL1  H11B 3440   2.979   3.096   3.325  1.3886 -1.3575 -0.6182
   47CHL1    C9 3441   2.858   3.280   3.282 -0.3446  0.0613  0.1533
   47CHL1    H9 3442   2.767   3.219   3.296 -1.9518  1.7383 -2.1873
   47CHL1   C10 3443   2.875   3.283   3.128 -0.0750  0.1046  0.1084
   47CHL1   C19 3444   3.022   3.303   3.088 -0.3130 -0.1145  0.4764
   47CHL1  H19A 3445   3.037   3.326   2.980 -2.0306  1.2573  0.4751
   47CHL1  H19B 3446   3.063   3.395   3.135  0.6965 -0.2941 -0.0305
   47CHL1  H19C 3447   3.088   3.218   3.114  2.1629  1.5119 -0.0766
   47CHL1    C1 3448   2.837   3.142   3.075  0.5341 -1.1001 -0.2554
   47CHL1   H1A 3449   2.913   3.072   3.115  0.6454 -1.3287 -0.8669
   47CHL1   H1B 3450   2.737   3.123   3.120  0.4208  0.2864  0.1519
   47CHL1    C2 3451   2.823   3.129   2.925  0.1974 -0.0278  0.9024
   47CHL1   H2A 3452   2.785   3.030   2.894 -0.5420  0.3484  0.5735
   47CHL1   H2B 3453   2.925   3.142   2.882 -0.2250  1.0251  0.1792
   47CHL1   C20 3454   2.952   3.321   3.843  0.4609  0.7321 -1.5767
   47CHL1   H20 3455   3.009   3.415   3.854 -0.9820  1.3257  2.1797
   47CHL1   C21 3456   3.057   3.201   3.836 -0.2390 -0.4127 -0.2070
   47CHL1  H21A 3457   3.005   3.106   3.814  1.3702 -0.8365 -2.6147
   47CHL1  H21B 3458   3.107   3.204   3.935 -2.8335 -2.2656  1.2648
   47CHL1  H21C 3459   3.141   3.222   3.767  2.3160  0.1749  2.8290
   47CHL1   C22 3460   2.868   3.296   3.974 -0.0242  0.0439  0.8482
   47CHL1  H22A 3461   2.781   3.365   3.972  0.2454  0.4104  1.4794
   47CHL1  H22B 3462   2.830   3.192   3.958  1.2787 -0.4696  0.9457
   47CHL1   C23 3463   2.941   3.312   4.106 -0.2566  1.0077 -0.5531
   47CHL1  H23A 3464   3.020   3.236   4.122  1.5239  2.7610 -0.5572
   47CHL1  H23B 3465   2.998   3.406   4.125 -0.4138  0.8518  0.7863
   47CHL1   C24 3466   2.846   3.300   4.228 -0.3377 -0.2807  1.3431
   47CHL1  H24A 3467   2.758   3.238   4.201 -0.6125  1.3297 -1.8642
   47CHL1  H24B 3468   2.898   3.247   4.311 -0.3558 -3.4678 -0.5214
   47CHL1   C25 3469   2.797   3.434   4.279  0.0866 -0.5109  0.2202
   47CHL1   H25 3470   2.781   3.501   4.191 -0.0029 -0.0928  0.5494
   47CHL1   C26 3471   2.664   3.431   4.353  0.5666 -0.4462  0.0248
   47CHL1  H26A 3472   2.660   3.530   4.403 -0.4277 -1.4305  2.0312
   47CHL1  H26B 3473   2.571   3.406   4.298  0.3838  0.3847 -0.0587
   47CHL1  H26C 3474   2.664   3.353   4.432 -0.2033 -1.5953 -1.0734
   47CHL1   C27 3475   2.910   3.514   4.354  0.9429  0.0674  0.8001
   47CHL1  H27A 3476   2.966   3.440   4.415  0.3346 -2.5581 -1.5952
   47CHL1  H27B 3477   2.983   3.559   4.284 -0.2117 -1.4255 -1.4906
   47CHL1  H27C 3478   2.861   3.589   4.420 -1.8401 -0.2459 -0.7587
   48CHL1    C3 3479   1.442   5.706   2.724  0.1716 -0.6181  0.2604
   48CHL1    H3 3480   1.413   5.599   2.729 -3.5790  0.2366 -0.7080
   48CHL1    O3 3481   1.463   5.734   2.585 -0.3197  0.5981 -0.3766
   48CHL1   H3' 3482   1.442   5.828   2.576 -1.7339  0.2248 -1.5348
   48CHL1    C4 3483   1.324   5.796   2.784 -0.8855  0.0871  0.6196
   48CHL1   H4A 3484   1.370   5.897   2.770  1.0758 -0.8611 -0.1459
   48CHL1   H4B 3485   1.233   5.794   2.721 -0.3563 -1.1028 -0.1419
   48CHL1    C5 3486   1.312   5.774   2.938 -0.7825 -0.4444  0.0249
   48CHL1    C6 3487   1.190   5.747   2.993  1.5545  0.4786 -0.3355
   48CHL1    H6 3488   1.102   5.744   2.928 -0.8310 -0.1231  2.6828
   48CHL1    C7 3489   1.168   5.726   3.140  0.1982  0.3364  0.5065
   48CHL1   H7A 3490   1.085   5.794   3.170  0.5775  0.7242  0.6865
   48CHL1   H7B 3491   1.155   5.618   3.161  0.0949  0.5929  1.8537
   48CHL1    C8 3492   1.294   5.762   3.220 -0.6648  0.0162 -0.0788
   48CHL1    H8 3493   1.295   5.873   3.232  2.1612  0.2599 -1.8315
   48CHL1   C14 3494   1.286   5.708   3.361  0.4169 -0.0012 -0.4882
   48CHL1   H14 3495   1.279   5.598   3.346 -0.9705  0.0089 -0.0420
   48CHL1   C15 3496   1.154   5.742   3.438  0.0455 -0.6754  0.5024
   48CHL1  H15A 3497   1.122   5.845   3.413 -0.4238 -0.7768  0.6715
   48CHL1  H15B 3498   1.066   5.678   3.412 -0.7501  0.2296  0.8901
   48CHL1   C16 3499   1.197   5.724   3.582  0.3312 -0.4790  0.3592
   48CHL1  H16A 3500   1.182   5.823   3.630 -1.3116 -1.5769  2.2882
   48CHL1  H16B 3501   1.149   5.639   3.635 -1.1626  0.3429  0.3867
   48CHL1   C17 3502   1.354   5.696   3.589  0.1931 -0.2987 -0.5268
   48CHL1   H17 3503   1.363   5.585   3.586  2.2786 -0.1863  0.1848
   48CHL1   C13 3504   1.397   5.745   3.451 -0.4177 -0.3063 -0.1136
   48CHL1   C18 3505   1.413   5.904   3.452  0.5588  0.1133 -0.4559
   48CHL1  H18A 3506   1.442   5.939   3.351 -2.0616 -0.5560 -1.5201
   48CHL1  H18B 3507   1.312   5.949   3.468  0.2929 -0.2659 -1.0175
   48CHL1  H18C 3508   1.471   5.946   3.537  0.5275  0.4991 -0.6227
   48CHL1   C12 3509   1.525   5.681   3.394  0.1825  0.3819  0.7818
   48CHL1  H12A 3510   1.608   5.717   3.459  0.7094 -0.8791  0.8446
   48CHL1  H12B 3511   1.516   5.571   3.409  1.2648  0.3318  1.2091
   48CHL1   C11 3512   1.551   5.720   3.249 -0.2799  0.4971 -0.0717
   48CHL1  H11A 3513   1.585   5.825   3.257 -0.9970  0.6449  1.4626
   48CHL1  H11B 3514   1.620   5.651   3.195  1.5722  1.8119  0.5302
   48CHL1    C9 3515   1.423   5.716   3.159 -0.0684 -0.1371  0.6682
   48CHL1    H9 3516   1.405   5.608   3.143 -2.0884 -0.1982  2.7938
   48CHL1   C10 3517   1.449   5.776   3.015  0.3127 -0.2242  0.1547
   48CHL1   C19 3518   1.497   5.918   3.032 -0.8398 -0.7030  0.5689
   48CHL1  H19A 3519   1.601   5.929   3.068  0.1731 -2.1129 -1.7350
   48CHL1  H19B 3520   1.503   5.963   2.930 -1.6455  2.6112  1.8400
   48CHL1  H19C 3521   1.424   5.979   3.090  0.2586  2.8701 -1.5101
   48CHL1    C1 3522   1.557   5.691   2.947 -0.1297 -0.3623 -0.0122
   48CHL1   H1A 3523   1.654   5.689   3.002 -0.0649 -2.6667 -0.0790
   48CHL1   H1B 3524   1.527   5.584   2.955 -1.8739  0.0411 -0.8014
   48CHL1    C2 3525   1.581   5.716   2.797  0.5315  0.3813 -0.0730
   48CHL1   H2A 3526   1.651   5.647   2.746  2.6646 -1.5981  4.8605
   48CHL1   H2B 3527   1.613   5.820   2.773  0.6904  0.8474  1.9595
   48CHL1   C20 3528   1.410   5.753   3.718  0.3367 -0.4654 -0.5350
   48CHL1   H20 3529   1.386   5.861   3.726  1.4905 -0.2573  0.2647
   48CHL1   C21 3530   1.563   5.750   3.724 -1.0108 -0.3217 -0.4334
   48CHL1  H21A 3531   1.605   5.786   3.820  2.6534 -0.7350 -1.7547
   48CHL1  H21B 3532   1.610   5.802   3.638  0.7097 -0.9845  0.0791
   48CHL1  H21C 3533   1.590   5.643   3.714 -2.7712 -0.9054  0.4898
   48CHL1   C22 3534   1.350   5.672   3.833  0.1139 -0.1452  0.0911
   48CHL1  H22A 3535   1.240   5.682   3.832  0.0251 -0.9972  0.0301
   48CHL1  H22B 3536   1.371   5.563   3.821  0.2815 -0.0485 -0.5166
   48CHL1   C23 3537   1.393   5.722   3.971  0.3189 -0.0173 -0.1210
   48CHL1  H23A 3538   1.499   5.694   3.988  0.0046 -0.8461  0.5702
   48CHL1  H23B 3539   1.391   5.833   3.971 -1.0779 -0.0285  0.0236
   48CHL1   C24 3540   1.296   5.686   4.080 -0.4812  0.0375  0.6096
   48CHL1  H24A 3541   1.189   5.694   4.049 -1.1636  1.9140  3.0704
   48CHL1  H24B 3542   1.291   5.583   4.122 -2.3673 -0.4877 -0.7555
   48CHL1   C25 3543   1.316   5.780   4.198 -0.0493 -0.6193  0.2719
   48CHL1   H25 3544   1.304   5.884   4.162 -4.3174 -0.5115  1.4141
   48CHL1   C26 3545   1.200   5.761   4.303  0.1762 -0.4885 -0.5503
   48CHL1  H26A 3546   1.219   5.677   4.373 -2.3167  0.1010  0.9647
   48CHL1  H26B 3547   1.186   5.851   4.367 -2.7895 -1.2302 -0.0034
   48CHL1  H26C 3548   1.108   5.737   4.244 -0.1877 -0.6056  0.0511
   48CHL1   C27 3549   1.454   5.767   4.265  0.1988 -0.1858 -0.7676
   48CHL1  H27A 3550   1.464   5.667   4.313 -0.9758  0.0401 -0.0022
   48CHL1  H27B 3551   1.537   5.780   4.193  1.0833  1.3215  0.4537
   48CHL1  H27C 3552   1.461   5.840   4.349  4.2372  0.2623 -1.3056
   49CHL1    C3 3553   5.982   4.830   2.933 -0.2783  0.4954 -0.5215
   49CHL1    H3 3554   6.026   4.758   3.005 -2.0245  0.0076  0.0926
   49CHL1    O3 3555   6.007   4.772   2.806 -0.4451  0.4025  0.3047
   49CHL1   H3' 3556   6.058   4.841   2.763 -0.9720  0.8686  0.4189
   49CHL1    C4 3557   5.831   4.836   2.956 -0.5671  0.0028  0.8164
   49CHL1   H4A 3558   5.783   4.889   2.871  0.1573 -0.2344  0.2549
   49CHL1   H4B 3559   5.782   4.738   2.934 -1.6008  0.8295 -0.7341
   49CHL1    C5 3560   5.791   4.900   3.092 -0.1338 -0.2300 -0.0272
   49CHL1    C6 3561   5.718   4.832   3.182 -0.5514 -0.3375 -0.6118
   49CHL1    H6 3562   5.661   4.744   3.146  0.0619 -1.1635  0.3814
   49CHL1    C7 3563   5.686   4.894   3.317  0.1004  0.9450 -0.0171
   49CHL1   H7A 3564   5.582   4.874   3.349  0.8447 -1.2296  1.3023
   49CHL1   H7B 3565   5.758   4.849   3.390  1.1694 -0.2452 -1.7199
   49CHL1    C8 3566   5.706   5.046   3.323  0.4798  0.3007 -0.0846
   49CHL1    H8 3567   5.625   5.099   3.270  0.9648  0.6873 -0.4405
   49CHL1   C14 3568   5.697   5.090   3.468 -0.5332 -0.3635  0.1651
   49CHL1   H14 3569   5.782   5.033   3.512  1.1655 -0.0976 -2.4951
   49CHL1   C15 3570   5.573   5.055   3.544 -0.3174 -0.6722  0.1962
   49CHL1  H15A 3571   5.485   5.052   3.476 -0.5099 -0.4260  0.4333
   49CHL1  H15B 3572   5.588   4.959   3.598 -0.9310 -0.1735  1.2945
   49CHL1   C16 3573   5.574   5.164   3.656  0.0488  0.4940 -0.5790
   49CHL1  H16A 3574   5.487   5.232   3.642  1.9852  3.0409 -0.9702
   49CHL1  H16B 3575   5.557   5.113   3.753  0.6605 -0.8730 -1.1633
   49CHL1   C17 3576   5.706   5.235   3.648  0.1074 -0.2108 -0.6706
   49CHL1   H17 3577   5.791   5.175   3.688 -0.5421 -1.2267 -0.7737
   49CHL1   C13 3578   5.726   5.234   3.494  0.0998 -0.2231 -0.4679
   49CHL1   C18 3579   5.628   5.327   3.424  0.2324 -0.8572 -0.4676
   49CHL1  H18A 3580   5.653   5.434   3.441 -0.1338 -1.0034  1.2080
   49CHL1  H18B 3581   5.637   5.322   3.314 -1.7623 -0.4707 -0.6855
   49CHL1  H18C 3582   5.524   5.304   3.456  1.0997 -5.3255 -0.3429
   49CHL1   C12 3583   5.868   5.272   3.438  0.0993  0.2420  0.5368
   49CHL1  H12A 3584   5.896   5.378   3.453 -0.6854  0.2824  1.8315
   49CHL1  H12B 3585   5.930   5.211   3.507 -1.0108  0.0928  1.4265
   49CHL1   C11 3586   5.879   5.231   3.290  0.4713 -0.3012 -0.0896
   49CHL1  H11A 3587   5.807   5.293   3.233 -0.0710 -0.2131  0.6684
   49CHL1  H11B 3588   5.982   5.255   3.255  0.8163 -1.3655  0.1535
   49CHL1    C9 3589   5.838   5.086   3.266  0.0288  0.4692  0.5837
   49CHL1    H9 3590   5.916   5.025   3.316  0.4772 -0.1007 -0.7590
   49CHL1   C10 3591   5.857   5.034   3.122 -0.0785 -0.0040 -1.1859
   49CHL1   C19 3592   5.793   5.136   3.031 -0.4268  0.2651  0.1478
   49CHL1  H19A 3593   5.692   5.170   3.064 -0.6768  2.1218 -2.2805
   49CHL1  H19B 3594   5.851   5.230   3.022 -0.4219  0.5368  2.3445
   49CHL1  H19C 3595   5.795   5.105   2.925  0.9067  0.2044  0.1745
   49CHL1    C1 3596   6.011   5.034   3.085  0.0580 -0.4797  0.1813
   49CHL1   H1A 3597   6.053   5.137   3.078  0.4438 -0.7731 -4.2173
   49CHL1   H1B 3598   6.064   4.982   3.167  1.7103 -0.5470 -0.8830
   49CHL1    C2 3599   6.042   4.968   2.949  0.0934  0.0994 -0.6136
   49CHL1   H2A 3600   6.150   4.965   2.921  0.4824  1.7438  0.5689
   49CHL1   H2B 3601   5.997   5.042   2.879  1.6612  0.8233 -0.8952
   49CHL1   C20 3602   5.706   5.371   3.729 -0.9648  0.0353 -0.0241
   49CHL1   H20 3603   5.618   5.434   3.704 -0.3132  0.9226 -0.1067
   49CHL1   C21 3604   5.838   5.447   3.693 -0.0597 -0.0400 -0.3911
   49CHL1  H21A 3605   5.816   5.497   3.597 -0.8840  0.8680  0.2517
   49CHL1  H21B 3606   5.925   5.379   3.680  0.4779  0.8106 -1.3989
   49CHL1  H21C 3607   5.863   5.523   3.770  1.4568 -1.1392  0.2614
   49CHL1   C22 3608   5.704   5.333   3.875  0.1253  1.2881 -0.0516
   49CHL1  H22A 3609   5.621   5.262   3.898  0.4361  0.4551 -1.3806
   49CHL1  H22B 3610   5.798   5.275   3.889 -1.1709 -0.8052  0.4337
   49CHL1   C23 3611   5.680   5.451   3.973 -0.3274  0.4127 -1.0185
   49CHL1  H23A 3612   5.774   5.511   3.976  2.0523 -3.0144 -1.4965
   49CHL1  H23B 3613   5.607   5.523   3.930  2.0508  2.0719 -2.5273
   49CHL1   C24 3614   5.648   5.414   4.122 -0.3122 -0.5718 -0.0773
   49CHL1  H24A 3615   5.594   5.317   4.109 -0.2754 -0.3271 -2.3589
   49CHL1  H24B 3616   5.743   5.379   4.168  0.5299 -0.7799 -1.8906
   49CHL1   C25 3617   5.585   5.521   4.211 -0.0573 -0.1069  0.2870
   49CHL1   H25 3618   5.568   5.479   4.312 -1.2616  1.9543  1.0108
   49CHL1   C26 3619   5.672   5.648   4.203 -0.7080  1.1329 -0.0790
   49CHL1  H26A 3620   5.680   5.692   4.101 -3.3187  1.4366 -0.2343
   49CHL1  H26B 3621   5.623   5.726   4.265 -2.1063  0.0214  0.2704
   49CHL1  H26C 3622   5.773   5.625   4.244 -0.9481 -0.1792 -0.1654
   49CHL1   C27 3623   5.441   5.544   4.164 -0.0757  0.3563 -0.7024
   49CHL1  H27A 3624   5.384   5.451   4.182  0.0010 -0.3193 -3.5156
   49CHL1  H27B 3625   5.397   5.624   4.227  0.2737  1.0793 -1.3560
   49CHL1  H27C 3626   5.431   5.581   4.059 -0.1719  1.1918 -0.4068
   50CHL1    C3 3627   6.027   2.809   2.483 -0.1701 -0.0533 -0.4702
   50CHL1    H3 3628   5.956   2.895   2.479 -1.3743 -1.0106 -0.2031
   50CHL1    O3 3629   6.052   2.768   2.346  0.3903  0.0278 -0.1633
   50CHL1   H3' 3630   6.069   2.674   2.349  0.7615  0.1301  1.4356
   50CHL1    C4 3631   6.161   2.863   2.552  0.1576  0.1129  0.1356
   50CHL1   H4A 3632   6.213   2.765   2.538 -3.8618 -2.1864 -0.5070
   50CHL1   H4B 3633   6.196   2.942   2.483  2.0056  0.4467  1.4026
   50CHL1    C5 3634   6.142   2.896   2.698  0.0517  0.2432 -0.7519
   50CHL1    C6 3635   6.176   3.020   2.746  0.5205  0.0792  0.1100
   50CHL1    H6 3636   6.235   3.094   2.690 -2.2245  3.6045  1.5720
   50CHL1    C7 3637   6.170   3.046   2.895  0.3129  0.2228 -0.2067
   50CHL1   H7A 3638   6.270   3.076   2.934  0.2407  1.1842 -0.7383
   50CHL1   H7B 3639   6.089   3.116   2.926 -0.9439 -1.6005  0.7943
   50CHL1    C8 3640   6.129   2.921   2.982 -0.2063 -0.3558  0.1040
   50CHL1    H8 3641   6.218   2.859   3.003  0.4590  0.6512  0.3571
   50CHL1   C14 3642   6.078   2.979   3.122  0.5064 -0.0551 -0.0115
   50CHL1   H14 3643   5.973   3.014   3.112  0.2891 -0.8998 -0.8344
   50CHL1   C15 3644   6.162   3.095   3.182 -0.0700 -0.6841 -0.0212
   50CHL1  H15A 3645   6.269   3.068   3.171  0.6555  1.8309  0.2425
   50CHL1  H15B 3646   6.138   3.189   3.128 -1.4673 -0.9274  0.1256
   50CHL1   C16 3647   6.123   3.093   3.331 -0.8953  0.6698 -0.0272
   50CHL1  H16A 3648   6.211   3.086   3.399 -1.2009 -1.2875  0.2311
   50CHL1  H16B 3649   6.077   3.183   3.377  3.7591  2.2619  2.1564
   50CHL1   C17 3650   6.029   2.971   3.352  0.2875 -0.5747  0.1791
   50CHL1   H17 3651   5.925   3.009   3.341  1.0916  1.6689 -0.1029
   50CHL1   C13 3652   6.058   2.875   3.234 -0.0138  0.2800  0.1130
   50CHL1   C18 3653   6.187   2.791   3.275 -0.6609  0.4691 -0.2000
   50CHL1  H18A 3654   6.243   2.741   3.194 -1.4830  1.5605 -1.4966
   50CHL1  H18B 3655   6.257   2.865   3.319 -1.5196  1.4008 -0.3605
   50CHL1  H18C 3656   6.156   2.716   3.351  1.6745 -0.2663  0.0828
   50CHL1   C12 3657   5.950   2.783   3.175 -0.2312  0.3749  0.5499
   50CHL1  H12A 3658   5.941   2.697   3.246  1.0383  0.8299  1.2760
   50CHL1  H12B 3659   5.857   2.841   3.159  0.1282  0.8483  0.1521
   50CHL1   C11 3660   5.979   2.732   3.035  0.8080 -0.0591 -0.1501
   50CHL1  H11A 3661   6.064   2.661   3.049  0.2590 -0.2845  2.7533
   50CHL1  H11B 3662   5.885   2.691   2.993  0.0873  2.9502 -1.7523
   50CHL1    C9 3663   6.018   2.840   2.924 -0.3038  0.1657 -0.0215
   50CHL1    H9 3664   5.927   2.901   2.908 -0.4149 -0.3081 -1.2604
   50CHL1   C10 3665   6.069   2.783   2.786 -0.2513 -0.1709  0.1951
   50CHL1   C19 3666   6.180   2.670   2.804 -0.2436  0.1018 -0.6668
   50CHL1  H19A 3667   6.201   2.624   2.706  0.0415 -0.0620 -0.5286
   50CHL1  H19B 3668   6.270   2.705   2.860 -0.8239 -0.4757  0.6910
   50CHL1  H19C 3669   6.141   2.586   2.867  1.6982 -0.3045  0.0584
   50CHL1    C1 3670   5.943   2.731   2.705 -0.5050 -0.0080 -0.1580
   50CHL1   H1A 3671   5.908   2.642   2.760  3.9275 -2.1939 -0.3964
   50CHL1   H1B 3672   5.868   2.813   2.700  1.3385  1.7841 -0.0885
   50CHL1    C2 3673   5.971   2.680   2.560  0.2423 -0.7206  0.3398
   50CHL1   H2A 3674   5.875   2.643   2.519  0.8167 -1.4593 -0.3884
   50CHL1   H2B 3675   6.043   2.595   2.552  1.7354  0.5371 -0.2638
   50CHL1   C20 3676   6.035   2.918   3.498  0.0636 -0.3747 -0.5769
   50CHL1   H20 3677   6.142   2.901   3.524  0.3537 -0.6356 -1.8887
   50CHL1   C21 3678   5.959   2.784   3.528 -0.4157  0.1810  0.7008
   50CHL1  H21A 3679   5.985   2.737   3.625  0.2673  2.8756  1.9167
   50CHL1  H21B 3680   5.968   2.713   3.443  1.5603 -2.3064  2.8127
   50CHL1  H21C 3681   5.849   2.795   3.543 -0.6358 -2.5857  1.7561
   50CHL1   C22 3682   5.997   3.023   3.608  0.6170 -0.3701 -0.2708
   50CHL1  H22A 3683   6.027   3.124   3.575 -0.2862 -0.2960 -0.9225
   50CHL1  H22B 3684   5.887   3.029   3.622  0.2663  1.7248 -3.0065
   50CHL1   C23 3685   6.084   2.985   3.728  0.2008  0.2006  1.2483
   50CHL1  H23A 3686   6.057   2.881   3.759 -3.8779  0.7899  0.2587
   50CHL1  H23B 3687   6.192   2.990   3.702 -0.2419  2.0769 -0.4926
   50CHL1   C24 3688   6.062   3.077   3.857  0.0259  0.5446  0.1355
   50CHL1  H24A 3689   6.101   3.177   3.830 -1.0563  0.9156 -0.1164
   50CHL1  H24B 3690   5.953   3.085   3.878  0.1282 -0.5666  1.1926
   50CHL1   C25 3691   6.130   3.016   3.982  1.2991 -0.0122  0.6364
   50CHL1   H25 3692   6.056   2.939   4.010  1.0095  0.2895  0.7043
   50CHL1   C26 3693   6.256   2.940   3.959  0.0746  0.2308  0.2026
   50CHL1  H26A 3694   6.336   3.017   3.948  1.2473 -0.8381  0.9019
   50CHL1  H26B 3695   6.283   2.884   4.052  0.0562  1.6022  1.0621
   50CHL1  H26C 3696   6.255   2.879   3.866 -0.8361  2.1936 -1.1373
   50CHL1   C27 3697   6.150   3.116   4.091  0.0380  0.1837  0.1083
   50CHL1  H27A 3698   6.061   3.182   4.095  0.0845  0.4756 -2.3011
   50CHL1  H27B 3699   6.147   3.066   4.190 -0.9300 -2.9893 -1.3715
   50CHL1  H27C 3700   6.241   3.178   4.078  0.8216 -0.3640  2.4191
   51CHL1    C3 3701   0.143   3.508   3.015  1.1246 -0.3018 -0.3226
   51CHL1    H3 3702   0.236   3.452   3.040 -0.0476 -1.2733  2.1323
   51CHL1    O3 3703   0.112   3.480   2.880  0.3033 -0.6662  0.3150
   51CHL1   H3' 3704   0.183   3.513   2.823 -2.5422  1.4059 -2.4042
   51CHL1    C4 3705   0.028   3.454   3.103  0.2891  0.2204  0.0485
   51CHL1   H4A 3706  -0.066   3.506   3.076  0.0706 -2.0294 -4.3758
   51CHL1   H4B 3707   0.026   3.346   3.075 -1.3286 -0.1531  1.4255
   51CHL1    C5 3708   0.071   3.470   3.249  0.5896  0.3231  0.5638
   51CHL1    C6 3709   0.089   3.363   3.324  1.0394  0.2063  0.4331
   51CHL1    H6 3710   0.060   3.263   3.288  0.7669  0.1600  0.7656
   51CHL1    C7 3711   0.125   3.376   3.464 -0.4530 -0.7581 -0.7921
   51CHL1   H7A 3712   0.056   3.313   3.523 -0.7909 -0.4647 -0.8724
   51CHL1   H7B 3713   0.229   3.336   3.470 -0.6358 -0.9824  1.2756
   51CHL1    C8 3714   0.119   3.520   3.525 -0.1267 -0.5477  0.9422
   51CHL1    H8 3715   0.013   3.554   3.532  0.2983  1.1918 -0.2828
   51CHL1   C14 3716   0.184   3.534   3.666 -0.0770 -0.3180  0.9046
   51CHL1   H14 3717   0.292   3.511   3.653  0.6906  3.0988  0.2126
   51CHL1   C15 3718   0.138   3.432   3.774 -1.0443 -1.0145  0.1904
   51CHL1  H15A 3719   0.027   3.439   3.768 -0.9843  2.5637  0.7140
   51CHL1  H15B 3720   0.180   3.331   3.756 -1.9807 -1.3496 -0.2182
   51CHL1   C16 3721   0.190   3.491   3.902  0.0811  0.3885 -0.6484
   51CHL1  H16A 3722   0.096   3.498   3.962 -0.7030 -0.0396 -1.7794
   51CHL1  H16B 3723   0.250   3.422   3.965 -3.0368  0.0188  2.1919
   51CHL1   C17 3724   0.250   3.633   3.873  0.0572 -0.1437 -0.2893
   51CHL1   H17 3725   0.357   3.620   3.847  0.2523  0.5542  0.1420
   51CHL1   C13 3726   0.187   3.667   3.731 -0.0268  0.1219 -1.0043
   51CHL1   C18 3727   0.043   3.711   3.768  0.5871  0.3271  0.2410
   51CHL1  H18A 3728   0.035   3.822   3.778 -0.4371  0.6996 -3.2913
   51CHL1  H18B 3729  -0.022   3.673   3.686  0.6139 -0.5932  0.6427
   51CHL1  H18C 3730   0.020   3.662   3.864  2.2611  0.2673  0.6253
   51CHL1   C12 3731   0.259   3.758   3.631 -0.9016 -0.4018 -0.8322
   51CHL1  H12A 3732   0.264   3.862   3.670  0.4899 -0.3165 -1.1538
   51CHL1  H12B 3733   0.362   3.716   3.631 -0.9361 -0.4962 -1.5202
   51CHL1   C11 3734   0.196   3.763   3.491 -0.2616 -0.7889  0.3508
   51CHL1  H11A 3735   0.101   3.817   3.507 -0.1636 -1.2694  2.9896
   51CHL1  H11B 3736   0.256   3.833   3.429 -1.3859 -0.7727 -0.7580
   51CHL1    C9 3737   0.180   3.621   3.430  0.1829 -0.1726 -0.2055
   51CHL1    H9 3738   0.284   3.586   3.413  0.3074 -0.6761  1.4293
   51CHL1   C10 3739   0.106   3.614   3.293 -0.0878  0.2894 -0.6009
   51CHL1   C19 3740  -0.027   3.686   3.292 -0.2897  0.9090  0.3292
   51CHL1  H19A 3741  -0.007   3.795   3.297  0.3722  0.7559  2.1343
   51CHL1  H19B 3742  -0.084   3.664   3.199  0.7046  0.0421 -0.0975
   51CHL1  H19C 3743  -0.089   3.653   3.379  1.6854  0.0261  1.4670
   51CHL1    C1 3744   0.201   3.674   3.185  0.4032 -0.3670 -0.1313
   51CHL1   H1A 3745   0.226   3.779   3.210 -0.3570 -0.3004  0.3950
   51CHL1   H1B 3746   0.297   3.618   3.191  0.4399 -0.3637 -0.6206
   51CHL1    C2 3747   0.158   3.655   3.040  0.5766 -0.0505  0.5929
   51CHL1   H2A 3748   0.223   3.708   2.967  0.3923 -0.0205  0.4511
   51CHL1   H2B 3749   0.057   3.696   3.019  2.0147  2.9268 -1.0529
   51CHL1   C20 3750   0.229   3.733   3.988 -0.0231 -0.4225 -0.6412
   51CHL1   H20 3751   0.121   3.746   4.012 -0.2034  1.1525 -2.1025
   51CHL1   C21 3752   0.289   3.873   3.947  0.9071  0.2653  0.0296
   51CHL1  H21A 3753   0.335   3.928   4.031  2.7045  0.1018 -0.8016
   51CHL1  H21B 3754   0.214   3.934   3.892  0.3709 -1.4209 -1.2012
   51CHL1  H21C 3755   0.373   3.856   3.876  2.2136  0.1674  1.5569
   51CHL1   C22 3756   0.286   3.686   4.124  0.3651 -0.3724  0.0031
   51CHL1  H22A 3757   0.276   3.768   4.198 -2.1838 -0.8833  0.3049
   51CHL1  H22B 3758   0.219   3.607   4.164 -0.3847  0.2165 -0.0723
   51CHL1   C23 3759   0.443   3.637   4.120  0.3846  0.2328  0.4894
   51CHL1  H23A 3760   0.476   3.576   4.034  3.4441 -0.5187  2.0312
   51CHL1  H23B 3761   0.508   3.727   4.113  1.3885 -0.5758 -0.9143
   51CHL1   C24 3762   0.487   3.560   4.248  0.2280  0.0477  0.6211
   51CHL1  H24A 3763   0.496   3.638   4.327 -0.9488  0.2028  0.6102
   51CHL1  H24B 3764   0.415   3.481   4.276 -0.7037  1.1176  1.2929
   51CHL1   C25 3765   0.613   3.474   4.230  0.1732 -0.8813 -0.1965
   51CHL1   H25 3766   0.597   3.399   4.150  2.5421 -1.1356 -0.5206
   51CHL1   C26 3767   0.740   3.554   4.199 -1.1158  0.1574  0.5177
   51CHL1  H26A 3768   0.832   3.492   4.193 -0.9848  0.4468 -0.6404
   51CHL1  H26B 3769   0.723   3.617   4.110 -1.1124 -1.3708 -0.6154
   51CHL1  H26C 3770   0.756   3.624   4.284 -0.5308 -1.3682  1.7136
   51CHL1   C27 3771   0.638   3.388   4.352  0.3967 -0.4305  0.4892
   51CHL1  H27A 3772   0.650   3.449   4.444 -0.5115 -0.0949  0.3977
   51CHL1  H27B 3773   0.559   3.312   4.366  0.5578 -0.6555  0.1953
   51CHL1  H27C 3774   0.737   3.341   4.335  1.7443  2.1661  0.5984
   52CHL1    C3 3775   1.154   5.479   2.545 -0.1584  0.6084 -0.1196
   52CHL1    H3 3776   1.199   5.572   2.587  0.0665  0.8576 -0.8891
   52CHL1    O3 3777   1.152   5.500   2.402  0.0889  0.1590 -0.2602
   52CHL1   H3' 3778   1.080   5.445   2.370  1.0659 -0.7334 -0.9843
   52CHL1    C4 3779   1.250   5.359   2.581  0.2143  0.0199  0.8801
   52CHL1   H4A 3780   1.208   5.275   2.522  1.9599  0.6493 -1.4061
   52CHL1   H4B 3781   1.348   5.388   2.539 -0.2630 -0.2143 -0.4576
   52CHL1    C5 3782   1.248   5.327   2.732 -0.3242 -0.5304 -0.0817
   52CHL1    C6 3783   1.366   5.330   2.791 -0.3081  0.5715 -0.5213
   52CHL1    H6 3784   1.460   5.332   2.734  0.2203 -0.4178  0.2738
   52CHL1    C7 3785   1.381   5.322   2.939  0.0734 -0.0397 -0.4369
   52CHL1   H7A 3786   1.477   5.275   2.969  0.6284 -1.4237 -3.9970
   52CHL1   H7B 3787   1.380   5.431   2.960  0.5207  0.2620 -1.8832
   52CHL1    C8 3788   1.260   5.270   3.015  0.2998  0.6365 -0.0840
   52CHL1    H8 3789   1.243   5.161   3.001 -1.9441  0.6528  1.8410
   52CHL1   C14 3790   1.272   5.297   3.166 -0.8459  0.5496 -0.0649
   52CHL1   H14 3791   1.277   5.408   3.170 -0.7863  0.5922 -1.0597
   52CHL1   C15 3792   1.410   5.257   3.239 -0.0188  0.2757  0.0423
   52CHL1  H15A 3793   1.441   5.154   3.212 -1.2519 -0.0820 -0.0615
   52CHL1  H15B 3794   1.499   5.320   3.220  0.3436  0.9722  3.4741
   52CHL1   C16 3795   1.366   5.259   3.385 -0.0591 -0.2509  0.6754
   52CHL1  H16A 3796   1.395   5.160   3.426  1.7504 -0.7250 -1.5478
   52CHL1  H16B 3797   1.428   5.333   3.441 -0.9369  0.7568  0.3483
   52CHL1   C17 3798   1.209   5.291   3.394  0.2457 -0.0870 -0.4382
   52CHL1   H17 3799   1.196   5.401   3.406 -0.8781 -0.4280  2.0348
   52CHL1   C13 3800   1.156   5.248   3.255  0.2695  0.5066 -0.2808
   52CHL1   C18 3801   1.149   5.094   3.242  0.7000  0.8902  0.2397
   52CHL1  H18A 3802   1.251   5.055   3.262  1.5784  3.5873  1.5663
   52CHL1  H18B 3803   1.077   5.055   3.316  1.4364 -0.8617  0.0641
   52CHL1  H18C 3804   1.117   5.081   3.136  0.3548 -1.6918  0.6157
   52CHL1   C12 3805   1.033   5.325   3.197  0.1447 -0.2684  0.3825
   52CHL1  H12A 3806   0.939   5.302   3.252 -1.2384  3.3147 -0.2173
   52CHL1  H12B 3807   1.049   5.435   3.203 -0.7465  0.1426 -2.8351
   52CHL1   C11 3808   1.006   5.299   3.045 -1.0392 -0.1067 -0.4491
   52CHL1  H11A 3809   0.974   5.194   3.030 -0.8263 -0.2742  0.2432
   52CHL1  H11B 3810   0.919   5.356   3.007  0.5879  1.5401 -1.8687
   52CHL1    C9 3811   1.131   5.337   2.957  0.1703  0.3558 -0.2477
   52CHL1    H9 3812   1.151   5.445   2.969  2.6303  0.0330 -0.8711
   52CHL1   C10 3813   1.117   5.321   2.804 -0.0828 -0.1735 -0.6802
   52CHL1   C19 3814   1.055   5.186   2.767  0.7526  0.3706 -0.2417
   52CHL1  H19A 3815   1.099   5.103   2.826  1.0783  0.3878 -0.4607
   52CHL1  H19B 3816   0.949   5.190   2.800 -0.0369 -1.1437 -2.4116
   52CHL1  H19C 3817   1.050   5.163   2.659  1.1538  1.7844 -0.5802
   52CHL1    C1 3818   1.027   5.436   2.754  0.0851  0.4926 -0.0614
   52CHL1   H1A 3819   0.926   5.425   2.800 -0.1775 -2.8545 -1.1571
   52CHL1   H1B 3820   1.077   5.528   2.791  1.2172 -0.1953  0.1544
   52CHL1    C2 3821   1.021   5.445   2.604 -0.0288  0.1009  0.5157
   52CHL1   H2A 3822   0.956   5.530   2.575  1.5018  0.8593 -0.9298
   52CHL1   H2B 3823   0.983   5.349   2.562  2.0476 -1.3245  1.6587
   52CHL1   C20 3824   1.153   5.230   3.524 -1.0593  0.4270 -0.6015
   52CHL1   H20 3825   1.176   5.121   3.524 -0.1912  0.5787 -2.1172
   52CHL1   C21 3826   1.001   5.242   3.538  0.2534 -0.1851  0.4524
   52CHL1  H21A 3827   0.952   5.188   3.455 -0.6061  1.3724 -0.0990
   52CHL1  H21B 3828   0.973   5.350   3.535  4.2901  1.1644  2.7834
   52CHL1  H21C 3829   0.965   5.195   3.632  2.3479  1.4947  2.2194
   52CHL1   C22 3830   1.220   5.298   3.642  0.5165 -0.2064  0.0682
   52CHL1  H22A 3831   1.331   5.290   3.642  0.4306 -1.5428  0.4075
   52CHL1  H22B 3832   1.196   5.406   3.640 -3.9345 -0.9432  2.1859
   52CHL1   C23 3833   1.182   5.234   3.784  0.3410 -0.0665  0.4900
   52CHL1  H23A 3834   1.257   5.290   3.844  0.6135 -0.3589  0.4274
   52CHL1  H23B 3835   1.079   5.268   3.806 -0.4197 -0.6887 -1.8548
   52CHL1   C24 3836   1.213   5.084   3.811  0.9003 -0.4743 -0.0527
   52CHL1  H24A 3837   1.160   5.016   3.741  1.6157  1.7207 -2.9388
   52CHL1  H24B 3838   1.321   5.075   3.786  0.4617 -0.4551 -2.1585
   52CHL1   C25 3839   1.183   5.044   3.949  0.1670  0.5463 -0.1001
   52CHL1   H25 3840   1.201   4.934   3.950  0.0648  0.4574  2.9539
   52CHL1   C26 3841   1.278   5.112   4.051 -0.2296 -0.5796  0.6790
   52CHL1  H26A 3842   1.260   5.078   4.155 -0.2633 -1.1775  0.4795
   52CHL1  H26B 3843   1.385   5.108   4.020 -1.2439  0.2812 -3.5189
   52CHL1  H26C 3844   1.255   5.220   4.058  0.3188 -0.2303 -1.7547
   52CHL1   C27 3845   1.030   5.050   3.983 -0.3180  0.3421  0.0264
   52CHL1  H27A 3846   0.981   5.133   3.929 -0.8420 -0.4124 -0.6913
   52CHL1  H27B 3847   0.982   4.956   3.948  2.6048 -2.4173  2.6975
   52CHL1  H27C 3848   1.007   5.071   4.090 -0.2054  0.9878 -0.0723
   53CHL1    C3 3849   1.259   2.909   2.857 -0.3196 -0.4670 -0.2418
   53CHL1    H3 3850   1.166   2.962   2.886  1.2019 -0.2185  5.3495
   53CHL1    O3 3851   1.270   2.859   2.724 -0.1944 -0.5803 -0.4674
   53CHL1   H3' 3852   1.359   2.832   2.700  1.0939  2.0874  0.8646
   53CHL1    C4 3853   1.366   3.010   2.884  0.3070  0.6638  0.3961
   53CHL1   H4A 3854   1.463   2.973   2.846 -1.5852 -1.5721 -2.8174
   53CHL1   H4B 3855   1.337   3.094   2.816 -1.3615 -1.9702 -2.3862
   53CHL1    C5 3856   1.388   3.047   3.034  0.2306 -0.4524 -0.5203
   53CHL1    C6 3857   1.394   3.173   3.076  0.1571  0.0133  0.0710
   53CHL1    H6 3858   1.385   3.252   3.000 -0.1509 -1.5444 -1.5702
   53CHL1    C7 3859   1.403   3.219   3.223  0.4497 -0.0097 -0.2094
   53CHL1   H7A 3860   1.483   3.296   3.224  0.6138 -0.1054 -2.1434
   53CHL1   H7B 3861   1.303   3.257   3.255 -0.3840 -2.2218  0.0233
   53CHL1    C8 3862   1.442   3.100   3.316  0.0336  0.9496 -0.0186
   53CHL1    H8 3863   1.545   3.067   3.293 -1.3525 -2.6471 -1.9560
   53CHL1   C14 3864   1.419   3.136   3.456  0.2686 -0.0956 -0.2159
   53CHL1   H14 3865   1.313   3.170   3.460  0.5105  0.5472  1.6019
   53CHL1   C15 3866   1.501   3.259   3.520 -0.1026 -0.1078  0.0907
   53CHL1  H15A 3867   1.612   3.253   3.518 -0.1208 -0.2813 -1.2537
   53CHL1  H15B 3868   1.461   3.348   3.466  1.3888  0.2735 -0.4545
   53CHL1   C16 3869   1.457   3.255   3.664 -0.2552 -0.0472  0.5561
   53CHL1  H16A 3870   1.551   3.276   3.720  2.4963 -2.7309 -2.6440
   53CHL1  H16B 3871   1.373   3.324   3.687 -2.3373 -1.5893 -1.9098
   53CHL1   C17 3872   1.400   3.112   3.690 -0.4864 -0.1673  0.0706
   53CHL1   H17 3873   1.289   3.118   3.687 -0.4214  1.3457  0.2197
   53CHL1   C13 3874   1.426   3.027   3.562 -0.1040  0.0866  0.4010
   53CHL1   C18 3875   1.571   2.972   3.563 -0.6130  0.2718  0.5354
   53CHL1  H18A 3876   1.593   2.897   3.642 -1.3075 -1.1470 -0.5805
   53CHL1  H18B 3877   1.596   2.926   3.465 -0.1262 -1.4239  1.4169
   53CHL1  H18C 3878   1.639   3.060   3.558 -0.9152  0.4513 -2.1054
   53CHL1   C12 3879   1.320   2.917   3.530 -0.7329 -0.2313  0.0709
   53CHL1  H12A 3880   1.326   2.831   3.600 -0.6551 -0.3832 -0.1214
   53CHL1  H12B 3881   1.218   2.961   3.529  0.1371  1.9182 -0.2202
   53CHL1   C11 3882   1.347   2.862   3.385 -0.1263  0.3011 -0.3699
   53CHL1  H11A 3883   1.442   2.804   3.384 -0.8224 -1.0423  2.2017
   53CHL1  H11B 3884   1.261   2.794   3.367  1.5783 -1.9448 -0.5216
   53CHL1    C9 3885   1.349   2.978   3.279 -0.0276  0.4930 -0.0403
   53CHL1    H9 3886   1.246   3.019   3.275 -0.0932  0.2056 -1.8674
   53CHL1   C10 3887   1.390   2.925   3.139 -0.5896  0.2370  0.0039
   53CHL1   C19 3888   1.531   2.859   3.123  0.3615  0.2953  0.0058
   53CHL1  H19A 3889   1.529   2.760   3.174 -2.5609  1.0481  1.5965
   53CHL1  H19B 3890   1.570   2.855   3.019  0.2681 -0.9807  0.0037
   53CHL1  H19C 3891   1.608   2.918   3.177 -0.6974  0.0915  1.8586
   53CHL1    C1 3892   1.286   2.820   3.096  0.7879 -0.0717  0.2403
   53CHL1   H1A 3893   1.313   2.728   3.152  0.0420 -0.0930  0.5814
   53CHL1   H1B 3894   1.189   2.861   3.132  1.2128  0.5440  0.7041
   53CHL1    C2 3895   1.281   2.787   2.945 -0.6024 -0.5005  0.7892
   53CHL1   H2A 3896   1.197   2.718   2.921  0.4669 -1.3211 -0.8157
   53CHL1   H2B 3897   1.373   2.729   2.919 -0.5984  0.1795 -0.8417
   53CHL1   C20 3898   1.450   3.069   3.829  0.3799  0.7538 -0.6477
   53CHL1   H20 3899   1.559   3.049   3.821  0.5108  1.7746 -1.6970
   53CHL1   C21 3900   1.381   2.935   3.858  0.2070  0.4834 -0.1478
   53CHL1  H21A 3901   1.387   2.905   3.965 -2.6189 -0.8003 -0.2596
   53CHL1  H21B 3902   1.428   2.855   3.797 -0.3579  1.4283 -1.8667
   53CHL1  H21C 3903   1.273   2.942   3.833  0.0201 -1.0157  0.1623
   53CHL1   C22 3904   1.422   3.171   3.944 -0.5323  0.1986 -0.2813
   53CHL1  H22A 3905   1.437   3.277   3.916 -1.1347  1.0331  2.2381
   53CHL1  H22B 3906   1.314   3.163   3.970 -0.5749  0.1485 -0.4718
   53CHL1   C23 3907   1.499   3.152   4.078 -0.3398  0.0845  0.0969
   53CHL1  H23A 3908   1.512   3.043   4.097 -1.5791 -0.5062 -2.1017
   53CHL1  H23B 3909   1.601   3.196   4.073 -0.6191  0.7104 -0.1899
   53CHL1   C24 3910   1.417   3.223   4.188  0.1592  0.4594  0.0443
   53CHL1  H24A 3911   1.396   3.329   4.162  1.4746  0.5529 -0.6999
   53CHL1  H24B 3912   1.323   3.163   4.187  1.2903 -1.4628  1.4346
   53CHL1   C25 3913   1.483   3.223   4.333 -0.3338 -0.6798  0.0295
   53CHL1   H25 3914   1.415   3.283   4.398 -0.1894  0.5216 -0.9040
   53CHL1   C26 3915   1.506   3.077   4.374  0.6673  0.6932 -0.6874
   53CHL1  H26A 3916   1.538   3.079   4.480 -2.5746  0.4473  0.3751
   53CHL1  H26B 3917   1.409   3.025   4.366  1.4192 -0.8152 -0.4529
   53CHL1  H26C 3918   1.586   3.034   4.309  0.8954  0.3959 -0.2151
   53CHL1   C27 3919   1.617   3.301   4.323 -0.9518  0.8054  0.6279
   53CHL1  H27A 3920   1.685   3.236   4.264 -2.2475  1.0167 -1.1999
   53CHL1  H27B 3921   1.617   3.398   4.269  1.0103  2.0284  2.6530
   53CHL1  H27C 3922   1.670   3.324   4.418 -2.3720  1.5323  1.2684
   54CHL1    C3 3923   0.362   3.221   2.890 -0.3196 -0.5974  0.2742
   54CHL1    H3 3924   0.283   3.299   2.898 -1.0313 -1.1349 -1.2065
   54CHL1    O3 3925   0.329   3.135   2.783  0.0097  0.3379  0.8760
   54CHL1   H3' 3926   0.332   3.047   2.822 -1.9143 -0.3563 -0.3552
   54CHL1    C4 3927   0.503   3.279   2.866  0.2243  0.2118 -0.3178
   54CHL1   H4A 3928   0.572   3.193   2.851 -1.4659 -1.1532 -0.5842
   54CHL1   H4B 3929   0.491   3.338   2.773 -1.0833  0.6962  0.1374
   54CHL1    C5 3930   0.532   3.363   2.985 -0.2317 -0.3883  0.6778
   54CHL1    C6 3931   0.556   3.497   2.972  0.1179  0.3085  0.3480
   54CHL1    H6 3932   0.543   3.534   2.870  2.2478 -0.4897 -0.2699
   54CHL1    C7 3933   0.610   3.582   3.081  0.6345 -0.7513  0.6469
   54CHL1   H7A 3934   0.701   3.639   3.052 -0.0587  0.4992  0.8681
   54CHL1   H7B 3935   0.532   3.656   3.107  0.8121  0.0197 -0.9051
   54CHL1    C8 3936   0.643   3.502   3.212  0.6311 -0.0718  0.3913
   54CHL1    H8 3937   0.745   3.460   3.199  1.2310  1.4092  0.1561
   54CHL1   C14 3938   0.637   3.591   3.333  0.9680  0.8015  0.0150
   54CHL1   H14 3939   0.529   3.616   3.343  1.2927  2.4143 -0.1869
   54CHL1   C15 3940   0.715   3.723   3.323 -0.6104 -0.0097 -0.4665
   54CHL1  H15A 3941   0.817   3.713   3.280 -0.4402  1.4135 -0.4394
   54CHL1  H15B 3942   0.647   3.796   3.275 -1.1158  0.0431  0.3194
   54CHL1   C16 3943   0.737   3.761   3.469 -0.3741  0.6297  0.0021
   54CHL1  H16A 3944   0.844   3.746   3.492  0.0323 -0.2245 -2.1806
   54CHL1  H16B 3945   0.696   3.861   3.496 -0.1097  0.5668  0.6417
   54CHL1   C17 3946   0.672   3.653   3.557 -0.0624  0.0847 -0.4267
   54CHL1   H17 3947   0.567   3.686   3.565 -0.1665 -0.2578 -0.3588
   54CHL1   C13 3948   0.680   3.526   3.471 -0.6027 -0.7964 -0.0157
   54CHL1   C18 3949   0.829   3.480   3.460  0.5082 -0.5419 -0.3525
   54CHL1  H18A 3950   0.867   3.425   3.549 -2.3020 -1.5700  0.3069
   54CHL1  H18B 3951   0.860   3.424   3.370  0.6867 -1.8877  0.5144
   54CHL1  H18C 3952   0.902   3.563   3.472 -0.7736  0.2852  3.2744
   54CHL1   C12 3953   0.583   3.412   3.500  0.5390  0.0466 -0.4147
   54CHL1  H12A 3954   0.617   3.350   3.586  0.1928 -0.5421 -0.6902
   54CHL1  H12B 3955   0.483   3.453   3.526  0.0259 -0.7002 -1.1438
   54CHL1   C11 3956   0.563   3.321   3.383  0.1121  0.1514 -0.1821
   54CHL1  H11A 3957   0.657   3.265   3.367  0.3254  0.8733 -1.6836
   54CHL1  H11B 3958   0.485   3.246   3.408  0.5098 -0.5126 -0.8985
   54CHL1    C9 3959   0.547   3.389   3.238  0.4656 -0.5989  0.2509
   54CHL1    H9 3960   0.446   3.433   3.237  0.3384 -0.8249  1.6237
   54CHL1   C10 3961   0.531   3.291   3.121  0.0271  0.7747  0.1547
   54CHL1   C19 3962   0.647   3.185   3.121  0.2794 -0.2399 -0.6989
   54CHL1  H19A 3963   0.667   3.132   3.217 -3.0766  0.1136  0.3107
   54CHL1  H19B 3964   0.644   3.113   3.036 -0.5053 -0.1284 -0.7730
   54CHL1  H19C 3965   0.744   3.238   3.106  0.7352 -0.3339  1.5390
   54CHL1    C1 3966   0.400   3.212   3.139  0.0465  0.1707 -0.0500
   54CHL1   H1A 3967   0.417   3.141   3.223 -0.4377  0.6948  0.5014
   54CHL1   H1B 3968   0.319   3.281   3.172 -1.4235 -1.2832 -0.4986
   54CHL1    C2 3969   0.354   3.133   3.013 -0.7966  0.0544 -0.6039
   54CHL1   H2A 3970   0.245   3.111   3.019 -1.5567  3.3324 -0.5030
   54CHL1   H2B 3971   0.422   3.047   2.993  1.6527  1.8411 -0.2953
   54CHL1   C20 3972   0.737   3.654   3.695  0.0968  0.7610  0.1050
   54CHL1   H20 3973   0.847   3.641   3.686  0.0776 -0.7459  1.4572
   54CHL1   C21 3974   0.694   3.532   3.786  0.3449 -0.8039 -0.7878
   54CHL1  H21A 3975   0.721   3.553   3.891 -0.2287  1.1904 -0.9925
   54CHL1  H21B 3976   0.740   3.437   3.753  2.0492  0.2864 -1.7043
   54CHL1  H21C 3977   0.584   3.537   3.772  0.3737  0.0106 -0.8140
   54CHL1   C22 3978   0.704   3.780   3.781  0.0993 -0.3157 -0.2072
   54CHL1  H22A 3979   0.677   3.870   3.722  0.9915 -0.1672 -0.4023
   54CHL1  H22B 3980   0.602   3.772   3.825 -0.1607  0.1791 -0.7205
   54CHL1   C23 3981   0.818   3.806   3.884  0.5852  0.5336  0.0478
   54CHL1  H23A 3982   0.846   3.714   3.939  0.8852  0.4865 -0.1794
   54CHL1  H23B 3983   0.915   3.810   3.831  0.8601 -2.2247  0.1970
   54CHL1   C24 3984   0.790   3.918   3.980  0.3805 -0.0877  0.2973
   54CHL1  H24A 3985   0.752   4.011   3.933 -0.7829 -1.4884 -1.7102
   54CHL1  H24B 3986   0.702   3.882   4.038  0.1802  0.1800  0.1648
   54CHL1   C25 3987   0.908   3.964   4.067 -0.1214 -0.2185 -0.4491
   54CHL1   H25 3988   0.978   3.878   4.076  0.0510  0.0533  1.0739
   54CHL1   C26 3989   0.990   4.072   3.985 -0.3896  0.0772 -0.0016
   54CHL1  H26A 3990   1.081   4.096   4.044 -1.2128 -2.3487  2.4967
   54CHL1  H26B 3991   1.016   4.021   3.890  0.9986 -2.7068  1.7279
   54CHL1  H26C 3992   0.919   4.157   3.984 -2.0974 -1.2932 -0.6783
   54CHL1   C27 3993   0.869   4.011   4.209  0.0554 -1.1685  1.1470
   54CHL1  H27A 3994   0.955   4.055   4.264 -0.4045 -0.7911  1.5755
   54CHL1  H27B 3995   0.797   4.093   4.186 -0.4003 -1.6223  0.9242
   54CHL1  H27C 3996   0.805   3.937   4.261 -2.9848 -0.0661 -0.7066
   55CHL1    C3 3997   1.412   4.117   3.008 -0.3417  0.6143 -0.4266
   55CHL1    H3 3998   1.305   4.125   3.038 -0.8307  1.2148 -2.1811
   55CHL1    O3 3999   1.415   4.113   2.865  0.0080  0.4978 -0.2104
   55CHL1   H3' 4000   1.509   4.099   2.850 -0.0593 -0.2966  0.0578
   55CHL1    C4 4001   1.482   4.244   3.055 -0.3390  0.0973 -0.4602
   55CHL1   H4A 4002   1.586   4.256   3.018 -0.1674 -2.0013 -0.7977
   55CHL1   H4B 4003   1.425   4.330   3.016 -1.1600 -0.9018 -1.5393
   55CHL1    C5 4004   1.485   4.250   3.206 -0.3538  0.4803  0.3085
   55CHL1    C6 4005   1.424   4.348   3.277  0.4269  0.2148  0.2664
   55CHL1    H6 4006   1.372   4.430   3.225 -3.2698 -1.5897  0.8352
   55CHL1    C7 4007   1.431   4.353   3.429 -0.7066 -0.2392  1.1343
   55CHL1   H7A 4008   1.444   4.459   3.460  0.1778  0.8303 -2.4387
   55CHL1   H7B 4009   1.333   4.312   3.462 -1.1875  1.4342  1.9309
   55CHL1    C8 4010   1.545   4.266   3.484 -0.1762 -0.1124  0.1225
   55CHL1    H8 4011   1.644   4.311   3.463 -0.0453 -0.0802  0.7933
   55CHL1   C14 4012   1.531   4.265   3.631 -0.3534 -0.5616  0.2500
   55CHL1   H14 4013   1.428   4.227   3.650 -0.0959 -0.7722  1.2817
   55CHL1   C15 4014   1.531   4.398   3.703  1.6440 -0.3067 -0.4686
   55CHL1  H15A 4015   1.602   4.471   3.659 -1.3830  2.7306 -0.6476
   55CHL1  H15B 4016   1.428   4.437   3.708  1.4383 -0.6034 -1.8296
   55CHL1   C16 4017   1.572   4.362   3.844 -0.0391  0.0038 -0.1215
   55CHL1  H16A 4018   1.664   4.421   3.864  1.2214 -0.9108 -2.7008
   55CHL1  H16B 4019   1.502   4.394   3.924 -2.4737 -1.7768 -1.3952
   55CHL1   C17 4020   1.620   4.214   3.848 -0.3782 -0.7533  0.1015
   55CHL1   H17 4021   1.531   4.152   3.874  0.1665 -1.6563 -0.1109
   55CHL1   C13 4022   1.641   4.183   3.699 -0.0019 -0.1111 -0.2560
   55CHL1   C18 4023   1.783   4.241   3.666 -0.0299 -0.7739 -0.5006
   55CHL1  H18A 4024   1.861   4.184   3.722 -1.2776  0.3282  2.5419
   55CHL1  H18B 4025   1.808   4.217   3.560  2.2474  2.1350 -0.7370
   55CHL1  H18C 4026   1.787   4.349   3.688 -0.5649 -1.1753  1.8808
   55CHL1   C12 4027   1.621   4.039   3.655 -0.5127  0.9680  0.4958
   55CHL1  H12A 4028   1.699   3.971   3.695 -0.2359  1.5502  0.9649
   55CHL1  H12B 4029   1.529   4.012   3.712 -0.1023  1.3158  1.3477
   55CHL1   C11 4030   1.626   4.021   3.502  0.1962 -0.1249 -0.8837
   55CHL1  H11A 4031   1.732   4.026   3.470 -0.0116  1.0641 -1.4440
   55CHL1  H11B 4032   1.582   3.920   3.487  0.2005 -0.3903  0.6776
   55CHL1    C9 4033   1.531   4.122   3.426 -0.9336 -1.1185 -0.6834
   55CHL1    H9 4034   1.431   4.089   3.459 -0.4282  0.1077  2.4348
   55CHL1   C10 4035   1.548   4.133   3.271  0.7493  0.3528  0.4340
   55CHL1   C19 4036   1.700   4.137   3.236  0.1831  0.3455  0.3704
   55CHL1  H19A 4037   1.743   4.222   3.292 -2.2476  1.7357  0.2497
   55CHL1  H19B 4038   1.743   4.036   3.255 -2.6210 -0.7567  1.3420
   55CHL1  H19C 4039   1.714   4.153   3.127 -1.6312 -0.0644  0.0391
   55CHL1    C1 4040   1.486   4.000   3.215 -0.6528  0.0713 -0.0249
   55CHL1   H1A 4041   1.546   3.914   3.254 -1.2397 -0.2385  0.1993
   55CHL1   H1B 4042   1.384   3.978   3.252 -0.2302 -3.0436 -0.4504
   55CHL1    C2 4043   1.484   3.990   3.062  0.4893 -0.1780 -0.1617
   55CHL1   H2A 4044   1.434   3.896   3.028  2.9899 -1.6145 -0.1082
   55CHL1   H2B 4045   1.587   3.998   3.022  0.2611  1.3186 -0.4942
   55CHL1   C20 4046   1.715   4.179   3.966  0.2620 -0.3083 -0.0633
   55CHL1   H20 4047   1.805   4.243   3.955 -0.5903  1.2099  1.2726
   55CHL1   C21 4048   1.759   4.036   3.947 -0.1595 -0.3762  0.8177
   55CHL1  H21A 4049   1.678   3.961   3.949  0.0116 -0.6485 -0.9425
   55CHL1  H21B 4050   1.845   4.010   4.012  0.1032  0.2395  0.7259
   55CHL1  H21C 4051   1.802   4.039   3.845 -1.4585  0.2111  0.2623
   55CHL1   C22 4052   1.655   4.205   4.108 -0.1924 -0.0849  0.7603
   55CHL1  H22A 4053   1.626   4.311   4.129 -0.0965  0.1573 -0.3007
   55CHL1  H22B 4054   1.563   4.143   4.115  0.9241 -2.1914 -1.8410
   55CHL1   C23 4055   1.745   4.177   4.224 -0.3213  0.3578 -0.2480
   55CHL1  H23A 4056   1.766   4.068   4.228 -2.3600 -0.1132 -1.0191
   55CHL1  H23B 4057   1.842   4.226   4.202  1.6190 -2.5218  1.2879
   55CHL1   C24 4058   1.688   4.217   4.358  0.3139 -0.5157 -0.3097
   55CHL1  H24A 4059   1.652   4.322   4.366  1.7106  0.0465 -1.0946
   55CHL1  H24B 4060   1.595   4.158   4.370  0.5473 -0.6066  1.2805
   55CHL1   C25 4061   1.788   4.199   4.474 -0.5412 -0.5254  0.0808
   55CHL1   H25 4062   1.843   4.103   4.463 -0.3081 -0.0724 -4.3340
   55CHL1   C26 4063   1.901   4.312   4.472  0.2756 -0.2009  0.1268
   55CHL1  H26A 4064   1.974   4.299   4.388 -0.6032  0.6206 -0.7977
   55CHL1  H26B 4065   1.865   4.416   4.459 -0.5492 -0.5815 -0.7739
   55CHL1  H26C 4066   1.953   4.304   4.570  0.3746  0.6288  0.1423
   55CHL1   C27 4067   1.713   4.190   4.611 -0.8891  0.1754  0.2367
   55CHL1  H27A 4068   1.795   4.189   4.686  0.0151 -1.4208 -0.7251
   55CHL1  H27B 4069   1.638   4.268   4.636 -2.1037 -0.6650 -0.6589
   55CHL1  H27C 4070   1.655   4.096   4.613  0.7240 -1.0473 -3.0273
   56CHL1    C3 4071   0.614   4.091   2.562  0.0239 -1.0834  0.6309
   56CHL1    H3 4072   0.694   4.015   2.576  2.5139  1.1233 -0.6343
   56CHL1    O3 4073   0.599   4.082   2.422  0.2985 -0.2864 -0.1143
   56CHL1   H3' 4074   0.537   4.152   2.402 -1.1585 -2.2021 -2.8972
   56CHL1    C4 4075   0.482   4.048   2.620 -0.1759 -0.3933 -0.2022
   56CHL1   H4A 4076   0.398   4.111   2.585  0.6837 -0.1536 -1.9661
   56CHL1   H4B 4077   0.446   3.948   2.588 -3.2509  0.1208  1.2799
   56CHL1    C5 4078   0.490   4.057   2.767 -0.4279 -0.0527 -0.3566
   56CHL1    C6 4079   0.476   3.948   2.848  0.6139 -0.0172 -0.0264
   56CHL1    H6 4080   0.456   3.845   2.815 -0.2896  0.0353  0.3314
   56CHL1    C7 4081   0.472   3.953   2.997 -0.5145 -0.7946 -0.3429
   56CHL1   H7A 4082   0.383   3.898   3.033 -1.6943  1.5395  0.4758
   56CHL1   H7B 4083   0.565   3.901   3.031  0.6887  0.9771 -0.7598
   56CHL1    C8 4084   0.460   4.097   3.054  0.8264  0.1769  0.3602
   56CHL1    H8 4085   0.354   4.129   3.043 -0.3879 -3.5473 -0.1757
   56CHL1   C14 4086   0.490   4.092   3.201 -0.3771  0.6779 -0.5246
   56CHL1   H14 4087   0.590   4.043   3.207  0.3499  1.7688 -2.7700
   56CHL1   C15 4088   0.414   4.003   3.298  0.8196  0.2958  0.2062
   56CHL1  H15A 4089   0.303   4.000   3.286  0.9722 -1.0225 -1.3144
   56CHL1  H15B 4090   0.450   3.898   3.296 -1.4199 -0.5399 -1.4649
   56CHL1   C16 4091   0.445   4.054   3.435 -0.4326  0.2951 -0.2758
   56CHL1  H16A 4092   0.353   4.080   3.490 -0.7754 -1.4886  0.0589
   56CHL1  H16B 4093   0.496   3.988   3.509 -2.0936 -0.0020  0.6549
   56CHL1   C17 4094   0.540   4.175   3.412 -0.0290  0.1085  0.2011
   56CHL1   H17 4095   0.646   4.140   3.408  0.7106  2.0104  1.6066
   56CHL1   C13 4096   0.508   4.227   3.273 -0.0252  1.1380 -0.4500
   56CHL1   C18 4097   0.368   4.301   3.271  0.2086 -0.6057 -0.1611
   56CHL1  H18A 4098   0.329   4.307   3.168 -0.0964 -0.6058 -0.0453
   56CHL1  H18B 4099   0.284   4.248   3.320  1.0000 -1.4135  0.3542
   56CHL1  H18C 4100   0.378   4.403   3.316 -0.2091 -0.6849  0.1090
   56CHL1   C12 4101   0.613   4.308   3.194  0.4177  0.5197  1.1436
   56CHL1  H12A 4102   0.628   4.411   3.234  3.7205 -0.5875  3.1981
   56CHL1  H12B 4103   0.709   4.257   3.217  0.4574 -0.1432 -0.3333
   56CHL1   C11 4104   0.575   4.323   3.043 -0.1122 -0.1479  0.6039
   56CHL1  H11A 4105   0.494   4.396   3.022 -0.1979 -0.1345  0.9597
   56CHL1  H11B 4106   0.672   4.363   3.008 -0.2673 -0.1016  0.2303
   56CHL1    C9 4107   0.560   4.189   2.980  0.1360  0.0183 -0.7888
   56CHL1    H9 4108   0.657   4.135   2.986 -0.2388 -0.8559 -2.2019
   56CHL1   C10 4109   0.530   4.194   2.828 -0.6691  0.4599  0.3105
   56CHL1   C19 4110   0.413   4.293   2.801 -0.3124  0.3825 -1.2038
   56CHL1  H19A 4111   0.448   4.396   2.822 -0.0926  0.5438 -2.3040
   56CHL1  H19B 4112   0.377   4.303   2.697  0.9818  0.0333 -1.7009
   56CHL1  H19C 4113   0.329   4.260   2.867  2.5846 -3.4734  1.0254
   56CHL1    C1 4114   0.664   4.242   2.759 -0.2356  0.2702  0.4560
   56CHL1   H1A 4115   0.687   4.348   2.784 -0.6964  0.4113  0.3002
   56CHL1   H1B 4116   0.744   4.183   2.809 -0.2627  1.1611  1.6003
   56CHL1    C2 4117   0.663   4.229   2.605  0.2286 -0.3845  0.5738
   56CHL1   H2A 4118   0.759   4.260   2.559  0.1286  0.2979  0.8153
   56CHL1   H2B 4119   0.588   4.299   2.564  0.0441 -1.1742 -0.4856
   56CHL1   C20 4120   0.522   4.272   3.529  0.3617  0.1902  0.8852
   56CHL1   H20 4121   0.417   4.307   3.522  0.4978  0.5948  0.8385
   56CHL1   C21 4122   0.602   4.395   3.504 -0.1202 -0.2956 -0.4225
   56CHL1  H21A 4123   0.585   4.465   3.589  3.3218  0.7003 -0.4103
   56CHL1  H21B 4124   0.575   4.448   3.410 -1.7219 -1.0898 -0.4319
   56CHL1  H21C 4125   0.709   4.369   3.493 -1.0273 -4.6410 -0.4340
   56CHL1   C22 4126   0.551   4.219   3.669 -0.6452 -0.2527 -0.1800
   56CHL1  H22A 4127   0.503   4.119   3.674 -4.0373  1.2611  3.3349
   56CHL1  H22B 4128   0.661   4.210   3.674 -0.5865  0.4665 -0.0532
   56CHL1   C23 4129   0.502   4.313   3.787 -0.0005  0.2606 -0.4604
   56CHL1  H23A 4130   0.559   4.409   3.787  0.2440  0.1249 -1.6189
   56CHL1  H23B 4131   0.393   4.333   3.786 -0.0060  0.3980  0.8927
   56CHL1   C24 4132   0.533   4.244   3.922 -0.3409 -0.1262  0.4082
   56CHL1  H24A 4133   0.488   4.143   3.928 -0.1796 -0.2457 -0.2948
   56CHL1  H24B 4134   0.642   4.221   3.928 -0.4030 -0.5430 -0.0052
   56CHL1   C25 4135   0.492   4.310   4.050  0.1287  0.2860 -0.1249
   56CHL1   H25 4136   0.401   4.372   4.032 -0.9120 -0.4607  2.1902
   56CHL1   C26 4137   0.480   4.203   4.147  0.6410  0.2697 -0.1490
   56CHL1  H26A 4138   0.575   4.146   4.160 -0.0593 -0.7111  0.9556
   56CHL1  H26B 4139   0.461   4.247   4.248  0.3091 -0.3852  0.0824
   56CHL1  H26C 4140   0.399   4.133   4.118  0.2540  0.7327 -0.1990
   56CHL1   C27 4141   0.599   4.410   4.087  0.5359 -0.1766 -0.5135
   56CHL1  H27A 4142   0.584   4.465   4.183 -0.7223  0.1569 -0.8812
   56CHL1  H27B 4143   0.697   4.361   4.105  1.1219  1.6197  1.6748
   56CHL1  H27C 4144   0.633   4.484   4.012  1.0552  1.6472  1.4058
   57SAPC     N 4145   3.613   2.942   7.113 -0.3466  0.2376  0.0110
   57SAPC   C12 4146   3.595   2.935   6.963  0.0073 -0.4070 -0.6594
   57SAPC  H12A 4147   3.688   2.890   6.928  2.0282  2.1814  1.0008
   57SAPC  H12B 4148   3.609   3.032   6.917  2.3971  0.0085  0.7725
   57SAPC   C13 4149   3.736   3.033   7.134 -0.0066 -0.2018  0.0517
   57SAPC  H13A 4150   3.820   2.998   7.075  0.2861  0.7668 -0.1275
   57SAPC  H13B 4151   3.713   3.137   7.115  0.2895 -0.1105  0.1940
   57SAPC  H13C 4152   3.773   3.033   7.235  1.9739  2.0024 -0.6009
   57SAPC   C14 4153   3.496   3.004   7.179  0.0474 -0.1957 -0.5537
   57SAPC  H14A 4154   3.419   2.929   7.189  0.5028 -0.6118 -0.1161
   57SAPC  H14B 4155   3.520   3.030   7.281 -0.5565 -0.3521 -0.3654
   57SAPC  H14C 4156   3.483   3.097   7.126 -0.2995 -0.4378 -0.9006
   57SAPC   C15 4157   3.634   2.809   7.181  0.2903 -0.5019 -0.1201
   57SAPC  H15A 4158   3.716   2.755   7.136  0.7624 -0.9616  1.2393
   57SAPC  H15B 4159   3.629   2.814   7.288 -1.2612 -2.4350 -0.0387
   57SAPC  H15C 4160   3.552   2.742   7.159  0.3340  0.1916 -2.8238
   57SAPC   C11 4161   3.477   2.867   6.899  0.1946 -0.1469  0.1410
   57SAPC  H11A 4162   3.478   2.880   6.789 -0.6512 -0.0809  0.1310
   57SAPC  H11B 4163   3.385   2.924   6.924 -1.2984 -1.8950 -1.1361
   57SAPC     P 4164   3.531   2.614   6.864 -0.2349 -0.1635 -0.1213
   57SAPC   O13 4165   3.660   2.645   6.795 -0.1697  0.1059 -0.0339
   57SAPC   O14 4166   3.521   2.490   6.941 -0.3481 -0.8011  0.4638
   57SAPC   O12 4167   3.464   2.731   6.932 -0.1528 -0.2003 -0.1964
   57SAPC   O11 4168   3.425   2.590   6.753  0.0331  0.2963  0.2033
   57SAPC    C1 4169   3.434   2.493   6.652  0.6388 -0.2336 -0.5369
   57SAPC    HA 4170   3.515   2.422   6.678  0.2173  0.0756  1.9050
   57SAPC    HB 4171   3.342   2.431   6.654  1.6740 -1.8286 -0.5611
   57SAPC    C2 4172   3.455   2.552   6.514 -0.0959 -0.0475 -0.8644
   57SAPC    HS 4173   3.542   2.615   6.541  0.7571 -1.0197 -1.2605
   57SAPC   O21 4174   3.339   2.632   6.476 -0.3480  0.3006 -0.5899
   57SAPC   C21 4175   3.366   2.749   6.424 -0.5503 -0.8825 -0.6249
   57SAPC   O22 4176   3.479   2.798   6.418  0.2213  0.5884  0.5283
   57SAPC   C22 4177   3.236   2.827   6.407 -0.7477 -0.2408  0.4048
   57SAPC   H2R 4178   3.188   2.767   6.327 -2.7245  0.0239  1.3332
   57SAPC   H2S 4179   3.183   2.808   6.503 -0.8452 -2.2004  0.0101
   57SAPC    C3 4180   3.488   2.450   6.410 -0.6606  0.3656  0.6041
   57SAPC    HX 4181   3.403   2.379   6.414  0.8038 -1.8852 -3.0887
   57SAPC    HY 4182   3.583   2.394   6.422 -0.9909 -0.3728 -0.1800
   57SAPC   O31 4183   3.484   2.519   6.281 -0.1526  0.0524 -0.2745
   57SAPC   C31 4184   3.600   2.577   6.242 -0.2315 -0.0663 -0.2570
   57SAPC   O32 4185   3.699   2.587   6.314 -0.6710 -0.2106 -0.7703
   57SAPC   C32 4186   3.588   2.616   6.098  0.2353 -0.0642  0.3967
   57SAPC   H2X 4187   3.545   2.718   6.089 -1.5211 -0.6852  1.3153
   57SAPC   H2Y 4188   3.511   2.553   6.047  2.7489 -1.5539 -1.8223
   57SAPC   C23 4189   3.238   2.984   6.376 -0.7441  0.3923 -0.8981
   57SAPC   H3R 4190   3.337   3.028   6.403 -0.6061 -0.0756 -0.6336
   57SAPC   H3S 4191   3.174   3.036   6.451  2.2134  1.1718  1.3010
   57SAPC   C24 4192   3.199   3.028   6.235  0.1495 -0.2258 -0.0509
   57SAPC   H4R 4193   3.207   3.139   6.228 -1.7464 -0.1255 -1.4633
   57SAPC   H4S 4194   3.092   3.021   6.204  0.2194  3.5213 -1.7192
   57SAPC   C25 4195   3.279   2.965   6.124  0.3321 -0.0865  0.1797
   57SAPC   H5R 4196   3.386   2.986   6.141  0.0730  2.1196 -0.6354
   57SAPC   C26 4197   3.246   2.888   6.016  0.6769  0.7610  0.6491
   57SAPC   H6R 4198   3.330   2.844   5.960 -0.8198 -1.1317 -0.2321
   57SAPC   C27 4199   3.104   2.835   5.997 -0.1597 -0.1806  0.3189
   57SAPC   H7R 4200   3.070   2.838   5.891  0.8654 -1.0105 -0.0579
   57SAPC   H7S 4201   3.043   2.906   6.056  1.2362 -0.2100  1.8579
   57SAPC   C28 4202   3.091   2.698   6.061  1.1712  0.8510 -0.6258
   57SAPC   H8R 4203   3.163   2.667   6.139 -0.5321 -0.7598  0.3617
   57SAPC   C29 4204   2.990   2.611   6.044  0.6185 -0.0513  0.0102
   57SAPC   H9R 4205   3.000   2.511   6.088  1.8882  0.3957  0.7944
   57SAPC  C210 4206   2.875   2.626   5.946  0.2142  0.2330  0.0310
   57SAPC  H10R 4207   2.924   2.641   5.847  0.3602  1.3564  0.2533
   57SAPC  H10S 4208   2.833   2.728   5.960  0.4179 -0.0125  3.1008
   57SAPC  C211 4209   2.757   2.541   5.959  1.1857  0.1088  0.0884
   57SAPC  H11R 4210   2.742   2.525   6.066  0.1626  1.1585  0.1177
   57SAPC  C212 4211   2.659   2.514   5.871 -0.7278 -0.1536 -0.4993
   57SAPC  H12R 4212   2.581   2.445   5.905 -0.2197 -0.8088 -0.6390
   57SAPC  C213 4213   2.659   2.546   5.724  0.0058  0.1693  0.1822
   57SAPC  H13R 4214   2.638   2.445   5.683 -1.5028  1.5380 -2.6926
   57SAPC  H13S 4215   2.756   2.578   5.682 -0.6427  0.9624 -0.7276
   57SAPC  C214 4216   2.541   2.635   5.689 -0.7310 -0.2243 -0.0866
   57SAPC  H14R 4217   2.478   2.676   5.769 -1.4424 -2.0552  0.3462
   57SAPC  C215 4218   2.513   2.665   5.558  0.2593  0.3568 -0.0407
   57SAPC  H15R 4219   2.431   2.735   5.539 -0.3586  0.3772  2.3181
   57SAPC  C216 4220   2.580   2.612   5.435 -0.2392 -0.4796  0.2681
   57SAPC  H16R 4221   2.505   2.549   5.383  0.2945  1.2579 -2.8867
   57SAPC  H16S 4222   2.675   2.555   5.443  0.3098  0.5745  1.6943
   57SAPC  C217 4223   2.608   2.718   5.328 -0.2167  0.4204  0.3099
   57SAPC  H17R 4224   2.694   2.781   5.359 -0.3779  1.5603 -1.4218
   57SAPC  H17S 4225   2.516   2.777   5.312 -0.2371  0.7092  1.4327
   57SAPC  C218 4226   2.649   2.645   5.204  0.8585  0.1121 -0.4421
   57SAPC  H18R 4227   2.598   2.548   5.185  0.2299  0.3900 -0.2360
   57SAPC  H18S 4228   2.758   2.633   5.218  0.7476 -0.2025  0.2097
   57SAPC  C219 4229   2.627   2.729   5.072 -0.7387 -0.2587 -0.0943
   57SAPC  H19R 4230   2.684   2.824   5.083  1.5706 -1.6330  0.5281
   57SAPC  H19S 4231   2.521   2.754   5.049 -0.6034 -0.0184 -0.4591
   57SAPC  C220 4232   2.689   2.655   4.961 -0.0062  0.4409  0.6002
   57SAPC  H20R 4233   2.686   2.707   4.863 -0.1330  0.7497  0.7661
   57SAPC  H20S 4234   2.640   2.557   4.943 -1.1925  0.6676  2.3380
   57SAPC  H20T 4235   2.795   2.644   4.992 -0.7143 -0.1816  3.0454
   57SAPC   C33 4236   3.713   2.612   6.012 -0.6247 -0.2979 -0.5018
   57SAPC   H3X 4237   3.779   2.530   6.047 -0.1469 -0.5855 -2.0026
   57SAPC   H3Y 4238   3.776   2.703   6.027 -0.1734 -0.8864  1.4609
   57SAPC   C34 4239   3.693   2.607   5.861  0.3832 -0.0467 -0.3359
   57SAPC   H4X 4240   3.666   2.707   5.819 -2.0307 -0.3498  0.3218
   57SAPC   H4Y 4241   3.602   2.544   5.849 -0.4303 -0.1221  4.3072
   57SAPC   C35 4242   3.798   2.536   5.773 -0.2249 -0.1598 -0.2009
   57SAPC   H5X 4243   3.840   2.452   5.833 -2.0701  0.7780  2.5678
   57SAPC   H5Y 4244   3.876   2.613   5.758 -0.9691  0.4002 -1.3829
   57SAPC   C36 4245   3.754   2.483   5.643 -0.9203 -0.8494  0.2884
   57SAPC   H6X 4246   3.688   2.396   5.658  1.0702 -2.3223  0.8963
   57SAPC   H6Y 4247   3.834   2.451   5.572 -1.9002 -0.6717 -0.9355
   57SAPC   C37 4248   3.691   2.588   5.555 -0.0215  0.2061  0.2232
   57SAPC   H7X 4249   3.752   2.679   5.541  0.1736 -0.1552 -1.4718
   57SAPC   H7Y 4250   3.609   2.625   5.620  0.1304 -0.3149  0.7216
   57SAPC   C38 4251   3.637   2.547   5.414  0.9876  0.7320 -0.2887
   57SAPC   H8X 4252   3.716   2.536   5.337 -0.1210 -2.6294 -1.1416
   57SAPC   H8Y 4253   3.573   2.632   5.381 -0.4311  0.6720  2.0673
   57SAPC   C39 4254   3.549   2.421   5.422 -0.2466  0.3918 -0.5362
   57SAPC   H9X 4255   3.491   2.422   5.517  0.3590  0.6261 -0.1590
   57SAPC   H9Y 4256   3.617   2.336   5.442 -1.4542 -0.4066  0.2807
   57SAPC  C310 4257   3.462   2.392   5.306 -0.0335  0.7691  0.7545
   57SAPC  H10X 4258   3.387   2.473   5.289  2.0082  3.2852  2.8250
   57SAPC  H10Y 4259   3.398   2.303   5.321  3.1423 -1.5702  1.3114
   57SAPC  C311 4260   3.545   2.374   5.173  0.4822  0.1763 -0.2352
   57SAPC  H11X 4261   3.619   2.291   5.168 -0.6391 -0.8924  0.4344
   57SAPC  H11Y 4262   3.588   2.476   5.162  0.1079  0.5085  1.1572
   57SAPC  C312 4263   3.454   2.358   5.048  0.2655 -0.2272  0.2249
   57SAPC  H12X 4264   3.386   2.446   5.042  1.6924  1.0078  1.3397
   57SAPC  H12Y 4265   3.392   2.266   5.048  0.2107 -0.1965  0.8136
   57SAPC  C313 4266   3.534   2.371   4.920 -0.6675  0.0359 -0.3563
   57SAPC  H13X 4267   3.611   2.292   4.913 -1.2136 -0.7685  1.9568
   57SAPC  H13Y 4268   3.590   2.467   4.921  2.2301 -1.5394 -0.4993
   57SAPC  C314 4269   3.444   2.370   4.797  0.2072 -0.2013  0.2421
   57SAPC  H14X 4270   3.493   2.432   4.719  1.2972 -0.6948  0.5122
   57SAPC  H14Y 4271   3.345   2.418   4.809  0.8689  1.4455 -0.5664
   57SAPC  C315 4272   3.407   2.235   4.737 -0.3793  0.0162  0.4133
   57SAPC  H15X 4273   3.335   2.254   4.654 -0.5253 -2.7157 -0.1879
   57SAPC  H15Y 4274   3.352   2.186   4.820 -0.5866  0.9648  0.8428
   57SAPC  C316 4275   3.511   2.133   4.677  0.1835  0.3902 -1.1085
   57SAPC  H16X 4276   3.441   2.060   4.632  0.2634  1.2622 -2.7194
   57SAPC  H16Y 4277   3.563   2.093   4.767 -0.5028 -0.5755 -1.1263
   57SAPC  C317 4278   3.599   2.205   4.572 -0.4830  0.5326  0.8821
   57SAPC  H17X 4279   3.629   2.291   4.635  2.4927  1.4270 -1.4886
   57SAPC  H17Y 4280   3.540   2.251   4.490 -0.1095  1.3006  1.0398
   57SAPC  C318 4281   3.719   2.127   4.520  0.2844  0.5109  0.2811
   57SAPC  H18X 4282   3.763   2.060   4.596  3.6307  1.2653 -0.8186
   57SAPC  H18Y 4283   3.802   2.180   4.468  3.0364 -1.5188  2.3341
   57SAPC  H18Z 4284   3.682   2.053   4.446  0.1777 -1.4391  2.2057
   58SAPC     N 4285   6.652   0.948   7.330  0.3907 -0.3531  0.6936
   58SAPC   C12 4286   6.636   0.983   7.176  0.0951  0.4075 -0.1371
   58SAPC  H12A 4287   6.598   1.082   7.154 -0.1038 -0.3574 -3.8294
   58SAPC  H12B 4288   6.575   0.909   7.125  2.1554 -0.7756 -0.9842
   58SAPC   C13 4289   6.517   0.902   7.380  0.0130 -0.7247 -0.7366
   58SAPC  H13A 4290   6.521   0.875   7.484 -3.0644 -0.8322 -0.5612
   58SAPC  H13B 4291   6.452   0.988   7.369  1.3692  0.4643  0.1429
   58SAPC  H13C 4292   6.476   0.824   7.317 -0.8781  2.0217 -3.8824
   58SAPC   C14 4293   6.749   0.839   7.360  0.5760  0.2624 -0.4698
   58SAPC  H14A 4294   6.730   0.752   7.298 -0.8662  0.8422 -0.8909
   58SAPC  H14B 4295   6.852   0.863   7.338  0.3668 -0.6952 -2.8270
   58SAPC  H14C 4296   6.743   0.800   7.460 -0.9363  1.7036  0.0430
   58SAPC   C15 4297   6.698   1.065   7.410  0.0542 -0.3021 -0.6088
   58SAPC  H15A 4298   6.636   1.147   7.375  0.9580 -0.2946 -2.2955
   58SAPC  H15B 4299   6.686   1.054   7.516  1.5194 -0.6732 -0.4589
   58SAPC  H15C 4300   6.803   1.082   7.391 -0.0430  0.9245 -0.1299
   58SAPC   C11 4301   6.776   0.973   7.104  0.2613  0.5715 -0.4771
   58SAPC  H11A 4302   6.853   1.001   7.179 -1.0774 -0.5423  1.3936
   58SAPC  H11B 4303   6.781   1.053   7.026  0.4451 -0.6895 -1.7956
   58SAPC     P 4304   6.715   0.784   6.928 -0.3860 -0.0627  0.1199
   58SAPC   O13 4305   6.791   0.675   6.869  0.4700 -0.4201  0.2197
   58SAPC   O14 4306   6.574   0.760   6.970 -0.3528  0.0075 -0.0747
   58SAPC   O12 4307   6.794   0.843   7.054  0.5334  0.3865  0.2965
   58SAPC   O11 4308   6.709   0.900   6.817 -0.2187  0.4154  0.1465
   58SAPC    C1 4309   6.824   0.956   6.761 -0.0976  0.1353  0.2490
   58SAPC    HA 4310   6.903   0.978   6.836 -0.8794  0.7538  0.9057
   58SAPC    HB 4311   6.879   0.884   6.696  0.7357 -0.2629  1.3587
   58SAPC    C2 4312   6.799   1.075   6.662  0.2098 -0.1970 -0.6326
   58SAPC    HS 4313   6.739   1.144   6.725 -0.0992  0.0032 -1.1429
   58SAPC   O21 4314   6.727   1.035   6.544  0.0559 -0.7607  0.0274
   58SAPC   C21 4315   6.658   1.133   6.490  0.7446  0.5191  0.0554
   58SAPC   O22 4316   6.643   1.246   6.536 -0.4751 -0.3328 -0.2704
   58SAPC   C22 4317   6.596   1.085   6.359 -0.0653 -0.1899  0.2445
   58SAPC   H2R 4318   6.683   1.084   6.289  0.4449  2.7878  0.6830
   58SAPC   H2S 4319   6.565   0.981   6.379  0.9780 -1.0028 -2.0077
   58SAPC    C3 4320   6.938   1.133   6.618  0.0235 -0.5075  0.1689
   58SAPC    HX 4321   6.988   1.172   6.709 -1.6196 -0.2246  0.9720
   58SAPC    HY 4322   6.912   1.216   6.548 -1.6934 -0.7001  0.5386
   58SAPC   O31 4323   7.019   1.027   6.564 -0.6241  0.4585  0.3948
   58SAPC   C31 4324   7.031   1.033   6.430 -0.1955  0.4312 -0.4499
   58SAPC   O32 4325   6.980   1.117   6.361 -0.5995 -0.7983 -0.1185
   58SAPC   C32 4326   7.104   0.916   6.380  0.2401  0.7723  0.0587
   58SAPC   H2X 4327   7.058   0.829   6.432 -0.8706  1.3608  0.0872
   58SAPC   H2Y 4328   7.208   0.912   6.420  0.1002  0.1565  0.3623
   58SAPC   C23 4329   6.480   1.167   6.307  0.1397 -0.3362 -0.2371
   58SAPC   H3R 4330   6.514   1.259   6.256 -1.4735 -0.1694 -1.0758
   58SAPC   H3S 4331   6.421   1.204   6.394  0.9819  1.1286 -0.2578
   58SAPC   C24 4332   6.382   1.095   6.200 -0.2264  0.2782 -0.0187
   58SAPC   H4R 4333   6.453   1.042   6.134 -0.3451 -0.1529  0.1942
   58SAPC   H4S 4334   6.330   1.173   6.142  1.6030  1.2992 -0.3290
   58SAPC   C25 4335   6.279   0.993   6.245 -1.0746  0.1079  0.9705
   58SAPC   H5R 4336   6.297   0.945   6.343 -1.0967 -2.6649 -0.2755
   58SAPC   C26 4337   6.167   0.948   6.189  0.3690 -0.7518  0.8723
   58SAPC   H6R 4338   6.107   0.865   6.229 -0.0582 -2.0458 -2.1869
   58SAPC   C27 4339   6.113   0.995   6.055  0.0367 -0.0039 -0.3100
   58SAPC   H7R 4340   6.105   0.903   5.993 -2.1549 -0.8065  1.0644
   58SAPC   H7S 4341   6.167   1.072   5.996 -0.2560 -0.6604 -1.4588
   58SAPC   C28 4342   5.974   1.043   6.082  0.2748 -1.0252  0.4472
   58SAPC   H8R 4343   5.955   1.094   6.177  1.4665  1.8772 -0.7523
   58SAPC   C29 4344   5.880   1.057   5.983 -0.3981  0.3887  0.1587
   58SAPC   H9R 4345   5.779   1.087   6.015  0.5040  1.3827  2.2699
   58SAPC  C210 4346   5.895   1.010   5.841 -0.0369  0.5604 -0.9313
   58SAPC  H10R 4347   5.852   0.908   5.833  1.3842 -0.0967 -0.4700
   58SAPC  H10S 4348   6.005   1.009   5.822  0.5181  1.2240  1.8312
   58SAPC  C211 4349   5.825   1.094   5.744  0.4645 -0.1619  0.3749
   58SAPC  H11R 4350   5.773   1.185   5.777  1.0226  0.1703  0.3483
   58SAPC  C212 4351   5.811   1.054   5.617  0.2177 -0.2116 -0.3259
   58SAPC  H12R 4352   5.741   1.110   5.553  0.3228 -0.9138 -1.0689
   58SAPC  C213 4353   5.876   0.931   5.563  0.3797 -0.2424  0.0755
   58SAPC  H13R 4354   5.797   0.877   5.506  0.6248 -1.8854  1.1937
   58SAPC  H13S 4355   5.917   0.857   5.636  1.0393 -0.3962 -0.4416
   58SAPC  C214 4356   5.995   0.959   5.476 -0.3995  0.0618  0.1774
   58SAPC  H14R 4357   6.068   1.032   5.514  2.1775 -1.5627 -1.3650
   58SAPC  C215 4358   6.017   0.901   5.361  0.4346  0.2615  0.3969
   58SAPC  H15R 4359   6.116   0.919   5.316  0.3591  0.6943  0.4018
   58SAPC  C216 4360   5.940   0.795   5.290 -0.4697 -0.2467 -0.2378
   58SAPC  H16R 4361   5.838   0.838   5.283 -1.1655 -1.6772  0.6551
   58SAPC  H16S 4362   5.917   0.699   5.342 -0.3994 -0.1095  0.0523
   58SAPC  C217 4363   6.003   0.774   5.158  0.3170 -0.5645  0.4082
   58SAPC  H17R 4364   5.959   0.680   5.118  1.5630 -1.3016  0.7082
   58SAPC  H17S 4365   6.110   0.747   5.173  0.6480  0.7914  0.5775
   58SAPC  C218 4366   6.012   0.888   5.052  0.4278 -0.0065  0.2209
   58SAPC  H18R 4367   6.080   0.966   5.091  2.1720 -0.0630 -2.4800
   58SAPC  H18S 4368   5.911   0.934   5.052 -0.2048 -1.3273  1.0814
   58SAPC  C219 4369   6.052   0.856   4.911 -0.0469  0.2092  0.4433
   58SAPC  H19R 4370   5.990   0.771   4.874  0.5946  0.6278 -1.7162
   58SAPC  H19S 4371   6.157   0.820   4.906 -1.0953 -3.2614  0.8884
   58SAPC  C220 4372   6.038   0.980   4.821  0.3821 -0.1824  0.5404
   58SAPC  H20R 4373   6.002   0.962   4.718 -1.7316 -0.0264  1.2057
   58SAPC  H20S 4374   6.126   1.047   4.806  0.3316 -0.6377 -2.1398
   58SAPC  H20T 4375   5.955   1.040   4.863 -0.6566 -0.9414 -0.3945
   58SAPC   C33 4376   7.084   0.893   6.226 -0.5914  0.2186 -0.7441
   58SAPC   H3X 4377   7.143   0.963   6.163 -2.1226  1.0319 -1.3341
   58SAPC   H3Y 4378   6.979   0.908   6.194 -1.2501  0.4758  1.4055
   58SAPC   C34 4379   7.140   0.757   6.189 -0.5185 -0.2834 -0.6146
   58SAPC   H4X 4380   7.059   0.683   6.209 -2.1539  1.5775  0.0169
   58SAPC   H4Y 4381   7.231   0.736   6.249 -0.8770 -1.3064 -0.4066
   58SAPC   C35 4382   7.173   0.754   6.039  0.1772  0.0637 -0.2104
   58SAPC   H5X 4383   7.265   0.813   6.017  1.3562 -2.2187 -1.8713
   58SAPC   H5Y 4384   7.093   0.807   5.984  1.0588  1.3035 -0.3432
   58SAPC   C36 4385   7.216   0.616   5.977 -0.3487  0.5577  0.0285
   58SAPC   H6X 4386   7.131   0.545   5.987  0.9173 -1.0607 -0.3276
   58SAPC   H6Y 4387   7.291   0.568   6.044 -0.6708  1.4876  1.0946
   58SAPC   C37 4388   7.264   0.626   5.829  0.3556 -0.2909  0.6236
   58SAPC   H7X 4389   7.303   0.525   5.807  1.2818  0.1765  0.0371
   58SAPC   H7Y 4390   7.349   0.698   5.832  0.2485 -0.1555  3.4401
   58SAPC   C38 4391   7.154   0.660   5.729  1.0220  0.4609 -0.2908
   58SAPC   H8X 4392   7.098   0.754   5.749  1.2762  0.5339  0.0712
   58SAPC   H8Y 4393   7.075   0.582   5.717  0.1553  1.0553  1.2850
   58SAPC   C39 4394   7.220   0.662   5.585  0.3035 -0.1994  0.2573
   58SAPC   H9X 4395   7.259   0.562   5.556 -2.4323 -0.8929 -1.4297
   58SAPC   H9Y 4396   7.296   0.742   5.580 -0.7266  0.7207 -1.2173
   58SAPC  C310 4397   7.113   0.696   5.473  0.4440 -0.1279 -0.1725
   58SAPC  H10X 4398   7.047   0.776   5.513 -0.3792 -0.8557 -0.0281
   58SAPC  H10Y 4399   7.042   0.611   5.472  0.8317 -0.4544 -1.2689
   58SAPC  C311 4400   7.163   0.713   5.332  0.0037  0.1486 -0.1194
   58SAPC  H11X 4401   7.198   0.621   5.280 -0.9827  0.0629 -0.6585
   58SAPC  H11Y 4402   7.254   0.775   5.345  1.1251 -1.3887 -0.3788
   58SAPC  C312 4403   7.064   0.771   5.230 -0.7636  0.2708 -0.0270
   58SAPC  H12X 4404   7.024   0.863   5.278  1.3698  0.6891  1.1027
   58SAPC  H12Y 4405   6.977   0.704   5.216 -0.4011 -0.5065  1.2263
   58SAPC  C313 4406   7.129   0.811   5.099 -0.6292  0.1322  0.0901
   58SAPC  H13X 4407   7.188   0.724   5.065 -3.5504 -1.4162 -1.4002
   58SAPC  H13Y 4408   7.203   0.891   5.119 -0.4077  0.1142 -0.6477
   58SAPC  C314 4409   7.033   0.850   4.991 -0.5209  0.1873 -0.4233
   58SAPC  H14X 4410   6.981   0.936   5.040 -1.2482  1.4142 -3.1510
   58SAPC  H14Y 4411   6.957   0.771   4.971 -1.3223  1.2201 -1.6214
   58SAPC  C315 4412   7.093   0.901   4.868 -0.7986  0.0135 -0.6624
   58SAPC  H15X 4413   7.188   0.953   4.891 -0.4150 -1.3407  1.0223
   58SAPC  H15Y 4414   7.008   0.949   4.815 -3.7323 -1.5629  2.2246
   58SAPC  C316 4415   7.130   0.778   4.776 -0.6998 -0.7751  0.3658
   58SAPC  H16X 4416   7.192   0.704   4.830 -0.5367 -0.4249  0.6690
   58SAPC  H16Y 4417   7.201   0.816   4.699  0.6175 -0.4086  1.7000
   58SAPC  C317 4418   7.018   0.706   4.707 -0.2969 -0.2327  0.2647
   58SAPC  H17X 4419   6.952   0.782   4.661  1.7300  0.3291 -1.9003
   58SAPC  H17Y 4420   6.958   0.652   4.784 -0.0893 -1.7100 -0.5726
   58SAPC  C318 4421   7.081   0.602   4.608 -0.5801 -1.1686 -0.0574
   58SAPC  H18X 4422   7.130   0.513   4.653  2.2021 -0.0964 -0.7985
   58SAPC  H18Y 4423   7.158   0.658   4.550 -0.4870 -1.1920  0.0436
   58SAPC  H18Z 4424   7.005   0.580   4.530 -1.8114 -1.1125  1.0846
   59SAPC     N 4425   5.951   4.042   6.605  0.4572  0.7512 -0.0167
   59SAPC   C12 4426   5.914   3.899   6.602 -0.2022  0.1304  0.1412
   59SAPC  H12A 4427   5.971   3.853   6.681  0.2812  1.8556  0.8556
   59SAPC  H12B 4428   5.940   3.864   6.504 -0.5005  1.3627 -0.4027
   59SAPC   C13 4429   6.098   4.064   6.589  0.1779 -0.1353  0.3296
   59SAPC  H13A 4430   6.163   4.021   6.664  0.5373  2.5562  1.6944
   59SAPC  H13B 4431   6.122   4.022   6.493 -2.3241 -0.2512 -0.3201
   59SAPC  H13C 4432   6.122   4.168   6.599  0.2780 -0.3142  2.3611
   59SAPC   C14 4433   5.897   4.118   6.496 -0.4786  0.6074  0.4162
   59SAPC  H14A 4434   5.915   4.082   6.396 -1.6315 -0.9672  0.7188
   59SAPC  H14B 4435   5.789   4.123   6.506 -0.4079  3.0190  0.5773
   59SAPC  H14C 4436   5.917   4.224   6.502  0.9909  0.3245  0.8914
   59SAPC   C15 4437   5.913   4.105   6.738  0.1903 -0.1073 -0.0961
   59SAPC  H15A 4438   5.806   4.108   6.749  0.4177 -0.2779  3.1641
   59SAPC  H15B 4439   5.952   4.050   6.823  0.0375  0.5833  0.4239
   59SAPC  H15C 4440   5.939   4.209   6.749 -0.5672 -0.0791  1.6991
   59SAPC   C11 4441   5.768   3.871   6.620 -0.1906  0.1374 -0.6312
   59SAPC  H11A 4442   5.710   3.948   6.566  0.9622  1.0677 -0.5894
   59SAPC  H11B 4443   5.747   3.869   6.729  1.7087  0.1092 -0.2206
   59SAPC     P 4444   5.737   3.698   6.420 -0.1410 -0.2644 -0.2259
   59SAPC   O13 4445   5.878   3.669   6.390  0.2837 -0.2786 -0.9073
   59SAPC   O14 4446   5.630   3.592   6.404  0.7382  0.1078  0.2029
   59SAPC   O12 4447   5.738   3.743   6.570 -0.3539  0.1120 -0.3872
   59SAPC   O11 4448   5.685   3.826   6.337  0.0136 -0.4044 -0.2355
   59SAPC    C1 4449   5.738   3.845   6.212  0.1840  0.1415  0.4458
   59SAPC    HA 4450   5.702   3.944   6.177 -0.7213  0.1345  1.2824
   59SAPC    HB 4451   5.849   3.843   6.216  0.3593  0.1796 -2.3868
   59SAPC    C2 4452   5.679   3.734   6.117 -0.4238  0.2693  0.2919
   59SAPC    HS 4453   5.719   3.635   6.145 -1.2323 -1.0908 -2.8840
   59SAPC   O21 4454   5.720   3.770   5.976 -0.0030  0.6076  0.1757
   59SAPC   C21 4455   5.850   3.749   5.955  0.3642 -0.1071 -0.1056
   59SAPC   O22 4456   5.930   3.698   6.037 -0.1020 -0.3054  0.3564
   59SAPC   C22 4457   5.880   3.789   5.816  0.0063  0.6214  0.1529
   59SAPC   H2R 4458   5.841   3.719   5.739  2.8073  0.4747 -1.2704
   59SAPC   H2S 4459   5.818   3.877   5.789 -1.8917 -0.9902 -1.0863
   59SAPC    C3 4460   5.525   3.724   6.126 -0.0180  0.2469  0.4882
   59SAPC    HX 4461   5.482   3.683   6.220  0.5196  1.5945  1.3573
   59SAPC    HY 4462   5.503   3.648   6.047  0.0485 -0.0309  0.7374
   59SAPC   O31 4463   5.458   3.849   6.105 -0.3215 -0.4013  0.0811
   59SAPC   C31 4464   5.355   3.854   6.028  0.1636 -0.5836  0.2923
   59SAPC   O32 4465   5.303   3.764   5.966  0.0846  0.7297  0.1977
   59SAPC   C32 4466   5.314   4.003   6.027 -0.2530  0.0132 -0.5695
   59SAPC   H2X 4467   5.291   4.032   6.132  2.8927 -0.0812  0.2546
   59SAPC   H2Y 4468   5.220   4.027   5.974 -2.0605 -2.0125  1.4972
   59SAPC   C23 4469   6.032   3.814   5.785 -0.4287 -0.6922 -0.2289
   59SAPC   H3R 4470   6.042   3.807   5.675 -2.6948 -0.6119 -0.5054
   59SAPC   H3S 4471   6.087   3.724   5.818 -0.7145 -1.0673 -0.7491
   59SAPC   C24 4472   6.079   3.954   5.847 -0.4513 -0.2498  0.4539
   59SAPC   H4R 4473   6.086   3.929   5.955 -0.4360  1.9744  1.0256
   59SAPC   H4S 4474   5.995   4.025   5.829  0.6033  0.6110 -1.4206
   59SAPC   C25 4475   6.209   4.000   5.792  0.3271  0.4267 -0.4908
   59SAPC   H5R 4476   6.296   3.981   5.857  0.1296  3.4829  0.8473
   59SAPC   C26 4477   6.237   4.027   5.663  0.2515 -0.4113 -0.5666
   59SAPC   H6R 4478   6.341   4.050   5.633  0.9516 -0.3644  1.7176
   59SAPC   C27 4479   6.140   4.058   5.554 -0.3829  0.0655  0.2304
   59SAPC   H7R 4480   6.043   4.017   5.588 -0.0762  0.3439  1.5102
   59SAPC   H7S 4481   6.164   3.988   5.471  0.5055 -0.6880  1.0968
   59SAPC   C28 4482   6.121   4.197   5.506 -0.1262 -0.1236  0.5049
   59SAPC   H8R 4483   6.059   4.248   5.581  0.5545 -1.6079  2.1487
   59SAPC   C29 4484   6.147   4.254   5.386  0.8374 -0.0260  0.7487
   59SAPC   H9R 4485   6.139   4.363   5.378  2.3089 -0.0205 -1.5245
   59SAPC  C210 4486   6.193   4.177   5.267  0.4317  0.6670 -0.3211
   59SAPC  H10R 4487   6.137   4.080   5.269 -1.8384  1.9174  0.0048
   59SAPC  H10S 4488   6.303   4.164   5.279  0.7128  1.7477 -1.5414
   59SAPC  C211 4489   6.168   4.252   5.142  0.2178  0.6772  0.3119
   59SAPC  H11R 4490   6.180   4.361   5.155 -0.0505  0.7304  0.1116
   59SAPC  C212 4491   6.111   4.200   5.029 -0.2424  1.1710  0.1032
   59SAPC  H12R 4492   6.093   4.256   4.936  0.7728  1.7984  0.2635
   59SAPC  C213 4493   6.084   4.053   5.002 -0.0960  0.0949  0.9152
   59SAPC  H13R 4494   5.996   4.018   5.061 -0.3378  0.1886  0.6121
   59SAPC  H13S 4495   6.176   3.999   5.031  0.2508  0.9428  1.4149
   59SAPC  C214 4496   6.060   4.024   4.855 -0.1752  0.6195  0.7180
   59SAPC  H14R 4497   5.983   4.080   4.800  2.8469  3.9000 -0.5504
   59SAPC  C215 4498   6.132   3.935   4.782  0.1682 -0.3205  0.5603
   59SAPC  H15R 4499   6.099   3.932   4.677 -0.8856  1.4249  0.7908
   59SAPC  C216 4500   6.240   3.839   4.824 -0.1502  0.0653  0.5029
   59SAPC  H16R 4501   6.256   3.768   4.740  1.5276  0.3111  0.5856
   59SAPC  H16S 4502   6.216   3.773   4.910  0.6352 -0.2591  0.4878
   59SAPC  C217 4503   6.382   3.900   4.845  0.0290 -0.4704 -0.0145
   59SAPC  H17R 4504   6.366   3.962   4.935 -1.1441 -0.3406 -0.2932
   59SAPC  H17S 4505   6.415   3.947   4.750 -1.1947 -1.1827 -0.8177
   59SAPC  C218 4506   6.485   3.791   4.880 -0.0966 -0.3842  0.3736
   59SAPC  H18R 4507   6.478   3.712   4.802 -0.7151  0.8326 -0.8267
   59SAPC  H18S 4508   6.480   3.750   4.983 -2.1284  2.6525  1.5948
   59SAPC  C219 4509   6.629   3.847   4.853  0.2108 -0.1670 -0.2594
   59SAPC  H19R 4510   6.647   3.869   4.746  0.1130 -0.0818 -0.2582
   59SAPC  H19S 4511   6.706   3.773   4.884 -1.7937 -1.7562  1.2256
   59SAPC  C220 4512   6.658   3.981   4.924 -0.0505 -0.2723 -0.1692
   59SAPC  H20R 4513   6.676   3.958   5.031  0.6215  0.8683 -0.0200
   59SAPC  H20S 4514   6.574   4.050   4.904 -1.3554 -2.4091 -2.5941
   59SAPC  H20T 4515   6.756   4.023   4.892 -0.1279 -0.2195 -0.3395
   59SAPC   C33 4516   5.434   4.103   5.994  0.7621 -0.0647 -0.2523
   59SAPC   H3X 4517   5.519   4.084   6.063  1.1608  1.2327 -0.3435
   59SAPC   H3Y 4518   5.390   4.202   6.018 -1.9363 -1.5897  1.6017
   59SAPC   C34 4519   5.473   4.095   5.843 -1.0821 -0.3267 -0.5459
   59SAPC   H4X 4520   5.382   4.130   5.789  0.1844 -0.1766 -2.7209
   59SAPC   H4Y 4521   5.495   3.987   5.831 -0.4500 -0.0086 -2.8423
   59SAPC   C35 4522   5.588   4.192   5.814 -0.0326 -0.2706 -0.1111
   59SAPC   H5X 4523   5.671   4.155   5.877 -0.3521 -2.6233 -0.9360
   59SAPC   H5Y 4524   5.567   4.292   5.856 -2.5744 -0.4677 -0.7467
   59SAPC   C36 4525   5.620   4.208   5.660 -0.0269 -0.0048  0.0847
   59SAPC   H6X 4526   5.714   4.265   5.647 -0.8745  1.4423  0.1834
   59SAPC   H6Y 4527   5.543   4.262   5.602  0.1204  0.9290  0.7317
   59SAPC   C37 4528   5.634   4.066   5.599  0.0613 -0.1195  0.1548
   59SAPC   H7X 4529   5.542   4.012   5.630  1.5806 -1.4717  2.6462
   59SAPC   H7Y 4530   5.724   4.015   5.640  0.0610  1.6473  2.6081
   59SAPC   C38 4531   5.637   4.065   5.451 -0.7555 -0.7531  0.0216
   59SAPC   H8X 4532   5.542   4.107   5.412 -0.7259 -0.2032  0.5336
   59SAPC   H8Y 4533   5.658   3.962   5.414  0.7525 -0.3765 -0.2366
   59SAPC   C39 4534   5.757   4.148   5.397  0.7943  0.2755  0.6259
   59SAPC   H9X 4535   5.852   4.115   5.443  0.2190 -0.9258  0.9905
   59SAPC   H9Y 4536   5.738   4.253   5.430 -0.9189  0.0093  0.5869
   59SAPC  C310 4537   5.770   4.127   5.245  0.0158 -0.3748  0.0829
   59SAPC  H10X 4538   5.773   4.017   5.231 -4.4404 -0.9476  1.8247
   59SAPC  H10Y 4539   5.863   4.170   5.202  0.5150  0.1323  1.6133
   59SAPC  C311 4540   5.664   4.181   5.151  0.1585 -0.7076  0.3930
   59SAPC  H11X 4541   5.664   4.292   5.149 -0.4628 -0.7024  0.3504
   59SAPC  H11Y 4542   5.569   4.151   5.202  0.6602 -0.8117  1.2921
   59SAPC  C312 4543   5.674   4.141   5.002 -0.1288  0.0751 -0.1920
   59SAPC  H12X 4544   5.685   4.031   4.985 -0.6620  0.1811 -1.2783
   59SAPC  H12Y 4545   5.764   4.191   4.961 -0.6732  1.8782  0.7117
   59SAPC  C313 4546   5.560   4.208   4.924 -0.2726  0.3841  0.0217
   59SAPC  H13X 4547   5.563   4.319   4.927  1.7118  0.3525  1.6469
   59SAPC  H13Y 4548   5.472   4.184   4.987  0.9301  1.7840  2.3647
   59SAPC  C314 4549   5.556   4.171   4.773  1.0924  0.3986 -0.8061
   59SAPC  H14X 4550   5.568   4.062   4.762  0.6866  0.5230 -3.0764
   59SAPC  H14Y 4551   5.642   4.215   4.718  2.0447  1.5191  1.4444
   59SAPC  C315 4552   5.422   4.224   4.715  0.2142 -0.7549  0.5411
   59SAPC  H15X 4553   5.407   4.331   4.741  0.7649 -0.6354  0.3827
   59SAPC  H15Y 4554   5.335   4.178   4.765  0.3937  0.3161  1.9046
   59SAPC  C316 4555   5.419   4.186   4.569 -0.9675  0.1374 -0.0090
   59SAPC  H16X 4556   5.460   4.084   4.552 -1.0172 -0.1281  1.3596
   59SAPC  H16Y 4557   5.490   4.260   4.527  1.5057 -0.7028  2.3986
   59SAPC  C317 4558   5.279   4.208   4.497  0.1645 -0.3013  0.2820
   59SAPC  H17X 4559   5.250   4.315   4.491 -1.8650 -0.6782  2.0685
   59SAPC  H17Y 4560   5.200   4.160   4.558 -1.3937  0.0415 -1.3950
   59SAPC  C318 4561   5.251   4.139   4.364  0.2905  0.5445  0.4687
   59SAPC  H18X 4562   5.311   4.183   4.281  0.0788  1.2706  0.7003
   59SAPC  H18Y 4563   5.142   4.145   4.346  0.6270  0.3433 -2.0353
   59SAPC  H18Z 4564   5.269   4.029   4.363  1.1428  0.6132 -2.5667
   60SAPC     N 4565   6.553   6.549   6.591  0.1517  0.3801 -0.0939
   60SAPC   C12 4566   6.424   6.531   6.509  0.2650 -0.2477 -0.1766
   60SAPC  H12A 4567   6.376   6.441   6.544 -2.4358  1.1364 -0.0444
   60SAPC  H12B 4568   6.451   6.513   6.406 -0.3306  2.1682 -0.8399
   60SAPC   C13 4569   6.644   6.652   6.527 -0.2927  0.2445 -0.2610
   60SAPC  H13A 4570   6.724   6.689   6.590 -0.1013  0.4211 -0.6045
   60SAPC  H13B 4571   6.694   6.614   6.438  0.0241  1.9773 -0.8663
   60SAPC  H13C 4572   6.581   6.727   6.481  2.8912  3.1157 -0.3872
   60SAPC   C14 4573   6.524   6.578   6.727  0.1552 -0.2181 -0.1298
   60SAPC  H14A 4574   6.608   6.595   6.793  0.0536 -0.8883  0.1880
   60SAPC  H14B 4575   6.445   6.652   6.725  0.7491  0.3986 -1.4575
   60SAPC  H14C 4576   6.489   6.484   6.766  1.1727 -1.1492 -1.3734
   60SAPC   C15 4577   6.636   6.421   6.592 -0.0603  0.3282 -0.2194
   60SAPC  H15A 4578   6.583   6.336   6.633 -0.1552  0.1061 -0.7981
   60SAPC  H15B 4579   6.689   6.393   6.502  0.7926 -0.1170  0.4040
   60SAPC  H15C 4580   6.719   6.436   6.659 -0.7280 -1.0694  0.9780
   60SAPC   C11 4581   6.321   6.648   6.513 -0.4107 -0.2414 -0.4602
   60SAPC  H11A 4582   6.301   6.671   6.620  1.6130 -1.3075  0.1983
   60SAPC  H11B 4583   6.226   6.619   6.462  0.7043  0.6830 -3.2052
   60SAPC     P 4584   6.307   6.876   6.384  0.0805 -0.4404  0.3484
   60SAPC   O13 4585   6.160   6.870   6.417 -0.5621 -0.3564 -0.3804
   60SAPC   O14 4586   6.368   7.005   6.425  0.2746  0.3963 -0.4243
   60SAPC   O12 4587   6.387   6.763   6.455 -0.0994  0.1049 -0.1487
   60SAPC   O11 4588   6.320   6.845   6.225  0.0414 -0.0724 -1.1333
   60SAPC    C1 4589   6.448   6.820   6.174 -0.9592  0.5840  0.0401
   60SAPC    HA 4590   6.517   6.903   6.199  1.4240 -1.4164  0.5813
   60SAPC    HB 4591   6.491   6.720   6.198 -0.5826  0.2299 -1.9317
   60SAPC    C2 4592   6.468   6.850   6.021  0.0514  0.3998 -0.2731
   60SAPC    HS 4593   6.403   6.774   5.973 -0.1983  0.3102  0.2067
   60SAPC   O21 4594   6.606   6.840   5.979 -0.0878  0.4602  0.7358
   60SAPC   C21 4595   6.659   6.725   5.965  0.1922 -0.1537 -0.7160
   60SAPC   O22 4596   6.604   6.616   5.990  0.7191 -0.6197 -0.2155
   60SAPC   C22 4597   6.807   6.742   5.937 -0.1809 -0.0231 -0.7588
   60SAPC   H2R 4598   6.853   6.827   5.991 -4.0994  1.1198  1.1394
   60SAPC   H2S 4599   6.870   6.655   5.966  2.4289  1.5899 -1.2027
   60SAPC    C3 4600   6.409   6.992   5.980 -0.0418 -0.6803  0.4572
   60SAPC    HX 4601   6.467   7.068   6.036  0.1818  0.0901 -0.7862
   60SAPC    HY 4602   6.312   6.993   6.035  0.6042 -0.0144  1.6212
   60SAPC   O31 4603   6.381   6.995   5.841  0.3673 -0.7347  0.7143
   60SAPC   C31 4604   6.459   7.079   5.774 -0.4966 -0.6457 -0.0405
   60SAPC   O32 4605   6.557   7.140   5.826 -0.8566 -0.5198 -0.2603
   60SAPC   C32 4606   6.422   7.091   5.632  0.2999  0.1902  0.2707
   60SAPC   H2X 4607   6.332   7.156   5.623 -1.5728 -2.1239  1.1523
   60SAPC   H2Y 4608   6.410   6.992   5.583  2.5607  0.0981 -0.1884
   60SAPC   C23 4609   6.830   6.744   5.787 -0.5225 -0.2095  0.1746
   60SAPC   H3R 4610   6.827   6.646   5.735 -1.3506 -0.2963  0.3758
   60SAPC   H3S 4611   6.939   6.768   5.779  0.2560 -3.8084 -2.5460
   60SAPC   C24 4612   6.752   6.849   5.705 -0.1339  0.4918 -0.2311
   60SAPC   H4R 4613   6.826   6.884   5.631  2.3392 -1.7474  1.0082
   60SAPC   H4S 4614   6.718   6.938   5.762  0.3302  1.2486 -1.1126
   60SAPC   C25 4615   6.630   6.783   5.639 -0.3590 -0.3393  0.2293
   60SAPC   H5R 4616   6.531   6.791   5.688 -0.2516  2.1604  0.1670
   60SAPC   C26 4617   6.637   6.736   5.511  0.3650  0.2133  0.3336
   60SAPC   H6R 4618   6.551   6.678   5.474  0.3430 -0.3916  1.2849
   60SAPC   C27 4619   6.761   6.741   5.427  0.7599 -0.1795  0.1985
   60SAPC   H7R 4620   6.824   6.655   5.456 -1.5244 -2.3966 -0.9775
   60SAPC   H7S 4621   6.823   6.832   5.439  0.2761  0.3137 -0.8653
   60SAPC   C28 4622   6.744   6.743   5.278 -0.0789 -0.1086 -0.5970
   60SAPC   H8R 4623   6.811   6.818   5.233  1.2746 -0.1903  1.1595
   60SAPC   C29 4624   6.694   6.639   5.207  0.4389 -0.1284  0.3039
   60SAPC   H9R 4625   6.691   6.647   5.097 -1.8143 -0.5745  0.2803
   60SAPC  C210 4626   6.616   6.517   5.259  1.0867 -0.5329 -0.1504
   60SAPC  H10R 4627   6.507   6.536   5.257  0.5747 -2.9874  0.7753
   60SAPC  H10S 4628   6.642   6.493   5.364  0.2954  0.5304  0.2954
   60SAPC  C211 4629   6.650   6.389   5.186 -0.3658  0.1618  0.2823
   60SAPC  H11R 4630   6.725   6.320   5.227  0.6887  0.8416 -0.4612
   60SAPC  C212 4631   6.604   6.347   5.067  0.3329 -0.4657 -0.0869
   60SAPC  H12R 4632   6.649   6.256   5.026  0.3980 -1.1883  1.5224
   60SAPC  C213 4633   6.505   6.420   4.975 -0.1701 -0.2317  0.2046
   60SAPC  H13R 4634   6.448   6.475   5.052  0.6814  0.4556  0.3610
   60SAPC  H13S 4635   6.429   6.353   4.930  0.6438 -0.4142 -0.9498
   60SAPC  C214 4636   6.560   6.517   4.874 -0.4781 -0.1397 -0.1801
   60SAPC  H14R 4637   6.620   6.600   4.916  0.6312 -0.8572 -0.3166
   60SAPC  C215 4638   6.538   6.521   4.743 -0.0828  0.2124  0.2565
   60SAPC  H15R 4639   6.573   6.602   4.677 -1.2127  0.1786 -0.4107
   60SAPC  C216 4640   6.444   6.433   4.669  0.0053  0.3458 -0.1805
   60SAPC  H16R 4641   6.394   6.355   4.730 -3.4206  2.1928 -0.3924
   60SAPC  H16S 4642   6.509   6.384   4.593 -1.0688 -0.8022 -0.4021
   60SAPC  C217 4643   6.326   6.502   4.593  0.1134 -0.3528  0.9264
   60SAPC  H17R 4644   6.272   6.560   4.670  0.3274 -0.3792  1.0972
   60SAPC  H17S 4645   6.263   6.423   4.547 -1.2073  0.6264  0.9989
   60SAPC  C218 4646   6.370   6.604   4.484  0.4395 -0.4163  0.0871
   60SAPC  H18R 4647   6.454   6.560   4.425 -0.0176 -0.4081 -0.5765
   60SAPC  H18S 4648   6.411   6.698   4.526  0.6944 -0.3603 -0.2818
   60SAPC  C219 4649   6.251   6.640   4.388  0.3258 -0.1084 -0.3153
   60SAPC  H19R 4650   6.265   6.742   4.346 -1.4241  0.2792 -0.0480
   60SAPC  H19S 4651   6.159   6.652   4.450  1.8828  1.2853  1.8561
   60SAPC  C220 4652   6.216   6.551   4.268 -0.1294 -0.0939 -0.4505
   60SAPC  H20R 4653   6.182   6.450   4.297  0.1451 -0.3709 -1.0829
   60SAPC  H20S 4654   6.307   6.537   4.206  0.8191  0.6396  0.7318
   60SAPC  H20T 4655   6.137   6.600   4.206  2.2377  2.7461 -1.4521
   60SAPC   C33 4656   6.539   7.149   5.540  0.5918  0.3865 -0.1567
   60SAPC   H3X 4657   6.629   7.088   5.560  0.3730 -1.2801 -3.5491
   60SAPC   H3Y 4658   6.549   7.255   5.573 -0.3816  0.5383 -0.3150
   60SAPC   C34 4659   6.500   7.148   5.398 -0.1837 -0.1482  0.0917
   60SAPC   H4X 4660   6.433   7.234   5.380  0.9736  0.7310 -0.1317
   60SAPC   H4Y 4661   6.441   7.055   5.386 -1.3841  0.2346  2.4727
   60SAPC   C35 4662   6.622   7.163   5.297  0.2573  0.4934 -0.2726
   60SAPC   H5X 4663   6.696   7.090   5.338 -0.9905  0.8612  2.9446
   60SAPC   H5Y 4664   6.672   7.260   5.314  2.1917 -0.7229  1.6468
   60SAPC   C36 4665   6.580   7.147   5.150 -0.2560 -0.4948 -0.3524
   60SAPC   H6X 4666   6.522   7.236   5.115  0.0062  0.3230  1.1914
   60SAPC   H6Y 4667   6.517   7.057   5.139 -1.4580  0.1020  1.1861
   60SAPC   C37 4668   6.710   7.131   5.074  0.2595 -0.7985  0.3554
   60SAPC   H7X 4669   6.723   7.048   5.002  1.5387  1.8016 -2.6787
   60SAPC   H7Y 4670   6.804   7.140   5.133  0.8240 -2.0170 -0.3304
   60SAPC   C38 4671   6.735   7.240   4.968  0.7989 -0.0460 -0.4243
   60SAPC   H8X 4672   6.824   7.209   4.909 -1.4020 -3.5859 -2.1892
   60SAPC   H8Y 4673   6.753   7.334   5.026 -0.8864 -0.2076  0.4096
   60SAPC   C39 4674   6.614   7.265   4.865 -0.0836 -0.4177  0.8661
   60SAPC   H9X 4675   6.536   7.329   4.912  1.1917  1.9351 -0.0200
   60SAPC   H9Y 4676   6.576   7.167   4.830  1.5419 -0.7130 -0.1837
   60SAPC  C310 4677   6.641   7.331   4.724 -1.3314 -0.3337  0.3612
   60SAPC  H10X 4678   6.695   7.427   4.740  1.0581 -1.4262 -0.8009
   60SAPC  H10Y 4679   6.547   7.343   4.666  0.8166  0.2679 -3.3164
   60SAPC  C311 4680   6.733   7.247   4.629 -0.1938 -0.4388  0.0564
   60SAPC  H11X 4681   6.840   7.255   4.658  0.6009 -2.0290 -2.1092
   60SAPC  H11Y 4682   6.720   7.295   4.529 -1.3748 -0.5290  0.1611
   60SAPC  C312 4683   6.692   7.099   4.609 -0.5679 -0.6074 -0.2616
   60SAPC  H12X 4684   6.587   7.093   4.574 -0.8493 -1.3150  0.6529
   60SAPC  H12Y 4685   6.710   7.041   4.702  0.6045  0.8272  0.4574
   60SAPC  C313 4686   6.783   7.035   4.496  0.0712 -0.0022 -0.2433
   60SAPC  H13X 4687   6.886   7.019   4.535 -0.3967 -0.6138  0.7718
   60SAPC  H13Y 4688   6.782   7.085   4.397 -0.3464  0.0524 -0.2114
   60SAPC  C314 4689   6.737   6.889   4.463  0.1315  0.8061 -0.3336
   60SAPC  H14X 4690   6.627   6.889   4.474  0.1868 -0.4452  0.3268
   60SAPC  H14Y 4691   6.765   6.825   4.549 -3.7455 -1.0980 -0.3168
   60SAPC  C315 4692   6.776   6.835   4.331  0.7990 -0.1126 -0.6268
   60SAPC  H15X 4693   6.886   6.831   4.313  1.0227  0.7035  0.4425
   60SAPC  H15Y 4694   6.734   6.900   4.252 -0.3072 -1.0071 -0.7939
   60SAPC  C316 4695   6.718   6.700   4.324  0.1915  0.4948  0.8926
   60SAPC  H16X 4696   6.609   6.701   4.344 -0.3292 -1.3580 -1.4502
   60SAPC  H16Y 4697   6.770   6.636   4.399  1.1389  0.3885  0.1688
   60SAPC  C317 4698   6.734   6.644   4.181 -0.7775  0.0675  0.8968
   60SAPC  H17X 4699   6.837   6.670   4.150 -0.8372 -0.6962 -0.0062
   60SAPC  H17Y 4700   6.667   6.697   4.110  0.1914  0.0619 -0.0550
   60SAPC  C318 4701   6.717   6.495   4.163 -0.2210 -0.2292  0.2214
   60SAPC  H18X 4702   6.615   6.458   4.187 -1.1499  1.5032 -0.8524
   60SAPC  H18Y 4703   6.781   6.442   4.238 -1.7150 -2.7797 -0.1810
   60SAPC  H18Z 4704   6.744   6.454   4.064  0.7679 -0.0447  0.4050
   61SAPC     N 4705   2.233   4.918   7.037  0.0840 -0.1402 -0.2917
   61SAPC   C12 4706   2.244   4.763   7.035 -0.2355 -0.0381  0.1138
   61SAPC  H12A 4707   2.164   4.715   6.981  0.7094 -0.0519 -1.3201
   61SAPC  H12B 4708   2.244   4.734   7.139  2.0850  0.9382  0.4342
   61SAPC   C13 4709   2.098   4.953   7.084  0.3994 -1.0918 -0.9985
   61SAPC  H13A 4710   2.018   4.907   7.028 -2.4302  2.7611 -0.5196
   61SAPC  H13B 4711   2.079   4.912   7.182 -1.3382  0.3545 -0.6798
   61SAPC  H13C 4712   2.083   5.060   7.087  2.4918 -0.7281  2.2545
   61SAPC   C14 4713   2.325   4.992   7.124  0.2932  0.5795 -0.9865
   61SAPC  H14A 4714   2.329   5.098   7.102  1.2106  0.6362 -0.5916
   61SAPC  H14B 4715   2.297   4.982   7.228  1.9417  1.6004 -0.3892
   61SAPC  H14C 4716   2.425   4.960   7.101  0.7930  1.2722  0.1055
   61SAPC   C15 4717   2.247   4.970   6.903  0.0400  0.1614 -0.0294
   61SAPC  H15A 4718   2.212   5.071   6.893 -0.7526 -0.0360  0.6565
   61SAPC  H15B 4719   2.348   4.968   6.862  0.3328  1.9300  0.5439
   61SAPC  H15C 4720   2.200   4.919   6.820 -0.5116  1.3538 -0.4621
   61SAPC   C11 4721   2.377   4.706   6.987  0.1514  0.3077 -0.2900
   61SAPC  H11A 4722   2.378   4.699   6.877  0.0317  2.4509 -0.4656
   61SAPC  H11B 4723   2.372   4.598   7.013 -1.6934  0.2432 -0.7578
   61SAPC     P 4724   2.642   4.713   7.014  0.0804 -0.2183 -0.5752
   61SAPC   O13 4725   2.723   4.840   7.031 -0.0152  0.2417  0.1374
   61SAPC   O14 4726   2.686   4.595   7.089 -0.7382 -0.4131  0.0326
   61SAPC   O12 4727   2.493   4.758   7.052  0.0702  0.0937 -0.0941
   61SAPC   O11 4728   2.638   4.676   6.853 -0.3445 -0.0595 -0.4295
   61SAPC    C1 4729   2.617   4.537   6.817 -0.2652 -0.4320 -0.3695
   61SAPC    HA 4730   2.711   4.478   6.827 -1.5337 -2.8820 -2.0012
   61SAPC    HB 4731   2.548   4.477   6.880 -0.3490  0.1827  0.1440
   61SAPC    C2 4732   2.599   4.536   6.666 -0.5849 -0.0588 -0.1513
   61SAPC    HS 4733   2.692   4.570   6.616  1.0697 -3.9848 -0.1375
   61SAPC   O21 4734   2.481   4.612   6.629  0.4036 -0.1733 -0.0859
   61SAPC   C21 4735   2.501   4.717   6.549 -0.3635  0.0935 -0.0818
   61SAPC   O22 4736   2.606   4.739   6.489  0.5345 -0.1692 -0.2682
   61SAPC   C22 4737   2.371   4.801   6.541 -0.2446 -0.1374 -0.0415
   61SAPC   H2R 4738   2.290   4.730   6.568 -0.4779 -0.7328 -2.0957
   61SAPC   H2S 4739   2.373   4.874   6.624  3.0054 -0.1944  0.0684
   61SAPC    C3 4740   2.586   4.392   6.610 -0.3713 -0.0848  0.5256
   61SAPC    HX 4741   2.507   4.343   6.672 -1.7196 -1.7289 -2.2863
   61SAPC    HY 4742   2.685   4.343   6.613 -0.9516 -1.4962 -1.1630
   61SAPC   O31 4743   2.554   4.390   6.466 -0.2054 -0.2368 -0.1408
   61SAPC   C31 4744   2.480   4.285   6.421  0.2820  0.8016  0.3661
   61SAPC   O32 4745   2.453   4.186   6.487 -0.6418 -0.0685  0.7800
   61SAPC   C32 4746   2.448   4.311   6.273 -0.5959  0.5774 -0.3747
   61SAPC   H2X 4747   2.482   4.413   6.243  0.4086  0.2301 -0.4358
   61SAPC   H2Y 4748   2.338   4.301   6.264 -0.4582 -3.0346  0.4347
   61SAPC   C23 4749   2.329   4.858   6.396 -0.3159 -0.1212 -0.2767
   61SAPC   H3R 4750   2.397   4.934   6.354 -0.3368 -1.7879 -3.6306
   61SAPC   H3S 4751   2.238   4.915   6.426 -0.9810 -0.0731 -2.2647
   61SAPC   C24 4752   2.303   4.748   6.286 -0.0851  0.3585 -0.5991
   61SAPC   H4R 4753   2.401   4.710   6.250 -0.0690  1.4508 -1.7889
   61SAPC   H4S 4754   2.271   4.806   6.197  1.8596  3.0211  0.3277
   61SAPC   C25 4755   2.227   4.626   6.331 -0.0020  0.2398 -0.1508
   61SAPC   H5R 4756   2.284   4.582   6.414  0.5957  0.4772 -0.4353
   61SAPC   C26 4757   2.119   4.575   6.280 -0.2421  0.5174  0.3869
   61SAPC   H6R 4758   2.074   4.489   6.329  0.5336  0.6308  1.3290
   61SAPC   C27 4759   2.047   4.624   6.153 -0.2877 -0.3659  0.4695
   61SAPC   H7R 4760   2.092   4.705   6.094 -1.4394  0.3529  0.5417
   61SAPC   H7S 4761   1.943   4.653   6.179 -0.2467  1.0991 -0.8769
   61SAPC   C28 4762   2.039   4.504   6.063  0.0563  0.2959  0.4046
   61SAPC   H8R 4763   1.959   4.435   6.093 -0.8574  0.9728 -0.3939
   61SAPC   C29 4764   2.094   4.490   5.939 -0.6676 -0.7128 -0.7214
   61SAPC   H9R 4765   2.084   4.390   5.894  2.6245 -1.6400  0.3075
   61SAPC  C210 4766   2.184   4.584   5.865  0.5789  0.2238 -0.6974
   61SAPC  H10R 4767   2.237   4.649   5.938 -0.8440 -0.3008  0.8924
   61SAPC  H10S 4768   2.118   4.649   5.803  1.9182  0.6623 -1.6961
   61SAPC  C211 4769   2.279   4.510   5.776  0.7195 -0.3965  0.0581
   61SAPC  H11R 4770   2.369   4.469   5.823  1.6662  3.1968  1.7349
   61SAPC  C212 4771   2.267   4.496   5.645  0.4408 -0.5747 -0.1961
   61SAPC  H12R 4772   2.343   4.444   5.585 -0.2695  0.0410 -1.6609
   61SAPC  C213 4773   2.161   4.552   5.555 -0.0911  0.1073 -0.2088
   61SAPC  H13R 4774   2.215   4.626   5.492  0.6597  1.7361  2.2272
   61SAPC  H13S 4775   2.078   4.602   5.609 -1.3258  0.5805 -2.4321
   61SAPC  C214 4776   2.096   4.439   5.468  0.2215 -0.0686  0.1150
   61SAPC  H14R 4777   2.052   4.365   5.538 -0.2094  2.7507  3.0826
   61SAPC  C215 4778   2.101   4.426   5.338  0.4584  0.8223  0.4598
   61SAPC  H15R 4779   2.066   4.331   5.295  2.8149 -0.0536  0.3333
   61SAPC  C216 4780   2.151   4.520   5.233 -0.6601  0.0284 -0.1540
   61SAPC  H16R 4781   2.167   4.621   5.277  0.8426 -0.2593  0.0247
   61SAPC  H16S 4782   2.075   4.522   5.153  0.1641  0.3207 -0.9446
   61SAPC  C217 4783   2.282   4.485   5.154 -0.0506 -0.7248  0.4379
   61SAPC  H17R 4784   2.308   4.565   5.082 -2.1093 -1.0664 -0.7600
   61SAPC  H17S 4785   2.261   4.392   5.097 -0.9855  0.2059 -0.7826
   61SAPC  C218 4786   2.414   4.471   5.226 -0.5309 -0.3058  0.3335
   61SAPC  H18R 4787   2.428   4.381   5.290  4.7220  0.0535  0.1177
   61SAPC  H18S 4788   2.422   4.550   5.303  0.8568 -0.9945  0.9480
   61SAPC  C219 4789   2.538   4.472   5.130 -0.7144 -0.2752  0.2557
   61SAPC  H19R 4790   2.520   4.547   5.050 -1.1544 -0.3299  0.3001
   61SAPC  H19S 4791   2.547   4.370   5.087  0.1202 -0.8998  1.8373
   61SAPC  C220 4792   2.665   4.526   5.200  0.3381 -0.4661  0.0009
   61SAPC  H20R 4793   2.746   4.492   5.131  1.0978 -1.6702  1.4212
   61SAPC  H20S 4794   2.686   4.474   5.296 -0.2281 -0.3636  0.1793
   61SAPC  H20T 4795   2.648   4.635   5.214  0.5167 -0.3786 -0.4283
   61SAPC   C33 4796   2.513   4.212   6.176  0.2170  0.6426  0.5445
   61SAPC   H3X 4797   2.515   4.103   6.200 -1.2898  0.3374 -0.5682
   61SAPC   H3Y 4798   2.615   4.255   6.186  0.2897  0.2378  1.7591
   61SAPC   C34 4799   2.447   4.218   6.037  0.4873 -0.4431 -0.4195
   61SAPC   H4X 4800   2.440   4.327   6.018 -1.2836 -0.2802  0.8868
   61SAPC   H4Y 4801   2.343   4.177   6.039  0.1382  0.0178 -3.4678
   61SAPC   C35 4802   2.536   4.160   5.926  0.0970 -0.5420  0.6590
   61SAPC   H5X 4803   2.556   4.055   5.953 -0.7147 -0.3892  1.8984
   61SAPC   H5Y 4804   2.635   4.212   5.920  0.2296 -0.8963 -0.4879
   61SAPC   C36 4805   2.484   4.172   5.780  0.2454  0.5368  0.4823
   61SAPC   H6X 4806   2.560   4.144   5.704 -2.6737 -0.3312 -2.3453
   61SAPC   H6Y 4807   2.454   4.278   5.765 -0.8439  0.0825 -0.7946
   61SAPC   C37 4808   2.356   4.090   5.747  0.9690  0.7418  0.5037
   61SAPC   H7X 4809   2.279   4.113   5.824 -0.3358 -1.6257  0.0043
   61SAPC   H7Y 4810   2.368   3.982   5.770 -0.4740  0.0649 -1.6240
   61SAPC   C38 4811   2.308   4.103   5.597 -0.4910  0.2444  0.6415
   61SAPC   H8X 4812   2.292   4.210   5.570  0.7901  0.8593  2.1287
   61SAPC   H8Y 4813   2.206   4.061   5.588 -1.2407  2.3010 -1.2277
   61SAPC   C39 4814   2.405   4.037   5.500  0.3141  0.1199  0.7087
   61SAPC   H9X 4815   2.432   3.935   5.533  2.1639 -0.3690 -1.9830
   61SAPC   H9Y 4816   2.498   4.098   5.493 -0.2762  0.8374 -2.5447
   61SAPC  C310 4817   2.343   4.018   5.357  0.6132  0.1502 -0.3117
   61SAPC  H10X 4818   2.292   4.113   5.333  1.4662  0.4415 -1.0172
   61SAPC  H10Y 4819   2.262   3.943   5.371  0.3642  0.1714 -1.5696
   61SAPC  C311 4820   2.447   3.973   5.245  0.5154  0.1159 -0.4927
   61SAPC  H11X 4821   2.510   3.886   5.274  2.2546  1.3162 -0.5264
   61SAPC  H11Y 4822   2.529   4.047   5.240  1.0073 -0.2814  0.9672
   61SAPC  C312 4823   2.386   3.947   5.109  0.1795  0.6488  0.4896
   61SAPC  H12X 4824   2.317   4.028   5.081  0.2978  0.2838 -0.9369
   61SAPC  H12Y 4825   2.324   3.855   5.115  0.3211  0.5589  0.5949
   61SAPC  C313 4826   2.477   3.907   4.994 -0.0121 -0.2812  0.1259
   61SAPC  H13X 4827   2.414   3.876   4.907  1.6024  0.8249 -1.5111
   61SAPC  H13Y 4828   2.526   3.809   5.010  1.9171  1.0502  3.3538
   61SAPC  C314 4829   2.562   4.024   4.934  0.4460 -0.0368 -0.3864
   61SAPC  H14X 4830   2.630   3.989   4.854  2.1344  1.7381  0.2144
   61SAPC  H14Y 4831   2.628   4.066   5.013 -0.5705  0.1126  0.4189
   61SAPC  C315 4832   2.468   4.133   4.883 -0.4723  0.4896 -0.0818
   61SAPC  H15X 4833   2.400   4.174   4.961 -0.9383 -0.0849 -0.1819
   61SAPC  H15Y 4834   2.399   4.091   4.808 -1.5210 -0.9676  1.6168
   61SAPC  C316 4835   2.547   4.244   4.816 -0.6734 -0.5917  0.7371
   61SAPC  H16X 4836   2.625   4.292   4.880  2.1715 -0.8554 -2.3137
   61SAPC  H16Y 4837   2.491   4.335   4.786 -1.5601 -1.0652  0.9097
   61SAPC  C317 4838   2.635   4.215   4.689 -0.4185  0.1920  0.1046
   61SAPC  H17X 4839   2.581   4.150   4.617  4.3055 -2.0930 -1.8429
   61SAPC  H17Y 4840   2.733   4.169   4.713 -1.3942 -1.3752  1.3134
   61SAPC  C318 4841   2.646   4.340   4.601  0.5998 -0.0432 -0.1285
   61SAPC  H18X 4842   2.664   4.317   4.494 -0.8407  0.2993 -0.4696
   61SAPC  H18Y 4843   2.721   4.406   4.649  0.6398 -0.1486 -0.0463
   61SAPC  H18Z 4844   2.554   4.402   4.604 -0.3914 -1.4372 -0.4105
   62SAPC     N 4845   4.769   1.150   6.475 -1.1728  0.0379  0.0743
   62SAPC   C12 4846   4.914   1.133   6.502 -0.3430 -0.9672  0.4443
   62SAPC  H12A 4847   4.936   1.052   6.434 -0.7582  1.1792 -2.4498
   62SAPC  H12B 4848   4.922   1.098   6.604 -0.5488 -4.6028 -0.6478
   62SAPC   C13 4849   4.691   1.044   6.533 -0.3870  0.4819  0.1232
   62SAPC  H13A 4850   4.592   1.038   6.490 -0.4366 -0.4960  0.3620
   62SAPC  H13B 4851   4.741   0.950   6.518  3.2458  2.1504  0.7178
   62SAPC  H13C 4852   4.659   1.055   6.635 -2.2387  1.5542 -0.5240
   62SAPC   C14 4853   4.726   1.270   6.551  0.0842 -0.3139 -0.1514
   62SAPC  H14A 4854   4.798   1.350   6.541 -0.5812  0.0652 -2.6270
   62SAPC  H14B 4855   4.632   1.313   6.518  1.7065  1.9882 -2.1388
   62SAPC  H14C 4856   4.735   1.255   6.657  2.0506  0.5337 -0.1547
   62SAPC   C15 4857   4.748   1.149   6.329 -0.0061 -0.5010 -0.0840
   62SAPC  H15A 4858   4.808   1.217   6.271  0.7514  0.0137  1.2498
   62SAPC  H15B 4859   4.775   1.054   6.285  2.7365  0.4959 -0.7904
   62SAPC  H15C 4860   4.646   1.176   6.309 -0.7668 -1.0863  2.5731
   62SAPC   C11 4861   5.012   1.246   6.476 -0.3718 -0.1586  1.0155
   62SAPC  H11A 4862   5.014   1.270   6.367 -0.6593 -3.2049  0.2513
   62SAPC  H11B 4863   5.114   1.206   6.498  0.1692  1.5287  1.7509
   62SAPC     P 4864   5.113   1.458   6.569  0.4065  0.5315  0.0903
   62SAPC   O13 4865   5.066   1.554   6.668 -0.6566 -0.0958  0.3086
   62SAPC   O14 4866   5.244   1.392   6.597  0.6524 -0.4455  0.0723
   62SAPC   O12 4867   4.994   1.362   6.553  0.0581 -0.5670  0.7215
   62SAPC   O11 4868   5.121   1.524   6.429  0.9104 -0.4096  0.2202
   62SAPC    C1 4869   5.000   1.595   6.381 -0.3927  0.0077  0.6052
   62SAPC    HA 4870   4.944   1.636   6.468 -0.6927 -1.0748  0.9310
   62SAPC    HB 4871   5.042   1.682   6.327 -2.2137  0.4178 -0.2172
   62SAPC    C2 4872   4.908   1.519   6.278 -0.2657  0.0008 -0.2958
   62SAPC    HS 4873   4.891   1.418   6.319 -1.0982  0.4951  0.6195
   62SAPC   O21 4874   4.980   1.520   6.150  0.8566  0.3999  0.1242
   62SAPC   C21 4875   4.959   1.403   6.088  0.5102 -0.1052 -0.1199
   62SAPC   O22 4876   4.890   1.315   6.124  0.1441  0.7445  0.2784
   62SAPC   C22 4877   5.046   1.390   5.962 -0.5671  0.0703  0.7569
   62SAPC   H2R 4878   5.024   1.489   5.918  1.2434 -0.6290 -1.9716
   62SAPC   H2S 4879   5.153   1.377   5.992 -0.3180  0.8039  0.2328
   62SAPC    C3 4880   4.768   1.580   6.275  0.0880 -0.6321  0.0528
   62SAPC    HX 4881   4.713   1.576   6.371 -0.7419  0.9798 -0.3257
   62SAPC    HY 4882   4.710   1.524   6.198 -0.3876 -1.3944  0.9466
   62SAPC   O31 4883   4.774   1.717   6.232 -0.8137 -0.0955 -0.2800
   62SAPC   C31 4884   4.764   1.740   6.101  0.3142 -0.3252  0.0034
   62SAPC   O32 4885   4.744   1.658   6.017  0.3017  0.6704 -0.1176
   62SAPC   C32 4886   4.792   1.887   6.077  0.3449 -0.2137 -0.1933
   62SAPC   H2X 4887   4.883   1.914   6.134 -0.4707 -1.1988  1.6708
   62SAPC   H2Y 4888   4.698   1.935   6.113 -0.7344 -2.4057  0.1062
   62SAPC   C23 4889   5.010   1.273   5.866  0.3540 -0.1041 -0.5016
   62SAPC   H3R 4890   4.902   1.247   5.872  0.5149 -0.4856  1.1322
   62SAPC   H3S 4891   5.068   1.188   5.907  0.7011  0.9830  1.3432
   62SAPC   C24 4892   5.045   1.292   5.713 -0.0533 -0.1948 -0.5511
   62SAPC   H4R 4893   5.008   1.202   5.660 -0.3964 -0.7683  0.6384
   62SAPC   H4S 4894   5.155   1.307   5.709  0.2009 -1.0362  1.7510
   62SAPC   C25 4895   4.986   1.417   5.647  0.0222 -1.0088 -0.0653
   62SAPC   H5R 4896   4.951   1.499   5.712 -0.7660 -0.7758 -0.7642
   62SAPC   C26 4897   5.009   1.439   5.516  0.2633 -0.3346  0.4574
   62SAPC   H6R 4898   4.964   1.532   5.480  2.0582  0.0182 -1.0148
   62SAPC   C27 4899   5.078   1.352   5.411 -0.4879  0.7529 -0.5025
   62SAPC   H7R 4900   5.005   1.325   5.332 -1.5338 -0.9656  0.9719
   62SAPC   H7S 4901   5.110   1.256   5.456 -0.5409  1.4837  1.1611
   62SAPC   C28 4902   5.194   1.423   5.349 -0.2243 -0.3151  0.3887
   62SAPC   H8R 4903   5.266   1.475   5.413 -2.6901  0.1777  2.9373
   62SAPC   C29 4904   5.208   1.450   5.221  0.4101  0.1888  0.9206
   62SAPC   H9R 4905   5.278   1.527   5.187 -0.5926  0.9273  0.4849
   62SAPC  C210 4906   5.125   1.404   5.105 -0.7118 -0.0896 -0.0873
   62SAPC  H10R 4907   5.140   1.481   5.027  0.3305  0.3996  0.5901
   62SAPC  H10S 4908   5.015   1.411   5.124 -0.7809  0.7251 -0.7513
   62SAPC  C211 4909   5.168   1.272   5.054 -0.1083  0.4931  0.4763
   62SAPC  H11R 4910   5.169   1.196   5.134  1.4092  1.7391  1.6964
   62SAPC  C212 4911   5.207   1.233   4.927  0.5826 -0.0098 -0.4922
   62SAPC  H12R 4912   5.236   1.129   4.908 -0.9940 -0.1551 -2.4376
   62SAPC  C213 4913   5.223   1.308   4.802 -0.5156 -0.3772  0.1218
   62SAPC  H13R 4914   5.258   1.410   4.826  0.6902 -0.3824 -1.4038
   62SAPC  H13S 4915   5.122   1.311   4.756 -0.6144 -0.3721  0.3418
   62SAPC  C214 4916   5.320   1.249   4.699  0.1648  0.1220  0.0940
   62SAPC  H14R 4917   5.424   1.248   4.734  1.2027 -1.9815 -2.6562
   62SAPC  C215 4918   5.286   1.177   4.587  0.0057  0.4014  0.1277
   62SAPC  H15R 4919   5.365   1.139   4.521  0.2907 -0.0580  0.7211
   62SAPC  C216 4920   5.145   1.153   4.526  0.7999 -0.2440 -0.1825
   62SAPC  H16R 4921   5.115   1.234   4.456  1.8792 -0.1524 -0.5452
   62SAPC  H16S 4922   5.072   1.150   4.610  1.0091  0.9845  0.0714
   62SAPC  C217 4923   5.115   1.037   4.437  0.0048  0.5807  0.4759
   62SAPC  H17R 4924   5.167   0.946   4.474  1.8242  0.9618 -0.9976
   62SAPC  H17S 4925   5.161   1.064   4.340 -2.2387  2.2687 -0.1818
   62SAPC  C218 4926   4.967   1.013   4.426  0.3405  0.1356  0.3929
   62SAPC  H18R 4927   4.917   1.112   4.426 -1.2464 -0.5706 -2.0605
   62SAPC  H18S 4928   4.935   0.968   4.523 -0.4783  1.8063  0.9329
   62SAPC  C219 4929   4.924   0.931   4.296  0.0850 -0.7188  1.3722
   62SAPC  H19R 4930   4.996   0.848   4.283  1.2320  0.3353  0.8703
   62SAPC  H19S 4931   4.944   0.996   4.208  2.3032 -1.6278  1.1534
   62SAPC  C220 4932   4.784   0.870   4.292  0.4666  0.2658  0.0030
   62SAPC  H20R 4933   4.763   0.835   4.189  0.5052  2.0068 -0.6346
   62SAPC  H20S 4934   4.711   0.951   4.313  1.1508  0.6297  1.0944
   62SAPC  H20T 4935   4.773   0.787   4.365 -0.9271  0.9326  0.5823
   62SAPC   C33 4936   4.810   1.912   5.927 -0.3746 -0.0229 -0.4301
   62SAPC   H3X 4937   4.741   1.847   5.869 -1.3540  0.7242 -0.1265
   62SAPC   H3Y 4938   4.916   1.882   5.915 -0.5412 -0.5422 -0.6062
   62SAPC   C34 4939   4.799   2.052   5.875  0.3143  1.1016  0.2693
   62SAPC   H4X 4940   4.864   2.121   5.933  0.6528  0.4180  0.7148
   62SAPC   H4Y 4941   4.699   2.099   5.889  0.8507  2.8091 -1.2958
   62SAPC   C35 4942   4.834   2.071   5.726  0.1979 -0.1721  0.4588
   62SAPC   H5X 4943   4.934   2.024   5.720 -0.3620 -1.3302 -0.0856
   62SAPC   H5Y 4944   4.849   2.177   5.698  0.4650 -0.7910 -1.9587
   62SAPC   C36 4945   4.734   1.998   5.635 -0.7581 -0.1405  0.3085
   62SAPC   H6X 4946   4.646   2.065   5.641  0.3365  1.4358 -0.5075
   62SAPC   H6Y 4947   4.709   1.894   5.667  0.6732 -0.0929  1.7341
   62SAPC   C37 4948   4.786   1.988   5.488 -0.7522  0.2710  0.3562
   62SAPC   H7X 4949   4.881   1.930   5.478 -0.3812  1.3317 -3.6541
   62SAPC   H7Y 4950   4.816   2.088   5.451  0.5203 -0.1138  0.2714
   62SAPC   C38 4951   4.678   1.927   5.400  0.1771  0.6224  0.0327
   62SAPC   H8X 4952   4.586   1.979   5.432  0.0308 -0.3502  1.2543
   62SAPC   H8Y 4953   4.661   1.820   5.424 -2.6225  0.8330 -0.6838
   62SAPC   C39 4954   4.711   1.950   5.249 -0.3171 -0.3584 -0.2654
   62SAPC   H9X 4955   4.708   2.058   5.222 -0.9582 -0.3932 -0.3484
   62SAPC   H9Y 4956   4.641   1.882   5.195  1.4647 -1.7038 -0.9738
   62SAPC  C310 4957   4.847   1.900   5.214 -0.1866 -0.3414 -0.0371
   62SAPC  H10X 4958   4.878   1.798   5.244  2.2617 -0.0073 -1.2177
   62SAPC  H10Y 4959   4.923   1.964   5.264 -0.1559 -1.6627  1.6875
   62SAPC  C311 4960   4.882   1.886   5.065 -0.1747 -0.5626 -0.3651
   62SAPC  H11X 4961   4.872   1.978   5.002 -1.4165  0.2219  0.9271
   62SAPC  H11Y 4962   4.810   1.806   5.038 -1.0998 -1.2909  3.6312
   62SAPC  C312 4963   5.026   1.832   5.048  0.5294 -0.1599 -0.6943
   62SAPC  H12X 4964   5.045   1.735   5.098  1.0145  0.0908 -0.3839
   62SAPC  H12Y 4965   5.109   1.888   5.095  1.3311 -2.8979  1.4404
   62SAPC  C313 4966   5.075   1.813   4.897  0.9756  0.5536  0.1430
   62SAPC  H13X 4967   5.180   1.777   4.898  0.8520  0.1920  0.5986
   62SAPC  H13Y 4968   5.060   1.908   4.841 -0.8429  0.7203  0.8466
   62SAPC  C314 4969   4.996   1.705   4.825  0.5698  0.4081 -0.4826
   62SAPC  H14X 4970   4.886   1.724   4.828  0.4110 -0.5045 -0.3575
   62SAPC  H14Y 4971   5.000   1.606   4.873 -0.3117 -0.1117 -1.4302
   62SAPC  C315 4972   5.039   1.683   4.678  0.3290 -0.9009 -0.7441
   62SAPC  H15X 4973   5.005   1.582   4.648 -0.5062 -0.7399 -0.3583
   62SAPC  H15Y 4974   5.150   1.682   4.675  0.3404  0.1470 -1.1431
   62SAPC  C316 4975   4.981   1.792   4.588  0.3774  0.3859  0.8401
   62SAPC  H16X 4976   4.996   1.891   4.637  0.2825 -0.2928  2.3027
   62SAPC  H16Y 4977   4.870   1.795   4.583  0.4279  0.8559 -0.4045
   62SAPC  C317 4978   5.031   1.773   4.445 -0.6471 -1.0286  0.0439
   62SAPC  H17X 4979   5.142   1.784   4.446 -0.7679  0.8253 -0.9050
   62SAPC  H17Y 4980   4.989   1.852   4.378  4.0774 -0.4649 -2.7114
   62SAPC  C318 4981   5.001   1.643   4.377 -0.2076 -0.2473  0.4737
   62SAPC  H18X 4982   5.048   1.553   4.422  0.4250 -2.1531 -3.5714
   62SAPC  H18Y 4983   5.024   1.646   4.269  0.1227  0.4687  0.5516
   62SAPC  H18Z 4984   4.891   1.632   4.386 -0.4744  1.2477 -0.5522
   63SAPC     N 4985   0.216   4.666   6.472  0.0153 -0.4291 -0.0433
   63SAPC   C12 4986   0.331   4.709   6.385  0.9084  1.0409 -0.2273
   63SAPC  H12A 4987   0.345   4.640   6.302 -1.5148  1.7855 -1.3400
   63SAPC  H12B 4988   0.421   4.724   6.442  2.2406  0.7092 -2.1431
   63SAPC   C13 4989   0.118   4.605   6.376 -0.3364  0.0503 -0.4048
   63SAPC  H13A 4990   0.034   4.554   6.422 -0.1012 -0.1576 -0.1982
   63SAPC  H13B 4991   0.066   4.685   6.325 -0.4658  2.8893  3.6923
   63SAPC  H13C 4992   0.156   4.528   6.311 -0.8629  0.0901 -0.7632
   63SAPC   C14 4993   0.260   4.569   6.574 -0.1207 -0.3518 -0.4088
   63SAPC  H14A 4994   0.182   4.542   6.643 -0.0609  0.4608 -0.0133
   63SAPC  H14B 4995   0.297   4.487   6.514 -1.0163  1.4218 -3.5919
   63SAPC  H14C 4996   0.335   4.608   6.642 -0.8728 -0.1892  0.3385
   63SAPC   C15 4997   0.151   4.776   6.545  0.0671 -0.6601 -0.0807
   63SAPC  H15A 4998   0.061   4.747   6.596 -0.0030 -0.1553  0.0844
   63SAPC  H15B 4999   0.214   4.827   6.617 -1.4038  3.1550 -1.2673
   63SAPC  H15C 5000   0.127   4.857   6.477  0.9746  1.7930  2.3461
   63SAPC   C11 5001   0.323   4.844   6.310  0.0915  0.3341  1.2477
   63SAPC  H11A 5002   0.238   4.838   6.237 -0.7965  0.6044  2.2375
   63SAPC  H11B 5003   0.413   4.855   6.245 -1.5876  1.1718 -1.0835
   63SAPC     P 5004   0.436   5.009   6.468 -0.3887  0.6817  0.1035
   63SAPC   O13 5005   0.399   5.126   6.554 -0.0548  0.0255 -0.1765
   63SAPC   O14 5006   0.515   4.892   6.524  0.6323  0.0645  0.3465
   63SAPC   O12 5007   0.306   4.960   6.384  0.2348 -0.1145 -0.3710
   63SAPC   O11 5008   0.523   5.069   6.348 -0.2996 -0.2366 -0.8572
   63SAPC    C1 5009   0.484   5.198   6.294 -0.0921 -0.5897 -0.2142
   63SAPC    HA 5010   0.423   5.177   6.204 -0.3407 -1.6898  0.1919
   63SAPC    HB 5011   0.420   5.257   6.363  0.4953 -0.8317  0.5599
   63SAPC    C2 5012   0.598   5.294   6.249  0.1351 -0.6814 -0.1454
   63SAPC    HS 5013   0.649   5.335   6.339 -1.4695 -0.8062  0.8651
   63SAPC   O21 5014   0.531   5.394   6.168 -0.0551  0.2357 -0.7604
   63SAPC   C21 5015   0.587   5.514   6.171  0.5088 -0.5657 -0.0211
   63SAPC   O22 5016   0.695   5.543   6.220 -0.0203  0.1881 -0.0553
   63SAPC   C22 5017   0.512   5.602   6.078 -0.0003  0.6712  0.4847
   63SAPC   H2R 5018   0.523   5.569   5.972 -0.7363 -1.5009  1.0239
   63SAPC   H2S 5019   0.405   5.586   6.106 -0.1147  0.7610  0.1070
   63SAPC    C3 5020   0.709   5.223   6.161  0.2052 -0.1538 -0.6265
   63SAPC    HX 5021   0.750   5.142   6.225  1.3741 -0.2147 -1.4148
   63SAPC    HY 5022   0.791   5.294   6.133  1.0654 -0.8678  0.0178
   63SAPC   O31 5023   0.651   5.160   6.050 -0.0326 -0.5192  0.5163
   63SAPC   C31 5024   0.726   5.160   5.940  0.0119  0.2487 -0.2286
   63SAPC   O32 5025   0.836   5.213   5.933 -0.0341 -0.0861 -0.2461
   63SAPC   C32 5026   0.655   5.077   5.833 -0.1833  0.1054 -0.6772
   63SAPC   H2X 5027   0.559   5.126   5.806 -0.1378 -0.4226 -1.8454
   63SAPC   H2Y 5028   0.635   4.979   5.882 -0.4462 -0.1032 -1.1935
   63SAPC   C23 5029   0.541   5.752   6.102 -0.1459 -0.0723  0.5131
   63SAPC   H3R 5030   0.639   5.778   6.055  0.4019 -0.0390  1.6500
   63SAPC   H3S 5031   0.565   5.776   6.208  1.0795  2.4635 -0.2446
   63SAPC   C24 5032   0.428   5.845   6.049  0.1725 -0.3600  0.7181
   63SAPC   H4R 5033   0.337   5.813   6.104 -1.2929  1.5942 -0.4475
   63SAPC   H4S 5034   0.413   5.822   5.941 -1.0803  0.4600  0.6964
   63SAPC   C25 5035   0.447   6.000   6.066  0.2828  0.9080  0.0017
   63SAPC   H5R 5036   0.380   6.055   6.133  0.4732  1.3463 -0.1627
   63SAPC   C26 5037   0.528   6.068   5.984 -0.1526 -0.3443 -0.1392
   63SAPC   H6R 5038   0.526   6.177   5.993 -0.0788 -0.4121  0.8131
   63SAPC   C27 5039   0.621   6.021   5.878 -0.1204  0.0989  0.2184
   63SAPC   H7R 5040   0.605   5.912   5.861  0.4144 -0.0399  0.6006
   63SAPC   H7S 5041   0.726   6.021   5.914  0.2210  3.1083 -0.5513
   63SAPC   C28 5042   0.619   6.107   5.752  0.0896 -0.2320  0.2844
   63SAPC   H8R 5043   0.625   6.217   5.759  0.9349 -0.0645 -2.1526
   63SAPC   C29 5044   0.595   6.059   5.626  0.2109 -0.0749 -0.1446
   63SAPC   H9R 5045   0.596   6.142   5.554  1.4616  0.5348  0.5496
   63SAPC  C210 5046   0.561   5.920   5.579  0.2019  0.2020  0.3574
   63SAPC  H10R 5047   0.569   5.833   5.647  2.0876 -0.4702 -0.6320
   63SAPC  H10S 5048   0.635   5.893   5.500 -0.4514 -0.6601  0.0335
   63SAPC  C211 5049   0.421   5.924   5.522  0.4482  0.4701 -0.4803
   63SAPC  H11R 5050   0.344   5.961   5.591  0.7119 -0.5124  0.3746
   63SAPC  C212 5051   0.390   5.898   5.391 -0.5712  0.2947 -0.1808
   63SAPC  H12R 5052   0.286   5.917   5.361 -0.5404 -0.0130 -0.4849
   63SAPC  C213 5053   0.472   5.847   5.269  0.8229 -0.0193  0.0399
   63SAPC  H13R 5054   0.410   5.792   5.195 -0.7123  0.7635  0.7018
   63SAPC  H13S 5055   0.555   5.780   5.301  0.5752 -0.5971 -0.5178
   63SAPC  C214 5056   0.556   5.958   5.207 -0.2767 -0.7303 -0.5338
   63SAPC  H14R 5057   0.614   6.011   5.283 -0.5020 -1.1003 -0.0965
   63SAPC  C215 5058   0.566   5.991   5.074  0.1274  0.1316  0.1972
   63SAPC  H15R 5059   0.643   6.062   5.042  0.6279 -1.0918 -1.4231
   63SAPC  C216 5060   0.495   5.942   4.953  0.1643  0.9467  0.4683
   63SAPC  H16R 5061   0.446   6.013   4.883 -1.2699 -1.4083 -1.0717
   63SAPC  H16S 5062   0.410   5.872   4.972  0.6875  0.3469  0.6489
   63SAPC  C217 5063   0.601   5.864   4.859 -0.2013  0.7988  0.5254
   63SAPC  H17R 5064   0.536   5.812   4.786 -1.5629 -2.5034  3.8009
   63SAPC  H17S 5065   0.643   5.786   4.926  0.4133  1.0468  0.4386
   63SAPC  C218 5066   0.717   5.957   4.816  0.3857 -0.0461 -0.3565
   63SAPC  H18R 5067   0.801   5.929   4.883  1.4261 -1.1365 -2.0468
   63SAPC  H18S 5068   0.676   6.060   4.823 -0.6841 -0.4428 -0.4611
   63SAPC  C219 5069   0.766   5.937   4.667  0.1865 -0.1778 -0.2209
   63SAPC  H19R 5070   0.683   5.939   4.594  0.0302 -2.7481 -0.2024
   63SAPC  H19S 5071   0.814   5.837   4.657 -0.4551 -0.7057  1.5508
   63SAPC  C220 5072   0.867   6.046   4.621 -0.2302  0.0419  0.2337
   63SAPC  H20R 5073   0.887   6.026   4.513  0.3736 -0.4926  0.4397
   63SAPC  H20S 5074   0.959   6.027   4.680  1.9592  1.6847 -2.3602
   63SAPC  H20T 5075   0.833   6.149   4.645 -0.3094 -0.0339  0.4446
   63SAPC   C33 5076   0.734   5.044   5.698 -0.3064 -0.6480 -0.8157
   63SAPC   H3X 5077   0.831   5.003   5.735 -0.1173  1.4082  1.1370
   63SAPC   H3Y 5078   0.765   5.136   5.645 -1.5144  1.1960  1.5101
   63SAPC   C34 5079   0.660   4.942   5.614  0.2917  0.4630  0.2321
   63SAPC   H4X 5080   0.555   4.965   5.587  0.0559  3.0261  2.8317
   63SAPC   H4Y 5081   0.654   4.847   5.671 -0.4025  0.7972  0.7295
   63SAPC   C35 5082   0.742   4.900   5.489  0.5916 -0.5486  0.1343
   63SAPC   H5X 5083   0.707   4.806   5.441 -1.5660  0.2861 -0.0495
   63SAPC   H5Y 5084   0.846   4.867   5.512 -0.2911 -1.4069  3.3075
   63SAPC   C36 5085   0.752   5.010   5.386  0.0628  0.2829 -0.5323
   63SAPC   H6X 5086   0.785   5.109   5.424  2.2968 -0.3426 -0.6673
   63SAPC   H6Y 5087   0.649   5.024   5.347 -1.0053 -2.4747  1.0015
   63SAPC   C37 5088   0.852   4.973   5.280 -0.0259  0.0139  0.7056
   63SAPC   H7X 5089   0.823   4.873   5.242  0.6523  0.1394 -0.1669
   63SAPC   H7Y 5090   0.956   4.967   5.319  0.7476 -0.1441 -1.3015
   63SAPC   C38 5091   0.858   5.087   5.177 -0.0006  0.2041 -0.3353
   63SAPC   H8X 5092   0.898   5.175   5.232  1.3685 -1.3056  1.2234
   63SAPC   H8Y 5093   0.752   5.105   5.150 -0.6134  1.8188  2.7133
   63SAPC   C39 5094   0.934   5.059   5.048  0.2731  0.3904  0.1929
   63SAPC   H9X 5095   1.034   5.014   5.065 -0.5687 -1.9228 -0.5885
   63SAPC   H9Y 5096   0.931   5.156   4.995 -2.3592  0.8184  0.9808
   63SAPC  C310 5097   0.847   4.971   4.959  0.6423  0.1883  0.2936
   63SAPC  H10X 5098   0.738   4.984   4.977  0.5599 -0.3087  0.1410
   63SAPC  H10Y 5099   0.871   4.866   4.985  1.2016  0.2163 -0.0718
   63SAPC  C311 5100   0.872   4.987   4.810 -0.6637  0.6466  0.5094
   63SAPC  H11X 5101   0.983   4.980   4.802 -0.8275 -1.8054 -0.6624
   63SAPC  H11Y 5102   0.836   5.085   4.775 -2.1757  0.2469  0.8712
   63SAPC  C312 5103   0.800   4.878   4.722  0.4249 -0.4227 -0.7392
   63SAPC  H12X 5104   0.691   4.894   4.730  0.8348  2.1794  0.5157
   63SAPC  H12Y 5105   0.797   4.775   4.763 -2.2857 -0.7440 -1.5742
   63SAPC  C313 5106   0.836   4.878   4.573 -0.1511 -0.1028 -0.7981
   63SAPC  H13X 5107   0.854   4.981   4.534 -0.3962 -0.7073 -2.6129
   63SAPC  H13Y 5108   0.753   4.844   4.508  0.3773 -0.4594 -1.2947
   63SAPC  C314 5109   0.950   4.778   4.541 -0.4179  0.2110  0.3306
   63SAPC  H14X 5110   0.918   4.672   4.531 -1.0969  0.5750 -2.1627
   63SAPC  H14Y 5111   1.026   4.800   4.618 -1.4396  0.9653  1.1525
   63SAPC  C315 5112   1.025   4.819   4.416 -0.1427  0.6857  0.4139
   63SAPC  H15X 5113   1.087   4.910   4.429 -0.1432  0.6301  0.8148
   63SAPC  H15Y 5114   0.943   4.834   4.342 -2.1317 -0.4709  2.2776
   63SAPC  C316 5115   1.100   4.701   4.349 -0.2075  0.1267 -0.4020
   63SAPC  H16X 5116   1.100   4.607   4.407  0.8323  0.2489 -0.1801
   63SAPC  H16Y 5117   1.208   4.729   4.356  0.0394 -0.7494 -0.5328
   63SAPC  C317 5118   1.060   4.677   4.205 -0.2371  0.5031  0.4163
   63SAPC  H17X 5119   1.061   4.778   4.158  1.5298  0.5665  0.5141
   63SAPC  H17Y 5120   0.956   4.638   4.211 -0.4418  0.9442 -0.1544
   63SAPC  C318 5121   1.148   4.574   4.134 -0.1938  0.1063 -0.7549
   63SAPC  H18X 5122   1.141   4.477   4.188 -2.3084  0.2483 -0.6771
   63SAPC  H18Y 5123   1.252   4.611   4.145 -0.0866  0.0003 -1.4199
   63SAPC  H18Z 5124   1.121   4.559   4.028  1.7047 -2.7410 -0.9305
   64SAPC     N 5125   0.014   1.753   6.300 -0.1534  0.5740  0.7855
   64SAPC   C12 5126  -0.100   1.811   6.383 -0.3857  0.3217  0.1971
   64SAPC  H12A 5127  -0.058   1.859   6.470 -1.6179 -0.9199  1.5374
   64SAPC  H12B 5128  -0.157   1.724   6.412 -1.2339  0.9619  0.4691
   64SAPC   C13 5129   0.078   1.652   6.383 -0.9197  0.7805 -0.0198
   64SAPC  H13A 5130   0.159   1.607   6.327 -1.0608  0.5371 -0.0327
   64SAPC  H13B 5131   0.118   1.703   6.469 -2.1998  3.6910 -1.0239
   64SAPC  H13C 5132   0.033   1.558   6.411  0.7352 -1.2369 -3.4315
   64SAPC   C14 5133  -0.032   1.690   6.166 -0.4412  0.0130  0.1291
   64SAPC  H14A 5134   0.042   1.637   6.109  0.0135  0.6606  0.1128
   64SAPC  H14B 5135  -0.114   1.621   6.182 -0.7535 -0.0597 -1.6618
   64SAPC  H14C 5136  -0.090   1.765   6.116 -1.6905 -0.3807  0.9317
   64SAPC   C15 5137   0.109   1.853   6.259 -0.1425  0.0413 -0.1472
   64SAPC  H15A 5138   0.132   1.923   6.338 -1.6889  1.0867 -0.5708
   64SAPC  H15B 5139   0.203   1.814   6.222  0.4139  1.7312 -0.6209
   64SAPC  H15C 5140   0.065   1.914   6.181  0.7924  0.5250 -0.3201
   64SAPC   C11 5141  -0.203   1.908   6.318 -0.8346  0.3016 -0.4484
   64SAPC  H11A 5142  -0.153   1.997   6.275 -2.2379  0.2494 -2.3144
   64SAPC  H11B 5143  -0.271   1.958   6.391 -0.2586 -0.3390  0.5590
   64SAPC     P 5144  -0.405   1.772   6.229 -0.4235  0.0532  0.1627
   64SAPC   O13 5145  -0.390   1.626   6.209  0.0403 -0.0905 -0.2836
   64SAPC   O14 5146  -0.479   1.821   6.348  0.4100  0.5913  0.2054
   64SAPC   O12 5147  -0.271   1.843   6.211  0.0766 -0.3328 -0.2315
   64SAPC   O11 5148  -0.474   1.823   6.095 -0.0866  0.0311 -0.2546
   64SAPC    C1 5149  -0.484   1.969   6.084  0.1169  0.7357 -0.0445
   64SAPC    HA 5150  -0.513   2.025   6.175 -1.5108  0.7940 -0.5590
   64SAPC    HB 5151  -0.388   2.012   6.049  0.2111  0.2974 -0.3390
   64SAPC    C2 5152  -0.579   1.998   5.963 -0.1470  0.1922 -0.8793
   64SAPC    HS 5153  -0.568   2.105   5.935 -1.5110  0.2761 -1.1808
   64SAPC   O21 5154  -0.715   1.973   5.996  0.2653  0.4444 -0.0931
   64SAPC   C21 5155  -0.809   2.025   5.923  0.1092 -0.1194 -0.8351
   64SAPC   O22 5156  -0.794   2.092   5.821  0.2036  0.0688 -0.1639
   64SAPC   C22 5157  -0.948   1.989   5.980 -0.8628  0.6398 -0.0256
   64SAPC   H2R 5158  -0.945   1.880   6.000 -2.9837  0.3751 -0.9162
   64SAPC   H2S 5159  -0.962   2.041   6.077  0.1204  0.5233  0.1895
   64SAPC    C3 5160  -0.538   1.898   5.847 -0.5710  0.1932 -0.1633
   64SAPC    HX 5161  -0.564   1.794   5.875  1.1498  0.4265  2.6587
   64SAPC    HY 5162  -0.427   1.902   5.843 -0.5060 -1.3351 -0.8951
   64SAPC   O31 5163  -0.586   1.925   5.717  0.6025 -0.1440  0.1148
   64SAPC   C31 5164  -0.545   2.039   5.663 -0.9823 -0.0386 -0.3806
   64SAPC   O32 5165  -0.455   2.113   5.708  0.5995  0.6281 -0.5663
   64SAPC   C32 5166  -0.613   2.061   5.527  0.1294 -0.1186  0.2209
   64SAPC   H2X 5167  -0.713   2.105   5.547  0.7249  0.4650  2.1626
   64SAPC   H2Y 5168  -0.631   1.958   5.491 -2.0265  0.4771 -0.5493
   64SAPC   C23 5169  -1.070   2.020   5.885  0.7073 -0.1328  0.0524
   64SAPC   H3R 5170  -1.051   2.103   5.814 -0.9859 -2.1700 -3.0254
   64SAPC   H3S 5171  -1.152   2.046   5.956  0.6740 -1.9941  0.7512
   64SAPC   C24 5172  -1.104   1.894   5.798  0.2459  0.2405 -0.1875
   64SAPC   H4R 5173  -1.153   1.811   5.854 -0.7565  0.9661  0.0308
   64SAPC   H4S 5174  -1.007   1.852   5.762 -0.8021 -0.3592 -2.5129
   64SAPC   C25 5175  -1.186   1.925   5.674 -0.6745 -0.2625 -0.6596
   64SAPC   H5R 5176  -1.295   1.914   5.676 -0.5880 -1.1702 -0.0409
   64SAPC   C26 5177  -1.145   1.948   5.550 -0.7665 -0.0542  0.0122
   64SAPC   H6R 5178  -1.216   1.969   5.469  1.0975  0.5471 -1.5447
   64SAPC   C27 5179  -1.005   1.937   5.499 -0.3338  0.3524 -0.7394
   64SAPC   H7R 5180  -0.995   1.858   5.421 -2.0373 -0.5130 -0.1172
   64SAPC   H7S 5181  -0.927   1.908   5.573 -1.7654  0.3036  0.8044
   64SAPC   C28 5182  -0.975   2.074   5.444 -0.5250  0.0552  0.4563
   64SAPC   H8R 5183  -0.983   2.157   5.516  1.9259  0.4004  0.4151
   64SAPC   C29 5184  -0.939   2.100   5.316  0.4431  0.3582  0.0138
   64SAPC   H9R 5185  -0.933   2.206   5.289 -0.2122  0.0719 -1.3821
   64SAPC  C210 5186  -0.942   2.010   5.190  0.3949 -0.0590 -0.3835
   64SAPC  H10R 5187  -0.949   2.071   5.098  1.4595  1.0599  0.2533
   64SAPC  H10S 5188  -1.037   1.953   5.193  1.6353 -2.2376  2.5078
   64SAPC  C211 5189  -0.829   1.913   5.179  0.3614  0.0899 -0.8076
   64SAPC  H11R 5190  -0.811   1.865   5.276 -1.1683  0.1603 -0.4733
   64SAPC  C212 5191  -0.771   1.865   5.065  0.1208  0.4403  0.0768
   64SAPC  H12R 5192  -0.686   1.796   5.082 -0.5272 -0.7445 -1.3022
   64SAPC  C213 5193  -0.782   1.916   4.925 -0.1510  1.1378 -0.3169
   64SAPC  H13R 5194  -0.686   1.892   4.873  0.3149  0.3100  0.8581
   64SAPC  H13S 5195  -0.778   2.027   4.923  0.7714  1.2007  1.9355
   64SAPC  C214 5196  -0.905   1.867   4.861 -0.0279  0.2531  0.6691
   64SAPC  H14R 5197  -0.996   1.925   4.883 -0.1839 -0.1179  1.0254
   64SAPC  C215 5198  -0.926   1.756   4.783 -0.3572 -0.6562 -0.3893
   64SAPC  H15R 5199  -1.024   1.745   4.733 -1.2278  1.8066  0.6055
   64SAPC  C216 5200  -0.831   1.655   4.737 -0.4220  0.5435 -0.2559
   64SAPC  H16R 5201  -0.848   1.558   4.787 -0.5170  0.1601 -1.0066
   64SAPC  H16S 5202  -0.726   1.685   4.756 -0.3901  1.7809 -2.0824
   64SAPC  C217 5203  -0.845   1.639   4.583  0.4037  0.2761 -0.7456
   64SAPC  H17R 5204  -0.797   1.729   4.538  0.8127 -0.2994 -1.4896
   64SAPC  H17S 5205  -0.949   1.633   4.544  0.2397 -0.2549 -0.2420
   64SAPC  C218 5206  -0.783   1.511   4.520  0.2065 -0.2058 -0.2691
   64SAPC  H18R 5207  -0.673   1.515   4.535  0.5137 -2.2137 -1.5589
   64SAPC  H18S 5208  -0.795   1.525   4.410  0.6235  2.1621 -0.0542
   64SAPC  C219 5209  -0.850   1.377   4.563 -0.2318 -0.0301 -0.1104
   64SAPC  H19R 5210  -0.838   1.358   4.672 -2.7059  4.0758  1.1305
   64SAPC  H19S 5211  -0.797   1.303   4.499  0.4040 -0.4632  0.9003
   64SAPC  C220 5212  -0.995   1.363   4.526 -0.3832  0.1405 -0.4899
   64SAPC  H20R 5213  -1.025   1.257   4.545 -1.7366  0.2556 -1.7675
   64SAPC  H20S 5214  -1.016   1.385   4.419 -0.3754  2.4595 -0.0714
   64SAPC  H20T 5215  -1.059   1.432   4.586  1.4805  1.7939 -0.3310
   64SAPC   C33 5216  -0.536   2.150   5.428  0.1494 -0.0022 -0.2646
   64SAPC   H3X 5217  -0.428   2.126   5.428 -0.0916 -1.1758  0.2841
   64SAPC   H3Y 5218  -0.541   2.257   5.458  0.3709  0.4686 -1.7816
   64SAPC   C34 5219  -0.583   2.133   5.282  0.4282  0.0058 -0.2703
   64SAPC   H4X 5220  -0.686   2.166   5.258  0.5419  1.5690  1.1449
   64SAPC   H4Y 5221  -0.590   2.023   5.267 -2.3191  0.0807 -0.0315
   64SAPC   C35 5222  -0.493   2.185   5.180  0.2886 -0.0873  1.4760
   64SAPC   H5X 5223  -0.389   2.148   5.191  0.7237  1.3377  2.4355
   64SAPC   H5Y 5224  -0.489   2.295   5.198 -0.4102 -0.0863  1.6623
   64SAPC   C36 5225  -0.534   2.143   5.038 -0.2380  0.2370  0.7869
   64SAPC   H6X 5226  -0.637   2.184   5.027  0.7934  2.4109 -2.4298
   64SAPC   H6Y 5227  -0.543   2.033   5.030  0.7083  0.2384 -0.9404
   64SAPC   C37 5228  -0.453   2.221   4.934 -0.2590  0.6937  0.2505
   64SAPC   H7X 5229  -0.344   2.210   4.955 -0.7855  1.0275  3.6239
   64SAPC   H7Y 5230  -0.475   2.330   4.927 -0.7246  0.5059 -1.7871
   64SAPC   C38 5231  -0.473   2.169   4.796 -1.0738  0.1083 -0.1842
   64SAPC   H8X 5232  -0.582   2.174   4.775 -1.2248  3.1265  0.8478
   64SAPC   H8Y 5233  -0.442   2.062   4.793 -0.1981  0.2167  2.4242
   64SAPC   C39 5234  -0.396   2.247   4.692 -0.7458 -0.5796 -0.1277
   64SAPC   H9X 5235  -0.383   2.350   4.732  1.9279 -0.8818 -0.0452
   64SAPC   H9Y 5236  -0.459   2.265   4.602  0.6290  1.4958 -0.7536
   64SAPC  C310 5237  -0.262   2.176   4.658  0.2731 -0.3820 -0.2080
   64SAPC  H10X 5238  -0.278   2.067   4.647  1.4402 -0.5323 -0.4741
   64SAPC  H10Y 5239  -0.187   2.191   4.739  0.7515  2.5362 -1.0659
   64SAPC  C311 5240  -0.192   2.234   4.533  0.0018  0.1256  0.1280
   64SAPC  H11X 5241  -0.193   2.343   4.554 -0.6259 -0.1271  1.4965
   64SAPC  H11Y 5242  -0.237   2.211   4.434  0.5770 -0.8230  0.0734
   64SAPC  C312 5243  -0.047   2.175   4.528 -0.6325 -0.0831  0.3071
   64SAPC  H12X 5244  -0.012   2.150   4.630  3.7656  0.0257 -0.9293
   64SAPC  H12Y 5245   0.020   2.254   4.486 -0.5414  0.6102  1.7067
   64SAPC  C313 5246  -0.025   2.044   4.445  0.3592 -0.3736 -0.1796
   64SAPC  H13X 5247  -0.058   2.042   4.339 -0.7661  0.3053  0.1490
   64SAPC  H13Y 5248  -0.086   1.969   4.500  0.1583  0.8786  1.3880
   64SAPC  C314 5249   0.116   1.997   4.452  0.1747  0.5530 -0.3561
   64SAPC  H14X 5250   0.125   1.895   4.408  0.9112 -0.9707  2.9642
   64SAPC  H14Y 5251   0.136   1.992   4.561 -2.1558  3.1900  0.3012
   64SAPC  C315 5252   0.217   2.087   4.386  0.3748  0.5012 -0.2301
   64SAPC  H15X 5253   0.316   2.082   4.436  0.0627 -0.4119  0.3284
   64SAPC  H15Y 5254   0.188   2.194   4.393 -1.4369 -0.0423  1.3497
   64SAPC  C316 5255   0.254   2.039   4.248 -0.2879  0.2864 -0.1553
   64SAPC  H16X 5256   0.173   2.030   4.172  1.1770  0.0471 -1.7574
   64SAPC  H16Y 5257   0.309   1.944   4.268  1.2937  1.6582  2.5256
   64SAPC  C317 5258   0.349   2.124   4.172 -0.4169 -0.3456  0.7585
   64SAPC  H17X 5259   0.445   2.130   4.228  0.3108 -0.0233 -0.4873
   64SAPC  H17Y 5260   0.311   2.229   4.170  2.0613  0.6598  1.9111
   64SAPC  C318 5261   0.371   2.080   4.029 -0.5422 -0.2207 -0.1212
   64SAPC  H18X 5262   0.418   2.169   3.983  0.9504 -0.6658  0.4926
   64SAPC  H18Y 5263   0.284   2.052   3.965 -0.1088 -0.5653 -0.5777
   64SAPC  H18Z 5264   0.442   1.995   4.020 -1.3692 -1.3836  3.1486
   65SAPC     N 5265   2.054   4.491   2.077 -0.5312 -0.0293 -0.1716
   65SAPC   C12 5266   2.047   4.506   2.227 -0.1004  0.0853 -0.2427
   65SAPC  H12A 5267   1.955   4.554   2.257 -0.3026 -0.6425  0.3246
   65SAPC  H12B 5268   2.125   4.576   2.255  0.9621 -0.2163 -2.2605
   65SAPC   C13 5269   2.185   4.431   2.030  0.2649 -0.1078  0.5927
   65SAPC  H13A 5270   2.219   4.358   2.102  2.3966 -1.2160 -1.4326
   65SAPC  H13B 5271   2.187   4.384   1.933 -0.5114 -0.5585  0.7848
   65SAPC  H13C 5272   2.259   4.509   2.022 -1.2976  1.5223  1.0485
   65SAPC   C14 5273   1.948   4.397   2.031  0.2352  0.2932  0.5862
   65SAPC  H14A 5274   1.955   4.302   2.082 -1.2092 -0.9962 -1.4473
   65SAPC  H14B 5275   1.850   4.437   2.052  0.1956  0.5304 -0.0168
   65SAPC  H14C 5276   1.959   4.383   1.924  0.7767 -2.7241  0.9473
   65SAPC   C15 5277   2.037   4.622   2.012  0.4766 -0.1497  0.6457
   65SAPC  H15A 5278   1.950   4.677   2.044  1.0516  0.6422  0.8784
   65SAPC  H15B 5279   2.123   4.687   2.015 -0.6860  1.3961  1.4465
   65SAPC  H15C 5280   2.012   4.610   1.907  0.3023 -0.7880  0.7527
   65SAPC   C11 5281   2.077   4.376   2.310  0.4058 -0.3661 -0.4299
   65SAPC  H11A 5282   2.080   4.410   2.416 -1.2234  0.1343 -0.5306
   65SAPC  H11B 5283   2.177   4.330   2.292 -0.6022 -1.6403 -3.3988
   65SAPC     P 5284   1.994   4.120   2.275  0.2115  0.6295  0.2967
   65SAPC   O13 5285   1.884   4.042   2.336  0.4286 -0.3379  0.0327
   65SAPC   O14 5286   2.024   4.085   2.134  0.0361  0.2561 -0.6190
   65SAPC   O12 5287   1.970   4.283   2.286 -0.3088  0.2326 -0.4224
   65SAPC   O11 5288   2.129   4.092   2.355 -0.1384  0.0155  0.1557
   65SAPC    C1 5289   2.121   4.094   2.504 -0.1527  0.4027 -0.2022
   65SAPC    HA 5290   2.216   4.124   2.554  1.6463 -2.3377 -1.7586
   65SAPC    HB 5291   2.041   4.163   2.538  0.1550  0.1862  1.0012
   65SAPC    C2 5292   2.077   3.953   2.570 -0.0468 -0.3172  0.1456
   65SAPC    HS 5293   1.967   3.945   2.560  0.0175 -0.7444 -0.2099
   65SAPC   O21 5294   2.117   3.933   2.705 -0.2927 -0.0557 -0.7707
   65SAPC   C21 5295   2.049   4.010   2.788  0.1042  0.2348  0.5758
   65SAPC   O22 5296   1.952   4.081   2.759  0.6491 -0.0817  0.0853
   65SAPC   C22 5297   2.113   3.993   2.930  0.3995 -0.3432 -0.1366
   65SAPC   H2R 5298   2.085   3.891   2.964  1.1714  0.0211  1.7149
   65SAPC   H2S 5299   2.220   4.015   2.912  0.4156 -2.2438 -3.2644
   65SAPC    C3 5300   2.120   3.825   2.482 -0.5215  0.9140  0.3634
   65SAPC    HX 5301   2.231   3.825   2.481 -0.5094 -0.6786  0.0908
   65SAPC    HY 5302   2.094   3.836   2.375 -2.4896  2.7632  0.9560
   65SAPC   O31 5303   2.077   3.700   2.543  0.6265 -0.3437 -0.1922
   65SAPC   C31 5304   2.158   3.608   2.566 -0.6990  0.2956  0.0806
   65SAPC   O32 5305   2.276   3.608   2.535 -0.1271  0.0931 -0.1189
   65SAPC   C32 5306   2.086   3.491   2.645 -0.1670 -0.3743 -0.1693
   65SAPC   H2X 5307   2.013   3.454   2.570 -1.6664  2.0767 -0.0418
   65SAPC   H2Y 5308   2.030   3.532   2.731  1.5068  0.7825  0.4152
   65SAPC   C23 5309   2.042   4.091   3.026 -0.6597  0.6611 -0.1247
   65SAPC   H3R 5310   1.944   4.054   3.063  0.2255 -1.7327 -0.0244
   65SAPC   H3S 5311   2.019   4.190   2.980  2.3108  0.8233 -1.5308
   65SAPC   C24 5312   2.116   4.125   3.160  0.1612 -0.2309  0.2834
   65SAPC   H4R 5313   2.075   4.211   3.218  2.2500  0.3748  0.9634
   65SAPC   H4S 5314   2.213   4.163   3.122  0.1827  0.4910  1.0266
   65SAPC   C25 5315   2.153   4.013   3.253 -0.0217  0.4079  0.2937
   65SAPC   H5R 5316   2.155   3.918   3.197 -0.1074  0.3851  0.3282
   65SAPC   C26 5317   2.142   4.023   3.387 -0.7179  0.7685  0.5093
   65SAPC   H6R 5318   2.158   3.930   3.443 -0.2321  0.4023 -0.2190
   65SAPC   C27 5319   2.107   4.141   3.468  0.0736 -0.0879 -0.5035
   65SAPC   H7R 5320   2.004   4.138   3.509  0.7100  2.5741  1.5307
   65SAPC   H7S 5321   2.111   4.237   3.413 -4.0957  1.2463  1.1443
   65SAPC   C28 5322   2.209   4.135   3.580  0.0270  0.2294  0.9783
   65SAPC   H8R 5323   2.312   4.165   3.555  0.5755 -1.7767  0.6795
   65SAPC   C29 5324   2.191   4.091   3.703  0.9022  0.0984 -0.0116
   65SAPC   H9R 5325   2.278   4.102   3.770  0.7567  3.2415 -0.1622
   65SAPC  C210 5326   2.068   4.031   3.767  0.0771 -0.1051 -0.0855
   65SAPC  H10R 5327   2.011   3.991   3.681  1.6648  0.1630 -1.3096
   65SAPC  H10S 5328   2.007   4.105   3.824  1.5899 -0.4921  2.1353
   65SAPC  C211 5329   2.085   3.912   3.855  0.4620  0.4941 -0.2067
   65SAPC  H11R 5330   2.078   3.817   3.799  1.5177 -0.4130  1.1351
   65SAPC  C212 5331   2.134   3.912   3.985  0.1227 -0.1394  0.4012
   65SAPC  H12R 5332   2.136   3.816   4.040  2.1865  1.0417  2.5679
   65SAPC  C213 5333   2.160   4.031   4.070  0.3811  0.3692 -0.1989
   65SAPC  H13R 5334   2.139   4.126   4.017  1.3813  0.5796 -0.2345
   65SAPC  H13S 5335   2.269   4.032   4.089 -0.0047  1.7757  2.3717
   65SAPC  C214 5336   2.089   4.036   4.207  0.6120  0.0322  0.0849
   65SAPC  H14R 5337   1.982   4.013   4.206  0.7305 -0.6459 -1.5852
   65SAPC  C215 5338   2.147   4.082   4.323  0.1454 -0.4394  0.1580
   65SAPC  H15R 5339   2.079   4.088   4.409 -1.9921 -0.9956 -1.4246
   65SAPC  C216 5340   2.284   4.133   4.343 -0.1226 -0.3327  0.1077
   65SAPC  H16R 5341   2.280   4.232   4.393  1.6692  0.2841 -0.8846
   65SAPC  H16S 5342   2.341   4.160   4.252  0.8994  1.5605  1.2415
   65SAPC  C217 5343   2.384   4.052   4.427 -0.0543  0.0603 -0.5878
   65SAPC  H17R 5344   2.352   4.029   4.531 -0.5597  0.0377 -0.7444
   65SAPC  H17S 5345   2.476   4.114   4.430 -0.0872  0.1979 -1.7646
   65SAPC  C218 5346   2.396   3.915   4.352 -0.5631 -1.0019 -0.1570
   65SAPC  H18R 5347   2.407   3.933   4.243 -0.2632  0.7407  0.1370
   65SAPC  H18S 5348   2.303   3.861   4.380 -1.0370 -2.3288 -3.7716
   65SAPC  C219 5349   2.507   3.810   4.398  0.8658  0.3084 -0.2746
   65SAPC  H19R 5350   2.611   3.846   4.381  0.8909 -0.2655 -1.4482
   65SAPC  H19S 5351   2.488   3.721   4.334 -0.0992 -0.0286  0.4586
   65SAPC  C220 5352   2.479   3.765   4.540  0.1829 -0.5275  0.0076
   65SAPC  H20R 5353   2.525   3.669   4.571 -0.0760 -0.3385  1.0146
   65SAPC  H20S 5354   2.368   3.759   4.549 -0.0901 -1.7488 -2.9611
   65SAPC  H20T 5355   2.514   3.840   4.614 -1.6012  0.0405  0.3290
   65SAPC   C33 5356   2.181   3.383   2.700 -0.0408  0.0517  0.0139
   65SAPC   H3X 5357   2.234   3.335   2.615  0.1398  0.6546 -0.2139
   65SAPC   H3Y 5358   2.114   3.309   2.749 -0.4695  0.0768 -0.5320
   65SAPC   C34 5359   2.293   3.418   2.801  0.0820 -0.0335  0.1750
   65SAPC   H4X 5360   2.357   3.496   2.755 -1.2716  0.9760 -0.0373
   65SAPC   H4Y 5361   2.358   3.329   2.818 -0.4874 -0.3004  1.0177
   65SAPC   C35 5362   2.232   3.464   2.934 -0.5706  0.2298  0.4774
   65SAPC   H5X 5363   2.174   3.380   2.978 -0.1250  0.0409  0.7081
   65SAPC   H5Y 5364   2.165   3.552   2.931 -0.9429 -0.0514  0.4194
   65SAPC   C36 5365   2.334   3.502   3.043  0.3789  0.5642  0.3994
   65SAPC   H6X 5366   2.383   3.595   3.009  0.3457  0.2723 -0.4836
   65SAPC   H6Y 5367   2.410   3.423   3.061  0.7921  0.8536 -0.0372
   65SAPC   C37 5368   2.257   3.519   3.178 -0.8240 -0.6475  0.7394
   65SAPC   H7X 5369   2.187   3.434   3.196 -0.8306 -1.2939 -1.9497
   65SAPC   H7Y 5370   2.205   3.617   3.171 -0.5481 -0.3443  2.4617
   65SAPC   C38 5371   2.351   3.524   3.298  0.1679  0.8732  0.0505
   65SAPC   H8X 5372   2.422   3.609   3.283 -1.6182  2.1932 -1.5418
   65SAPC   H8Y 5373   2.414   3.434   3.304  0.8832  0.9870 -3.6688
   65SAPC   C39 5374   2.262   3.540   3.416  0.0706  0.1944 -0.5065
   65SAPC   H9X 5375   2.204   3.447   3.434  2.1391 -0.9038  0.9232
   65SAPC   H9Y 5376   2.190   3.620   3.389 -0.2322 -0.0887 -0.5401
   65SAPC  C310 5377   2.330   3.562   3.547  0.3539 -0.4335  0.4486
   65SAPC  H10X 5378   2.387   3.657   3.554 -1.1670  0.7300 -1.7617
   65SAPC  H10Y 5379   2.391   3.470   3.558 -0.3607 -0.9299  0.3660
   65SAPC  C311 5380   2.228   3.573   3.668 -0.3239 -0.6595 -0.2225
   65SAPC  H11X 5381   2.158   3.487   3.664 -0.0946 -0.8274 -0.6993
   65SAPC  H11Y 5382   2.163   3.659   3.641  0.6225  0.4246  0.8570
   65SAPC  C312 5383   2.301   3.591   3.803 -0.0501  0.4477 -0.0560
   65SAPC  H12X 5384   2.326   3.697   3.827 -1.3451  0.7905 -0.1373
   65SAPC  H12Y 5385   2.392   3.528   3.808 -0.5255 -0.2237  0.3224
   65SAPC  C313 5386   2.203   3.540   3.928  0.6359  0.5266 -0.7225
   65SAPC  H13X 5387   2.187   3.433   3.902  0.2073  0.1098  1.1139
   65SAPC  H13Y 5388   2.110   3.600   3.915  0.4090 -0.1642 -2.6653
   65SAPC  C314 5389   2.273   3.550   4.062 -0.2506  0.4286  0.1964
   65SAPC  H14X 5390   2.316   3.651   4.077  4.4446 -1.3283  0.3895
   65SAPC  H14Y 5391   2.359   3.479   4.064 -1.1440 -0.8007 -1.7829
   65SAPC  C315 5392   2.182   3.510   4.175  0.2343  0.9011  0.4049
   65SAPC  H15X 5393   2.137   3.412   4.150  1.2300  0.0620  1.7374
   65SAPC  H15Y 5394   2.099   3.583   4.166 -2.9801 -2.5716 -0.5118
   65SAPC  C316 5395   2.236   3.506   4.319 -0.2079 -0.0587 -0.6104
   65SAPC  H16X 5396   2.247   3.615   4.338 -1.5180 -0.0107  0.0439
   65SAPC  H16Y 5397   2.331   3.449   4.318 -0.6539 -0.8789  0.6470
   65SAPC  C317 5398   2.146   3.437   4.417  0.3908  0.4953  0.0432
   65SAPC  H17X 5399   2.050   3.494   4.414  1.1108  1.7445 -3.3359
   65SAPC  H17Y 5400   2.182   3.458   4.520  0.3241  0.0083  0.1671
   65SAPC  C318 5401   2.108   3.285   4.408 -0.0978 -0.5980 -0.2117
   65SAPC  H18X 5402   2.039   3.270   4.323 -1.0508 -0.7317  0.5628
   65SAPC  H18Y 5403   2.054   3.240   4.494 -0.8215  0.4342 -0.1017
   65SAPC  H18Z 5404   2.198   3.225   4.384  0.4289  0.3735 -0.7016
   66SAPC     N 5405   3.918   6.412   1.945 -0.6069  0.1766  0.0884
   66SAPC   C12 5406   4.045   6.448   2.035  0.3304  0.2839  0.2642
   66SAPC  H12A 5407   4.065   6.368   2.105  0.2170  0.5609  0.6167
   66SAPC  H12B 5408   4.016   6.533   2.096 -0.4096  1.1749 -1.2688
   66SAPC   C13 5409   3.941   6.290   1.861  0.0557 -0.3163  0.1370
   66SAPC  H13A 5410   4.016   6.301   1.784  0.9997 -1.2444  0.8899
   66SAPC  H13B 5411   3.973   6.209   1.926 -2.9056  0.3352  2.6659
   66SAPC  H13C 5412   3.850   6.248   1.820  0.2519  0.2200 -0.8707
   66SAPC   C14 5413   3.791   6.407   2.031  0.9435 -0.2719 -0.0924
   66SAPC  H14A 5414   3.781   6.507   2.070  0.3519 -0.7212  0.9557
   66SAPC  H14B 5415   3.699   6.376   1.985 -0.6192 -1.2641  3.3858
   66SAPC  H14C 5416   3.798   6.340   2.116  0.0601 -1.0884 -0.6444
   66SAPC   C15 5417   3.901   6.524   1.847  0.7068  0.2227 -0.3015
   66SAPC  H15A 5418   3.939   6.621   1.877  1.2797 -0.1883  0.3254
   66SAPC  H15B 5419   3.952   6.494   1.756 -1.7489  0.0498 -1.7203
   66SAPC  H15C 5420   3.799   6.524   1.812  1.3905  0.2701 -2.4449
   66SAPC   C11 5421   4.178   6.492   1.964 -0.6684  0.2094  0.4864
   66SAPC  H11A 5422   4.258   6.518   2.037 -0.9998 -0.3468  1.0609
   66SAPC  H11B 5423   4.151   6.592   1.924 -0.7285 -0.8041 -2.1395
   66SAPC     P 5424   4.306   6.281   1.899  0.0996 -0.0946 -0.4654
   66SAPC   O13 5425   4.208   6.168   1.913 -0.5416 -0.4124  0.4106
   66SAPC   O14 5426   4.413   6.253   1.806 -0.3254  0.2989  0.4267
   66SAPC   O12 5427   4.234   6.416   1.857 -0.4276  0.0535 -0.1547
   66SAPC   O11 5428   4.371   6.318   2.038 -0.8074  0.2747 -0.3893
   66SAPC    C1 5429   4.413   6.213   2.126 -0.7394  0.1377 -0.5123
   66SAPC    HA 5430   4.347   6.124   2.117  1.3702 -1.6804  0.9912
   66SAPC    HB 5431   4.517   6.176   2.119 -1.2179 -1.2551 -0.4395
   66SAPC    C2 5432   4.391   6.261   2.273 -0.3653  0.0789  0.0705
   66SAPC    HS 5433   4.287   6.299   2.274 -0.1022  0.8259  0.1639
   66SAPC   O21 5434   4.487   6.364   2.306 -0.3457 -0.3533 -0.3906
   66SAPC   C21 5435   4.452   6.484   2.330 -0.5682  0.2997  0.4648
   66SAPC   O22 5436   4.338   6.529   2.318  0.0679 -0.4359 -0.6402
   66SAPC   C22 5437   4.571   6.566   2.384  0.2292 -0.5375  0.3948
   66SAPC   H2R 5438   4.659   6.500   2.397 -0.3493 -0.9549  2.5172
   66SAPC   H2S 5439   4.587   6.638   2.301  2.2312 -0.2843  0.9567
   66SAPC    C3 5440   4.398   6.155   2.377  0.0416  0.1187 -0.1951
   66SAPC    HX 5441   4.504   6.121   2.375  0.6886  2.0726 -2.0323
   66SAPC    HY 5442   4.340   6.065   2.346  0.4365 -0.0926 -0.3453
   66SAPC   O31 5443   4.371   6.196   2.516 -0.1367  0.3440 -0.0451
   66SAPC   C31 5444   4.247   6.196   2.553 -0.2929  0.9286  0.3694
   66SAPC   O32 5445   4.148   6.168   2.482  0.2810  0.0256  0.3818
   66SAPC   C32 5446   4.238   6.233   2.698  0.9581 -0.7255  0.4593
   66SAPC   H2X 5447   4.271   6.338   2.714  0.9078 -0.4558 -1.0964
   66SAPC   H2Y 5448   4.306   6.168   2.758  0.9439 -2.2302 -1.1038
   66SAPC   C23 5449   4.541   6.638   2.507  0.2451  0.5311  0.0100
   66SAPC   H3R 5450   4.455   6.709   2.501  0.2615  0.6923  1.4076
   66SAPC   H3S 5451   4.620   6.703   2.549  0.2948 -1.0380  2.5666
   66SAPC   C24 5452   4.524   6.537   2.623 -0.3841  0.1272 -0.3053
   66SAPC   H4R 5453   4.630   6.515   2.645 -0.4732  0.6345  0.6750
   66SAPC   H4S 5454   4.461   6.448   2.600 -1.2916 -0.0449  2.4990
   66SAPC   C25 5455   4.479   6.612   2.744  0.3765  0.2132  0.2178
   66SAPC   H5R 5456   4.449   6.718   2.747  1.9773  0.6772  2.3894
   66SAPC   C26 5457   4.494   6.564   2.869  0.4688  0.8310 -0.1051
   66SAPC   H6R 5458   4.452   6.632   2.946 -2.5749 -0.2880 -0.6296
   66SAPC   C27 5459   4.553   6.431   2.924 -0.1958 -0.3927  0.2556
   66SAPC   H7R 5460   4.626   6.461   3.002 -0.6568  2.6166 -0.3799
   66SAPC   H7S 5461   4.605   6.378   2.841 -0.7007  0.0172 -0.3325
   66SAPC   C28 5462   4.465   6.324   2.983 -0.4661  0.1625 -0.1308
   66SAPC   H8R 5463   4.437   6.244   2.912 -2.3002  1.8081 -1.3750
   66SAPC   C29 5464   4.411   6.324   3.106 -0.3064  0.2530 -0.4544
   66SAPC   H9R 5465   4.367   6.232   3.148  0.0715  0.2478 -0.0629
   66SAPC  C210 5466   4.429   6.436   3.203  0.0237  0.5848  0.0496
   66SAPC  H10R 5467   4.484   6.521   3.158  1.0499  0.8605  1.7195
   66SAPC  H10S 5468   4.497   6.399   3.282 -0.4874 -0.9649 -0.2079
   66SAPC  C211 5469   4.306   6.486   3.269 -0.2047 -0.0623 -0.9962
   66SAPC  H11R 5470   4.216   6.466   3.208 -0.1434  0.1483 -1.1585
   66SAPC  C212 5471   4.296   6.539   3.393 -0.5473  0.2660  0.8133
   66SAPC  H12R 5472   4.199   6.560   3.442 -2.5906  1.2962 -3.2385
   66SAPC  C213 5473   4.418   6.560   3.472 -0.4205 -0.3309  0.5055
   66SAPC  H13R 5474   4.409   6.662   3.514 -1.2038 -0.1834  0.0020
   66SAPC  H13S 5475   4.511   6.576   3.415  0.4369 -2.3935  1.2317
   66SAPC  C214 5476   4.444   6.464   3.587 -0.1987 -0.7966  0.7816
   66SAPC  H14R 5477   4.363   6.467   3.661 -2.6036 -2.6938 -1.6126
   66SAPC  C215 5478   4.546   6.378   3.598  0.6612  0.4101  0.1315
   66SAPC  H15R 5479   4.560   6.333   3.698 -1.9109  0.1448  0.4427
   66SAPC  C216 5480   4.664   6.361   3.507  0.2823  0.2011 -0.2213
   66SAPC  H16R 5481   4.659   6.387   3.399  0.3565  2.9991  0.3880
   66SAPC  H16S 5482   4.694   6.254   3.506  2.1403  0.6681  1.0277
   66SAPC  C217 5483   4.786   6.440   3.551 -0.1945 -0.1340 -0.1369
   66SAPC  H17R 5484   4.756   6.547   3.547 -0.9193 -0.3592 -1.2106
   66SAPC  H17S 5485   4.864   6.437   3.472 -0.2897  2.7979 -0.4758
   66SAPC  C218 5486   4.853   6.402   3.680  0.2727  0.2272  0.2053
   66SAPC  H18R 5487   4.874   6.294   3.693  1.4909  0.4199  0.0025
   66SAPC  H18S 5488   4.788   6.433   3.765 -0.0907 -1.4958  0.5935
   66SAPC  C219 5489   4.980   6.488   3.696  0.6436 -0.3479 -0.3466
   66SAPC  H19R 5490   4.939   6.591   3.698  0.3855 -0.4081 -1.7623
   66SAPC  H19S 5491   5.038   6.493   3.601 -1.7137 -0.6063 -1.8819
   66SAPC  C220 5492   5.050   6.449   3.822 -0.7208  0.3606 -0.0330
   66SAPC  H20R 5493   5.120   6.528   3.855  1.4269 -1.4782  0.0499
   66SAPC  H20S 5494   5.110   6.355   3.822 -1.7158 -0.3799  2.5721
   66SAPC  H20T 5495   4.980   6.439   3.908 -1.4251  1.3828 -0.4725
   66SAPC   C33 5496   4.094   6.218   2.754  0.7451  0.2407  0.1742
   66SAPC   H3X 5497   4.040   6.125   2.726  0.3518  0.1189  1.2752
   66SAPC   H3Y 5498   4.030   6.295   2.706 -0.5947 -0.8308  0.1737
   66SAPC   C34 5499   4.103   6.221   2.911 -0.3352 -0.2364 -0.2654
   66SAPC   H4X 5500   4.125   6.318   2.961 -2.1050 -0.1091  0.3445
   66SAPC   H4Y 5501   4.191   6.164   2.950  0.5632  0.4825 -1.1899
   66SAPC   C35 5502   3.975   6.161   2.966  0.2402 -0.2967 -0.3858
   66SAPC   H5X 5503   3.947   6.062   2.925  1.7182  0.7586 -4.3165
   66SAPC   H5Y 5504   3.898   6.231   2.927  1.7697 -0.2992 -3.7252
   66SAPC   C36 5505   3.976   6.162   3.119  0.2927  0.4066 -0.2969
   66SAPC   H6X 5506   3.879   6.133   3.165 -0.5130  0.5897 -1.8009
   66SAPC   H6Y 5507   3.990   6.268   3.150  1.1481 -0.1592  1.3546
   66SAPC   C37 5508   4.079   6.067   3.183  1.0125 -0.5880  0.4513
   66SAPC   H7X 5509   4.181   6.099   3.150  1.1633 -1.0017  0.5163
   66SAPC   H7Y 5510   4.059   5.968   3.138 -0.8831  0.5886 -1.5022
   66SAPC   C38 5511   4.065   6.050   3.336 -0.3407 -0.2010  0.0067
   66SAPC   H8X 5512   4.153   5.985   3.354 -0.0543  0.1981  0.0603
   66SAPC   H8Y 5513   3.976   5.990   3.367 -2.2410  1.8010 -1.2598
   66SAPC   C39 5514   4.064   6.179   3.417  0.6408  1.0179 -0.4057
   66SAPC   H9X 5515   3.969   6.236   3.411 -0.0628  0.1661  1.6046
   66SAPC   H9Y 5516   4.151   6.241   3.390  0.8951  0.8599  0.0304
   66SAPC  C310 5517   4.097   6.145   3.568 -0.0170  0.0700  0.1056
   66SAPC  H10X 5518   4.189   6.084   3.573  0.4376  0.5163 -1.8819
   66SAPC  H10Y 5519   4.013   6.088   3.613  2.0433 -1.7180  1.8956
   66SAPC  C311 5520   4.104   6.273   3.650  0.2117 -0.1001  0.6681
   66SAPC  H11X 5521   4.008   6.328   3.639 -0.0354 -0.3773  1.3939
   66SAPC  H11Y 5522   4.180   6.339   3.603  0.5569 -0.4504  0.7283
   66SAPC  C312 5523   4.150   6.250   3.794 -0.0959 -0.0503 -0.5415
   66SAPC  H12X 5524   4.083   6.189   3.858 -0.1500  1.8125  1.2948
   66SAPC  H12Y 5525   4.164   6.349   3.844  2.1858  0.7092 -2.4700
   66SAPC  C313 5526   4.286   6.178   3.794  0.2019  0.6012  0.5516
   66SAPC  H13X 5527   4.347   6.230   3.717  0.8901 -0.2518  0.5131
   66SAPC  H13Y 5528   4.280   6.075   3.754  0.8443  0.7797 -0.0192
   66SAPC  C314 5529   4.369   6.183   3.924 -0.1431  0.8584 -0.7820
   66SAPC  H14X 5530   4.321   6.124   4.005  0.5953 -1.5078 -1.9667
   66SAPC  H14Y 5531   4.382   6.291   3.945  4.5483  0.5861 -1.1350
   66SAPC  C315 5532   4.503   6.119   3.903  0.1299 -0.0580 -0.0640
   66SAPC  H15X 5533   4.557   6.129   3.807  2.7576  2.3162  1.4996
   66SAPC  H15Y 5534   4.489   6.009   3.911  1.2981 -0.3161 -1.2859
   66SAPC  C316 5535   4.615   6.168   4.000 -0.2890  0.1589  0.1530
   66SAPC  H16X 5536   4.587   6.164   4.107  3.9810 -0.7498  1.4448
   66SAPC  H16Y 5537   4.633   6.277   3.985  1.9144  0.2026  2.4849
   66SAPC  C317 5538   4.754   6.103   3.982  0.2557 -0.2908  0.3167
   66SAPC  H17X 5539   4.785   6.108   3.875 -0.2160 -0.6799  0.1566
   66SAPC  H17Y 5540   4.747   5.993   3.999  0.0995 -0.1600  1.1173
   66SAPC  C318 5541   4.855   6.176   4.067  0.6063 -0.6844  0.6440
   66SAPC  H18X 5542   4.955   6.128   4.064  1.5656  1.0431  2.8278
   66SAPC  H18Y 5543   4.825   6.180   4.174  0.9319  2.4621  0.7074
   66SAPC  H18Z 5544   4.872   6.282   4.041 -0.8356 -0.7751 -0.8651
   67SAPC     N 5545   2.981   0.133   1.883 -0.1222 -0.4520 -0.4972
   67SAPC   C12 5546   2.939   0.001   1.816 -0.3614 -0.4612  0.4867
   67SAPC  H12A 5547   2.930  -0.063   1.903  3.0701 -1.0645  0.5105
   67SAPC  H12B 5548   3.027  -0.037   1.767 -0.7477 -0.3639 -0.2958
   67SAPC   C13 5549   3.025   0.226   1.779  0.9926 -0.0372  0.4274
   67SAPC  H13A 5550   3.073   0.312   1.824  0.2881  1.2548 -1.1859
   67SAPC  H13B 5551   3.098   0.175   1.718  1.1604 -2.0769  2.2030
   67SAPC  H13C 5552   2.939   0.254   1.719  0.7075  1.4729  1.4886
   67SAPC   C14 5553   2.881   0.196   1.975 -0.3360  0.6423 -2.0168
   67SAPC  H14A 5554   2.783   0.196   1.931 -0.7172 -0.4366 -1.2161
   67SAPC  H14B 5555   2.871   0.130   2.060 -1.2252  1.4629 -1.4701
   67SAPC  H14C 5556   2.913   0.291   2.016  0.0047  0.1241 -1.0337
   67SAPC   C15 5557   3.106   0.100   1.964 -0.3697  0.4149 -0.2650
   67SAPC  H15A 5558   3.191   0.062   1.908  0.6035 -0.3516  1.6502
   67SAPC  H15B 5559   3.140   0.196   1.999  1.7721 -0.3565 -0.0896
   67SAPC  H15C 5560   3.085   0.024   2.037 -0.5906  0.1026 -0.6500
   67SAPC   C11 5561   2.807  -0.020   1.736 -0.4591  0.8457 -0.6582
   67SAPC  H11A 5562   2.804  -0.126   1.706 -0.9720  0.3391  1.0625
   67SAPC  H11B 5563   2.817   0.046   1.647  2.0055 -1.3909 -2.1826
   67SAPC     P 5564   2.629  -0.070   1.929 -0.0795 -0.1967 -0.0879
   67SAPC   O13 5565   2.573   0.029   2.020  0.0678 -0.2521 -0.6550
   67SAPC   O14 5566   2.545  -0.176   1.873  0.0007  0.6063  0.9797
   67SAPC   O12 5567   2.690   0.015   1.813 -0.4226 -0.1284  0.2468
   67SAPC   O11 5568   2.757  -0.129   2.005 -0.3594 -0.6483 -0.1031
   67SAPC    C1 5569   2.784  -0.270   2.011  0.0574  0.1122 -0.4509
   67SAPC    HA 5570   2.740  -0.316   1.920 -1.3492  1.5462 -0.5576
   67SAPC    HB 5571   2.894  -0.276   2.024  0.1829  1.0536 -0.9595
   67SAPC    C2 5572   2.725  -0.355   2.130 -0.0105 -0.3118  0.1438
   67SAPC    HS 5573   2.625  -0.307   2.145  0.3728 -0.0124  2.0013
   67SAPC   O21 5574   2.809  -0.343   2.246  0.5864 -0.0282  0.2528
   67SAPC   C21 5575   2.731  -0.339   2.355  0.2614 -0.0980 -0.7925
   67SAPC   O22 5576   2.612  -0.352   2.363 -0.1255 -0.4889  0.3499
   67SAPC   C22 5577   2.831  -0.329   2.472 -0.7997  0.2158 -0.2712
   67SAPC   H2R 5578   2.875  -0.427   2.501  0.2548  0.9197  0.6166
   67SAPC   H2S 5579   2.917  -0.270   2.433 -0.2767 -0.9140 -0.8618
   67SAPC    C3 5580   2.708  -0.508   2.086  0.0128 -0.7083  0.3289
   67SAPC    HX 5581   2.803  -0.558   2.060  0.3555  0.3001 -0.4077
   67SAPC    HY 5582   2.654  -0.515   1.989  0.2044  0.0724  0.1602
   67SAPC   O31 5583   2.639  -0.586   2.185  0.5140 -0.2909 -0.2681
   67SAPC   C31 5584   2.503  -0.566   2.192 -0.6724  0.0782  0.3219
   67SAPC   O32 5585   2.445  -0.486   2.116  0.0633  0.7080 -0.3397
   67SAPC   C32 5586   2.440  -0.676   2.272 -0.1939  0.0556  0.2259
   67SAPC   H2X 5587   2.497  -0.768   2.246  0.9508  0.8582 -0.1877
   67SAPC   H2Y 5588   2.339  -0.692   2.228 -1.0063  0.7304  1.7648
   67SAPC   C23 5589   2.773  -0.248   2.596 -0.0816 -0.4195 -0.5426
   67SAPC   H3R 5590   2.704  -0.167   2.566 -0.7954 -0.1521  1.6027
   67SAPC   H3S 5591   2.866  -0.199   2.632 -1.5922  2.4196 -0.2126
   67SAPC   C24 5592   2.699  -0.331   2.701 -0.1596  0.8719 -0.6672
   67SAPC   H4R 5593   2.767  -0.409   2.742 -0.6722  0.6379 -0.2490
   67SAPC   H4S 5594   2.613  -0.381   2.652  1.4104 -3.4511  0.4844
   67SAPC   C25 5595   2.654  -0.239   2.814  0.3042  0.5465  0.1751
   67SAPC   H5R 5596   2.657  -0.131   2.794 -0.9561  0.2820 -1.6993
   67SAPC   C26 5597   2.606  -0.278   2.930  0.6380  0.0383 -0.2843
   67SAPC   H6R 5598   2.581  -0.204   3.007  0.9563  1.4928 -1.5460
   67SAPC   C27 5599   2.590  -0.419   2.983 -0.1357 -0.4948 -0.0427
   67SAPC   H7R 5600   2.673  -0.449   3.052 -0.1418  1.9136  1.1031
   67SAPC   H7S 5601   2.612  -0.488   2.899  2.2500  0.9184 -0.6644
   67SAPC   C28 5602   2.453  -0.452   3.043 -0.3174 -0.1258 -0.5959
   67SAPC   H8R 5603   2.377  -0.504   2.984 -0.7943 -0.4465  0.2851
   67SAPC   C29 5604   2.420  -0.422   3.170 -0.1085  0.5259 -1.2854
   67SAPC   H9R 5605   2.316  -0.440   3.201  0.4684 -1.1186 -0.1912
   67SAPC  C210 5606   2.517  -0.364   3.271 -0.9152  0.8562  0.0497
   67SAPC  H10R 5607   2.516  -0.253   3.261  0.5086  1.1574  2.4090
   67SAPC  H10S 5608   2.622  -0.394   3.248 -1.5253 -1.2767 -0.1197
   67SAPC  C211 5609   2.493  -0.406   3.415  0.4624 -0.3674 -0.0925
   67SAPC  H11R 5610   2.395  -0.362   3.437  0.2415  0.3518 -2.2677
   67SAPC  C212 5611   2.572  -0.458   3.506 -0.3572  0.3128  0.4689
   67SAPC  H12R 5612   2.526  -0.471   3.605 -2.0174  1.9416 -0.0334
   67SAPC  C213 5613   2.724  -0.489   3.505 -0.4460 -0.0204 -0.3312
   67SAPC  H13R 5614   2.761  -0.500   3.400  3.1016  0.4620  0.7439
   67SAPC  H13S 5615   2.731  -0.594   3.542 -1.9286 -0.0172  0.0191
   67SAPC  C214 5616   2.814  -0.391   3.583 -0.1149 -0.3420  0.1210
   67SAPC  H14R 5617   2.876  -0.321   3.526  1.4137 -1.2540  0.6057
   67SAPC  C215 5618   2.827  -0.389   3.712  0.7223  1.2456 -0.1661
   67SAPC  H15R 5619   2.893  -0.312   3.754  0.8467  1.1679 -0.2190
   67SAPC  C216 5620   2.756  -0.474   3.817 -0.4450  0.8243 -0.2963
   67SAPC  H16R 5621   2.784  -0.581   3.817 -4.5850 -0.4594  0.6363
   67SAPC  H16S 5622   2.648  -0.459   3.796 -0.5014  1.0132  0.1136
   67SAPC  C217 5623   2.785  -0.423   3.957 -0.6150  0.5804  0.6972
   67SAPC  H17R 5624   2.880  -0.365   3.953  0.5326 -1.2677 -0.2955
   67SAPC  H17S 5625   2.813  -0.510   4.020 -0.4279 -1.0527 -1.5019
   67SAPC  C218 5626   2.682  -0.348   4.036 -0.7578  0.6323  1.2196
   67SAPC  H18R 5627   2.727  -0.327   4.136 -2.5061 -0.6675  2.3455
   67SAPC  H18S 5628   2.594  -0.415   4.045  1.5963 -2.7555  1.1093
   67SAPC  C219 5629   2.645  -0.219   3.962 -0.4184  1.4870  0.2050
   67SAPC  H19R 5630   2.628  -0.246   3.855 -1.7873 -0.3687  0.8359
   67SAPC  H19S 5631   2.730  -0.148   3.968 -0.2687  1.3439 -0.1399
   67SAPC  C220 5632   2.516  -0.149   4.010  0.6788  0.3418 -0.6184
   67SAPC  H20R 5633   2.432  -0.222   4.011  1.4965 -0.6453 -1.4655
   67SAPC  H20S 5634   2.489  -0.071   3.936  1.6875 -0.1032 -1.4809
   67SAPC  H20T 5635   2.524  -0.103   4.111  3.0323 -3.1257  0.9745
   67SAPC   C33 5636   2.430  -0.636   2.421 -0.1516 -0.1392 -0.5988
   67SAPC   H3X 5637   2.353  -0.702   2.466 -2.3041  2.2999 -0.5154
   67SAPC   H3Y 5638   2.401  -0.530   2.438  1.1732  0.0253  0.9683
   67SAPC   C34 5639   2.559  -0.658   2.498 -0.0837 -0.1152  0.4666
   67SAPC   H4X 5640   2.633  -0.577   2.478  0.6000 -0.8147  0.0926
   67SAPC   H4Y 5641   2.597  -0.756   2.461  0.0798 -0.3093  1.1344
   67SAPC   C35 5642   2.536  -0.695   2.641 -0.2738 -0.4599 -0.5399
   67SAPC   H5X 5643   2.477  -0.790   2.640 -0.2072 -0.5008 -0.8816
   67SAPC   H5Y 5644   2.479  -0.607   2.676  2.4434  2.2649 -2.4778
   67SAPC   C36 5645   2.664  -0.706   2.723 -0.5564 -0.2446 -0.4614
   67SAPC   H6X 5646   2.708  -0.604   2.734  0.6247 -0.8029  0.1513
   67SAPC   H6Y 5647   2.746  -0.754   2.667  0.7824  1.1085  0.2587
   67SAPC   C37 5648   2.619  -0.757   2.859 -0.3627  0.0034 -0.0853
   67SAPC   H7X 5649   2.596  -0.865   2.852 -0.3226 -0.0935  1.0897
   67SAPC   H7Y 5650   2.521  -0.711   2.887  0.8397  1.5373  1.8865
   67SAPC   C38 5651   2.714  -0.762   2.981 -0.0746 -0.4153 -0.0364
   67SAPC   H8X 5652   2.772  -0.667   2.990  0.0251 -0.4981  0.1958
   67SAPC   H8Y 5653   2.796  -0.830   2.952  2.1718  1.1693  2.2123
   67SAPC   C39 5654   2.651  -0.795   3.115 -0.4931 -0.1604 -0.7719
   67SAPC   H9X 5655   2.591  -0.888   3.116 -1.5778  0.5046 -1.1435
   67SAPC   H9Y 5656   2.574  -0.720   3.146  0.5203 -0.2000  2.2075
   67SAPC  C310 5657   2.762  -0.816   3.222  0.1726  0.8283  0.2974
   67SAPC  H10X 5658   2.814  -0.718   3.230 -0.2836  1.0179  0.9952
   67SAPC  H10Y 5659   2.838  -0.890   3.188  1.4444  2.0050  0.4623
   67SAPC  C311 5660   2.718  -0.852   3.369 -0.0064  0.4578  0.1217
   67SAPC  H11X 5661   2.654  -0.943   3.376  1.3913 -0.5355  0.5490
   67SAPC  H11Y 5662   2.665  -0.765   3.413 -0.7923  0.0382  0.0094
   67SAPC  C312 5663   2.839  -0.886   3.446 -0.2858 -0.4761  0.0724
   67SAPC  H12X 5664   2.907  -0.798   3.454 -0.6426 -0.0865 -0.9801
   67SAPC  H12Y 5665   2.887  -0.983   3.418 -1.4035 -0.7020 -1.1255
   67SAPC  C313 5666   2.785  -0.900   3.590 -0.6711 -0.1371  1.0189
   67SAPC  H13X 5667   2.747  -1.000   3.619  1.0684 -0.8908  0.8172
   67SAPC  H13Y 5668   2.703  -0.827   3.606 -0.8510 -0.0778 -0.1106
   67SAPC  C314 5669   2.899  -0.875   3.686  0.4992  0.3100  0.0222
   67SAPC  H14X 5670   2.935  -0.772   3.666  1.2392  0.4854  1.9788
   67SAPC  H14Y 5671   2.984  -0.940   3.656 -0.8602 -2.2306  1.3204
   67SAPC  C315 5672   2.865  -0.888   3.833  0.3214  0.0204  0.1330
   67SAPC  H15X 5673   2.828  -0.989   3.863 -1.0539  0.2604 -0.7017
   67SAPC  H15Y 5674   2.778  -0.823   3.852  0.5668  0.5390 -0.4805
   67SAPC  C316 5675   2.979  -0.830   3.917 -0.2169 -0.3368 -0.8651
   67SAPC  H16X 5676   2.995  -0.722   3.894  0.7744  0.1021  1.5432
   67SAPC  H16Y 5677   3.076  -0.882   3.902  1.0955  1.8558 -0.5553
   67SAPC  C317 5678   2.937  -0.824   4.069  0.5185 -0.4870 -0.3496
   67SAPC  H17X 5679   2.838  -0.774   4.065 -0.1437 -1.7368 -0.1240
   67SAPC  H17Y 5680   3.012  -0.762   4.122  2.2546 -1.9039 -1.0583
   67SAPC  C318 5681   2.932  -0.962   4.137 -0.1336 -1.5530 -0.1607
   67SAPC  H18X 5682   2.906  -0.971   4.244 -0.6395 -0.0689 -0.1306
   67SAPC  H18Y 5683   3.035  -1.002   4.126  0.8403  1.0821 -1.6663
   67SAPC  H18Z 5684   2.856  -1.024   4.086 -3.3759  1.7946  0.2209
   68SAPC     N 5685   5.516   3.661   2.195 -0.1496 -0.2276 -0.3000
   68SAPC   C12 5686   5.375   3.730   2.216 -0.3651  0.5535 -0.5296
   68SAPC  H12A 5687   5.323   3.748   2.123  1.8380 -0.3836 -2.0193
   68SAPC  H12B 5688   5.388   3.830   2.255 -1.5306  0.4010  0.3300
   68SAPC   C13 5689   5.498   3.532   2.129  0.0345  0.0799  0.2163
   68SAPC  H13A 5690   5.592   3.480   2.117  0.3419  0.4417  0.9896
   68SAPC  H13B 5691   5.433   3.470   2.191  1.2711 -1.3432  0.1580
   68SAPC  H13C 5692   5.462   3.550   2.029 -1.0516  1.8106  0.8878
   68SAPC   C14 5693   5.607   3.738   2.116 -0.1404 -0.0756  0.5374
   68SAPC  H14A 5694   5.600   3.844   2.134 -0.6583  0.1475 -0.8616
   68SAPC  H14B 5695   5.707   3.696   2.125  0.4363  1.3636  1.0483
   68SAPC  H14C 5696   5.585   3.735   2.010  0.6915 -0.5837  0.3693
   68SAPC   C15 5697   5.576   3.644   2.326  0.2821 -0.1154  0.3509
   68SAPC  H15A 5698   5.603   3.742   2.362 -2.6272  0.3912  1.4656
   68SAPC  H15B 5699   5.503   3.598   2.391  2.7584 -4.4400  0.4381
   68SAPC  H15C 5700   5.663   3.582   2.317 -0.8465 -1.4424 -3.1418
   68SAPC   C11 5701   5.277   3.654   2.315 -0.4611 -0.3236 -0.6634
   68SAPC  H11A 5702   5.293   3.544   2.318 -2.7880 -0.6785  0.3430
   68SAPC  H11B 5703   5.172   3.677   2.287 -0.8692  0.7379  1.5447
   68SAPC     P 5704   5.281   3.627   2.585 -0.1834 -0.4672  0.4240
   68SAPC   O13 5705   5.361   3.509   2.573 -0.2057  0.1268  0.1698
   68SAPC   O14 5706   5.314   3.722   2.700  0.5702  0.1024 -0.0664
   68SAPC   O12 5707   5.291   3.712   2.447  0.0467 -0.3389 -0.0964
   68SAPC   O11 5708   5.129   3.590   2.584  0.0493 -0.7531  0.2118
   68SAPC    C1 5709   5.032   3.674   2.649  0.7930  0.2521  0.6019
   68SAPC    HA 5710   5.070   3.775   2.673 -1.5308  1.0292  1.2950
   68SAPC    HB 5711   4.940   3.692   2.588 -0.0810 -1.0157  1.4862
   68SAPC    C2 5712   4.972   3.600   2.765  0.1272 -0.2286  0.6360
   68SAPC    HS 5713   4.915   3.677   2.822 -0.2830  0.8804 -1.1969
   68SAPC   O21 5714   5.065   3.541   2.855 -0.1238  0.3740  0.2012
   68SAPC   C21 5715   5.127   3.622   2.942 -0.1987 -0.3038  0.1301
   68SAPC   O22 5716   5.106   3.739   2.958 -0.2568 -0.4045  0.6158
   68SAPC   C22 5717   5.236   3.540   3.019 -0.1883  0.2829 -0.8398
   68SAPC   H2R 5718   5.190   3.471   3.093  0.0680  1.6374  0.6249
   68SAPC   H2S 5719   5.293   3.479   2.946  0.3282 -0.8709  0.4665
   68SAPC    C3 5720   4.865   3.493   2.722 -0.7573  0.2416 -0.2597
   68SAPC    HX 5721   4.911   3.409   2.665 -2.1222 -1.1193  0.5456
   68SAPC    HY 5722   4.801   3.527   2.637 -0.7495  0.0289 -0.3518
   68SAPC   O31 5723   4.780   3.453   2.832  0.0575  0.2927  0.0135
   68SAPC   C31 5724   4.686   3.540   2.883  0.4062  0.4257  0.6705
   68SAPC   O32 5725   4.663   3.645   2.832  0.2257 -0.8418 -0.1536
   68SAPC   C32 5726   4.619   3.490   3.004  0.1846  0.1220  0.1027
   68SAPC   H2X 5727   4.647   3.384   3.025  5.1411  0.8484 -1.5177
   68SAPC   H2Y 5728   4.509   3.503   2.994  0.1860  0.4437  0.4744
   68SAPC   C23 5729   5.341   3.629   3.089  0.4294 -1.0794 -0.4487
   68SAPC   H3R 5730   5.308   3.714   3.152  0.1552  0.2488 -2.3102
   68SAPC   H3S 5731   5.386   3.691   3.009 -0.1590  0.6170  0.4843
   68SAPC   C24 5732   5.445   3.545   3.157  0.0926 -0.3514 -1.4834
   68SAPC   H4R 5733   5.530   3.613   3.180 -0.4640 -0.6423  1.9284
   68SAPC   H4S 5734   5.483   3.470   3.084  2.0238  0.6602 -1.5838
   68SAPC   C25 5735   5.398   3.478   3.288  0.0856  0.2505 -0.4177
   68SAPC   H5R 5736   5.330   3.391   3.282 -0.6749  0.5423  2.3516
   68SAPC   C26 5737   5.436   3.511   3.412  0.1688  0.1275  0.2453
   68SAPC   H6R 5738   5.398   3.452   3.497 -0.3689  1.1080  0.6945
   68SAPC   C27 5739   5.528   3.626   3.442 -0.8391 -0.6063  0.0058
   68SAPC   H7R 5740   5.618   3.603   3.380 -1.8266 -1.1856 -1.2567
   68SAPC   H7S 5741   5.575   3.618   3.543 -0.7490 -1.3570 -0.0859
   68SAPC   C28 5742   5.502   3.774   3.410 -0.1978 -0.4902  0.1615
   68SAPC   H8R 5743   5.424   3.797   3.336  0.7770 -1.1573 -1.1090
   68SAPC   C29 5744   5.553   3.874   3.476 -0.3345 -1.2950  0.3751
   68SAPC   H9R 5745   5.536   3.978   3.445  1.0589 -0.5958  1.8151
   68SAPC  C210 5746   5.657   3.876   3.579 -0.1336 -0.6112 -0.2328
   68SAPC  H10R 5747   5.747   3.915   3.527  0.5014  0.0960  1.3580
   68SAPC  H10S 5748   5.690   3.779   3.622 -1.1165 -0.4193  1.0200
   68SAPC  C211 5749   5.615   3.963   3.692 -0.3332  0.3345  0.2933
   68SAPC  H11R 5750   5.628   4.072   3.681 -0.2547  0.4668  1.5101
   68SAPC  C212 5751   5.540   3.921   3.793 -0.2258  0.0259  0.1499
   68SAPC  H12R 5752   5.510   3.990   3.874  1.3756  0.9200  0.0335
   68SAPC  C213 5753   5.498   3.776   3.820  0.2007  0.3126 -0.1140
   68SAPC  H13R 5754   5.559   3.750   3.909 -1.1370  1.5832  1.2379
   68SAPC  H13S 5755   5.534   3.713   3.736 -1.2682  2.0228 -2.1571
   68SAPC  C214 5756   5.353   3.764   3.848 -0.1032  0.0043  0.3485
   68SAPC  H14R 5757   5.287   3.850   3.831  0.0602  0.1109  0.2631
   68SAPC  C215 5758   5.297   3.643   3.874 -0.0058  0.4003  0.4266
   68SAPC  H15R 5759   5.187   3.644   3.886  0.0103  0.0679  0.6235
   68SAPC  C216 5760   5.378   3.517   3.891  0.2501  0.7584 -0.3725
   68SAPC  H16R 5761   5.401   3.505   3.999 -1.6169 -0.6587 -0.0734
   68SAPC  H16S 5762   5.471   3.529   3.832  0.9667  0.7581  0.7331
   68SAPC  C217 5763   5.302   3.389   3.861  0.7338  0.7191  0.0933
   68SAPC  H17R 5764   5.206   3.393   3.916  1.3830  0.7911  1.2642
   68SAPC  H17S 5765   5.345   3.296   3.903 -1.4296  0.0662  0.9691
   68SAPC  C218 5766   5.270   3.372   3.708 -0.2768 -0.3775 -0.8286
   68SAPC  H18R 5767   5.368   3.368   3.655 -0.0236  2.2150 -0.6981
   68SAPC  H18S 5768   5.207   3.459   3.684  1.7994  1.6544  0.5706
   68SAPC  C219 5769   5.191   3.241   3.671  0.2707 -0.0602 -0.3323
   68SAPC  H19R 5770   5.142   3.265   3.574 -3.9021 -1.3171  1.2484
   68SAPC  H19S 5771   5.109   3.227   3.744  0.0010 -1.7837 -0.9122
   68SAPC  C220 5772   5.284   3.117   3.662  0.0076 -0.2629  0.0868
   68SAPC  H20R 5773   5.383   3.134   3.616 -0.7637  0.1261 -1.5046
   68SAPC  H20S 5774   5.239   3.029   3.611  0.7560 -0.4917 -0.1829
   68SAPC  H20T 5775   5.308   3.082   3.764 -0.6087 -0.3009  0.2214
   68SAPC   C33 5776   4.657   3.587   3.116 -0.2703  0.3872 -0.0583
   68SAPC   H3X 5777   4.583   3.568   3.196  0.9360 -2.4255  0.4929
   68SAPC   H3Y 5778   4.638   3.693   3.085  1.4965  1.2810  1.7432
   68SAPC   C34 5779   4.796   3.567   3.169  0.2178 -0.3074 -0.5095
   68SAPC   H4X 5780   4.864   3.540   3.085 -0.1341 -0.0686 -0.8770
   68SAPC   H4Y 5781   4.798   3.480   3.239 -0.2496 -1.3761 -1.7712
   68SAPC   C35 5782   4.853   3.688   3.239  0.0739  0.6548  0.4991
   68SAPC   H5X 5783   4.773   3.733   3.301  0.4708 -0.5613  1.9550
   68SAPC   H5Y 5784   4.864   3.762   3.156 -1.8098  0.6770  0.2225
   68SAPC   C36 5785   4.967   3.667   3.337 -0.0974  0.9141  0.2031
   68SAPC   H6X 5786   5.040   3.604   3.281 -0.2775  0.2417  0.7052
   68SAPC   H6Y 5787   4.935   3.610   3.427 -0.8064  1.6513  0.4366
   68SAPC   C37 5788   5.041   3.789   3.377  0.4342  0.2195  0.0680
   68SAPC   H7X 5789   4.972   3.873   3.395  1.5088  1.6315 -1.9694
   68SAPC   H7Y 5790   5.115   3.824   3.301  1.6473 -2.2809 -0.0085
   68SAPC   C38 5791   5.111   3.764   3.517  0.8069  0.2036  0.1961
   68SAPC   H8X 5792   5.209   3.816   3.528  1.2017 -0.1200 -1.4034
   68SAPC   H8Y 5793   5.124   3.654   3.519 -1.9751 -0.2330 -1.3113
   68SAPC   C39 5794   5.030   3.814   3.639  0.1637  0.4315 -0.2602
   68SAPC   H9X 5795   5.017   3.924   3.632  0.8019  0.7870  2.6193
   68SAPC   H9Y 5796   5.082   3.805   3.737  0.2372  0.3820 -0.3041
   68SAPC  C310 5797   4.897   3.739   3.661  0.1999  0.6019 -0.2791
   68SAPC  H10X 5798   4.912   3.629   3.658 -1.0248  0.3696  0.7851
   68SAPC  H10Y 5799   4.815   3.765   3.591  1.0936  2.3142 -0.7296
   68SAPC  C311 5800   4.838   3.779   3.799  0.4279 -0.1010  0.5570
   68SAPC  H11X 5801   4.820   3.889   3.801  2.1707  0.2685  4.0301
   68SAPC  H11Y 5802   4.896   3.733   3.882 -0.3826  1.2914  1.9406
   68SAPC  C312 5803   4.690   3.732   3.814 -0.5718 -0.2184 -0.0102
   68SAPC  H12X 5804   4.683   3.626   3.783  0.2989 -0.2269 -0.2114
   68SAPC  H12Y 5805   4.626   3.793   3.746 -0.2604 -0.6768 -0.7262
   68SAPC  C313 5806   4.641   3.735   3.964  0.4822  0.2926  0.6442
   68SAPC  H13X 5807   4.657   3.842   3.992  1.6148  0.5964 -0.9979
   68SAPC  H13Y 5808   4.712   3.684   4.032 -0.6226 -2.9200 -0.4588
   68SAPC  C314 5809   4.501   3.684   3.989 -0.1032  0.3259  0.2887
   68SAPC  H14X 5810   4.434   3.739   3.920  0.2614 -0.1610 -0.4802
   68SAPC  H14Y 5811   4.478   3.708   4.095  0.5501  0.3377  0.4353
   68SAPC  C315 5812   4.477   3.533   3.982 -0.4078 -0.0330  0.4994
   68SAPC  H15X 5813   4.554   3.486   4.047 -0.8385 -0.3004  0.8148
   68SAPC  H15Y 5814   4.493   3.501   3.876  2.2078  0.2867  0.7258
   68SAPC  C316 5815   4.340   3.497   4.037  0.3242 -0.0343  0.0508
   68SAPC  H16X 5816   4.268   3.559   3.979 -1.3861 -1.4010  0.6010
   68SAPC  H16Y 5817   4.328   3.512   4.146 -3.0811 -1.1019 -0.0596
   68SAPC  C317 5818   4.290   3.355   4.006  0.6868 -0.2281  0.5460
   68SAPC  H17X 5819   4.297   3.339   3.896  0.3241 -2.2333  0.7678
   68SAPC  H17Y 5820   4.183   3.353   4.037  0.8853 -1.2402  1.2285
   68SAPC  C318 5821   4.380   3.245   4.062  0.5105  0.2032  0.3230
   68SAPC  H18X 5822   4.485   3.253   4.028  0.4811  1.0158  0.3811
   68SAPC  H18Y 5823   4.331   3.148   4.040 -1.1330  0.5391  2.1268
   68SAPC  H18Z 5824   4.379   3.234   4.173  0.6728 -3.6554  0.0596
   69SAPC     N 5825   2.703   3.766   1.951 -0.3374 -0.5070 -0.1332
   69SAPC   C12 5826   2.692   3.774   2.101  0.0741 -0.0797  0.4816
   69SAPC  H12A 5827   2.764   3.702   2.139  0.1629 -1.1723 -1.6090
   69SAPC  H12B 5828   2.596   3.739   2.134 -0.2076  0.4276  0.2043
   69SAPC   C13 5829   2.611   3.869   1.895 -0.0115  0.2536 -0.6181
   69SAPC  H13A 5830   2.510   3.852   1.927  0.1566 -1.6966 -1.0088
   69SAPC  H13B 5831   2.635   3.971   1.921  0.8879 -0.5562  2.0913
   69SAPC  H13C 5832   2.611   3.876   1.787 -0.7389 -0.4557 -0.6710
   69SAPC   C14 5833   2.845   3.796   1.899  0.4848 -0.2572  0.2845
   69SAPC  H14A 5834   2.845   3.787   1.791  0.1421  0.5827  0.2043
   69SAPC  H14B 5835   2.887   3.892   1.925 -1.1973  0.5907 -0.0078
   69SAPC  H14C 5836   2.910   3.720   1.939 -0.0365 -0.2790  1.1154
   69SAPC   C15 5837   2.662   3.623   1.914 -0.2280 -0.4560  0.6648
   69SAPC  H15A 5838   2.677   3.609   1.808  0.7584 -0.5505  0.8051
   69SAPC  H15B 5839   2.729   3.561   1.971  0.4600  0.2800  0.6766
   69SAPC  H15C 5840   2.562   3.593   1.941  0.9468 -0.4417  6.3856
   69SAPC   C11 5841   2.710   3.913   2.171 -0.0269 -0.1585  0.1776
   69SAPC  H11A 5842   2.668   3.922   2.274 -0.4268  1.5531 -0.1132
   69SAPC  H11B 5843   2.644   3.987   2.121 -0.1339  1.0082  1.9534
   69SAPC     P 5844   2.870   4.114   2.131  0.4175  0.1687  0.5118
   69SAPC   O13 5845   3.014   4.149   2.128  0.2757  0.5413  0.4017
   69SAPC   O14 5846   2.781   4.157   2.013  0.4691 -0.0674  0.5436
   69SAPC   O12 5847   2.848   3.959   2.157  0.3970  0.0756 -1.2248
   69SAPC   O11 5848   2.815   4.186   2.259  0.6111 -0.3783  0.4903
   69SAPC    C1 5849   2.897   4.272   2.335  0.2904  0.5983  0.2778
   69SAPC    HA 5850   2.961   4.338   2.273 -2.4450  0.8774 -2.4807
   69SAPC    HB 5851   2.842   4.341   2.402 -1.0080  0.8770 -1.0205
   69SAPC    C2 5852   2.984   4.188   2.430 -0.5806 -1.1581  0.5555
   69SAPC    HS 5853   3.053   4.124   2.370  0.3131  0.6774 -0.4674
   69SAPC   O21 5854   2.907   4.115   2.518  0.2142  0.5351 -0.3993
   69SAPC   C21 5855   2.929   3.987   2.542 -0.3534 -0.0974  0.2139
   69SAPC   O22 5856   3.024   3.926   2.491 -0.5088  0.0134 -0.5795
   69SAPC   C22 5857   2.821   3.921   2.629  0.2008 -0.1839  0.3934
   69SAPC   H2R 5858   2.836   3.951   2.735  1.3261 -0.9920  0.4767
   69SAPC   H2S 5859   2.724   3.965   2.597  0.6827  0.3508 -0.3924
   69SAPC    C3 5860   3.083   4.282   2.513  0.6076 -0.6818  0.7233
   69SAPC    HX 5861   3.017   4.357   2.562 -1.1922  0.5694 -3.2227
   69SAPC    HY 5862   3.153   4.349   2.457  1.3283 -0.5081  1.7998
   69SAPC   O31 5863   3.162   4.209   2.609  0.0535 -0.3430  0.6044
   69SAPC   C31 5864   3.272   4.146   2.563  0.1957  0.2258  0.3467
   69SAPC   O32 5865   3.314   4.148   2.452 -0.1529 -0.4269  0.2037
   69SAPC   C32 5866   3.328   4.060   2.682  0.1107  0.0617 -0.3729
   69SAPC   H2X 5867   3.268   3.967   2.674 -0.7314  0.7282 -2.8349
   69SAPC   H2Y 5868   3.306   4.118   2.773  0.3142  2.2297 -1.6370
   69SAPC   C23 5869   2.811   3.770   2.595  1.1759  0.1065 -0.0824
   69SAPC   H3R 5870   2.910   3.723   2.608  1.8085  2.0314  3.3171
   69SAPC   H3S 5871   2.776   3.746   2.493  2.2985  0.0829 -0.4716
   69SAPC   C24 5872   2.723   3.691   2.699 -0.1944  0.8770 -0.5244
   69SAPC   H4R 5873   2.753   3.717   2.802 -1.3681  0.4992 -0.0760
   69SAPC   H4S 5874   2.736   3.581   2.691 -0.2950  0.9207 -1.4027
   69SAPC   C25 5875   2.572   3.720   2.673 -0.4815  0.4577 -0.0636
   69SAPC   H5R 5876   2.519   3.641   2.618  1.8388 -1.2665  0.0274
   69SAPC   C26 5877   2.501   3.802   2.748  0.4475  0.7001 -1.1960
   69SAPC   H6R 5878   2.394   3.807   2.724 -0.1125  1.1621  1.1213
   69SAPC   C27 5879   2.541   3.878   2.868  0.2467  0.0661  0.6703
   69SAPC   H7R 5880   2.525   3.988   2.855 -0.1610  0.1646  1.8215
   69SAPC   H7S 5881   2.649   3.868   2.890  0.3144 -0.3939  0.1390
   69SAPC   C28 5882   2.444   3.843   2.980  0.3987 -0.3040 -0.3309
   69SAPC   H8R 5883   2.338   3.847   2.950  0.6642  0.8210 -1.1968
   69SAPC   C29 5884   2.476   3.844   3.110 -0.7431 -0.8857 -0.1571
   69SAPC   H9R 5885   2.403   3.838   3.193  0.0811 -0.1124  0.6529
   69SAPC  C210 5886   2.615   3.863   3.166 -0.1662 -0.6353  0.3596
   69SAPC  H10R 5887   2.689   3.788   3.131 -0.2736 -0.5847  0.0284
   69SAPC  H10S 5888   2.603   3.842   3.275 -1.5993 -1.5935  0.0412
   69SAPC  C211 5889   2.672   4.006   3.152  0.2695  0.2819  0.5738
   69SAPC  H11R 5890   2.748   4.023   3.075  0.3259  1.4524  0.8748
   69SAPC  C212 5891   2.636   4.116   3.221  0.4734  0.4293 -0.0022
   69SAPC  H12R 5892   2.686   4.214   3.210 -0.0302  0.9920  2.2965
   69SAPC  C213 5893   2.530   4.120   3.327 -0.0839 -0.0526  0.1977
   69SAPC  H13R 5894   2.478   4.021   3.327  0.0442 -0.1708  2.7216
   69SAPC  H13S 5895   2.451   4.192   3.297 -1.2639 -0.7100  1.5654
   69SAPC  C214 5896   2.580   4.153   3.465  0.3839 -0.1827 -0.2704
   69SAPC  H14R 5897   2.629   4.251   3.477 -0.3138  0.0103  1.2029
   69SAPC  C215 5898   2.604   4.075   3.574 -0.3119 -0.0346  0.4403
   69SAPC  H15R 5899   2.643   4.118   3.667 -1.6176  0.0460  0.9846
   69SAPC  C216 5900   2.570   3.926   3.600 -0.3780 -1.0211  0.6526
   69SAPC  H16R 5901   2.538   3.887   3.501 -2.6667 -0.0660  0.9786
   69SAPC  H16S 5902   2.484   3.913   3.670 -2.1057 -0.2285 -1.2389
   69SAPC  C217 5903   2.692   3.843   3.646 -0.7294 -0.2017 -0.2360
   69SAPC  H17R 5904   2.776   3.874   3.580  0.0225  1.1876  1.3082
   69SAPC  H17S 5905   2.661   3.740   3.618 -1.6682 -0.1736  0.6333
   69SAPC  C218 5906   2.724   3.849   3.796 -0.2333  0.1281 -0.2922
   69SAPC  H18R 5907   2.750   3.954   3.823 -0.6299  0.1671 -0.0560
   69SAPC  H18S 5908   2.815   3.787   3.810 -0.2896  0.3917  1.6332
   69SAPC  C219 5909   2.602   3.818   3.888  0.5678 -0.3505  0.1118
   69SAPC  H19R 5910   2.544   3.736   3.840 -0.0881  0.8621 -1.2395
   69SAPC  H19S 5911   2.533   3.904   3.879 -0.7848 -1.4049  0.0365
   69SAPC  C220 5912   2.639   3.802   4.033  0.1740  0.2017 -0.6020
   69SAPC  H20R 5913   2.711   3.878   4.071  0.1284  0.1985 -0.5095
   69SAPC  H20S 5914   2.694   3.706   4.039 -0.7907 -0.2970  0.6767
   69SAPC  H20T 5915   2.553   3.803   4.103 -0.8386 -0.2251 -1.7946
   69SAPC   C33 5916   3.477   4.033   2.677 -0.2981 -0.2999 -0.4106
   69SAPC   H3X 5917   3.544   4.120   2.697 -0.7095  0.1303 -0.8772
   69SAPC   H3Y 5918   3.487   3.989   2.575  0.7905 -2.7249  0.6620
   69SAPC   C34 5919   3.507   3.912   2.771 -0.5900 -0.9485  0.0205
   69SAPC   H4X 5920   3.602   3.865   2.737 -0.3251 -1.5369  1.4862
   69SAPC   H4Y 5921   3.438   3.827   2.750  0.3629 -1.3274 -1.7490
   69SAPC   C35 5922   3.498   3.949   2.918 -0.4459  0.1488 -0.5319
   69SAPC   H5X 5923   3.394   3.978   2.946 -0.3644 -0.4672  0.4522
   69SAPC   H5Y 5924   3.567   4.033   2.938 -1.5421  0.8832  0.2689
   69SAPC   C36 5925   3.511   3.826   3.005 -0.3682  0.6857  0.4917
   69SAPC   H6X 5926   3.591   3.760   2.965 -1.1435  1.5846 -2.8277
   69SAPC   H6Y 5927   3.416   3.770   3.008 -0.4896  0.5032 -2.9454
   69SAPC   C37 5928   3.554   3.853   3.152  0.4249 -0.4626 -0.2933
   69SAPC   H7X 5929   3.470   3.894   3.212  2.1674  0.9326  1.3127
   69SAPC   H7Y 5930   3.632   3.932   3.140 -1.3597  1.5631  0.6899
   69SAPC   C38 5931   3.622   3.741   3.234 -0.1849  0.2629  0.6125
   69SAPC   H8X 5932   3.722   3.717   3.191 -0.3944  1.4032 -0.5719
   69SAPC   H8Y 5933   3.558   3.651   3.222  1.2069 -0.5228 -1.4812
   69SAPC   C39 5934   3.630   3.756   3.383  0.1235  0.2618  0.1263
   69SAPC   H9X 5935   3.649   3.862   3.412 -0.5123  0.2681  0.5325
   69SAPC   H9Y 5936   3.715   3.692   3.413  1.7343  0.9277 -2.6737
   69SAPC  C310 5937   3.505   3.702   3.458  0.2853 -0.0245 -0.1646
   69SAPC  H10X 5938   3.494   3.593   3.437  4.3912 -0.6063 -0.1880
   69SAPC  H10Y 5939   3.415   3.753   3.417 -0.8045 -0.9827  0.9378
   69SAPC  C311 5940   3.511   3.718   3.605 -0.1552 -0.0496 -0.2170
   69SAPC  H11X 5941   3.532   3.821   3.642 -1.3848  0.0071  0.3726
   69SAPC  H11Y 5942   3.586   3.645   3.643 -0.7150 -1.1000 -1.0656
   69SAPC  C312 5943   3.375   3.680   3.665  0.4085 -0.2224  0.1532
   69SAPC  H12X 5944   3.356   3.578   3.625 -0.4228  0.4441 -1.2344
   69SAPC  H12Y 5945   3.300   3.742   3.611 -0.0764  0.0159  1.0793
   69SAPC  C313 5946   3.359   3.680   3.811  0.0295  0.5708  0.2526
   69SAPC  H13X 5947   3.392   3.778   3.853 -1.9146  0.9779  0.9729
   69SAPC  H13Y 5948   3.419   3.595   3.848 -1.1126 -0.0476  0.7323
   69SAPC  C314 5949   3.214   3.663   3.852  0.0351  0.1880 -0.4128
   69SAPC  H14X 5950   3.165   3.593   3.780  1.3723 -0.6286 -0.5582
   69SAPC  H14Y 5951   3.159   3.759   3.852  0.6728  0.5862  1.0291
   69SAPC  C315 5952   3.192   3.595   3.993  0.7225 -0.2643  0.8324
   69SAPC  H15X 5953   3.251   3.501   4.000  2.2444  0.2888 -2.6258
   69SAPC  H15Y 5954   3.086   3.561   3.992  0.4224  0.6679  0.5570
   69SAPC  C316 5955   3.200   3.686   4.118  0.6064  0.3561 -0.6833
   69SAPC  H16X 5956   3.299   3.733   4.136 -0.9638  2.5648  3.6104
   69SAPC  H16Y 5957   3.177   3.617   4.202 -0.6353  3.2512  1.5486
   69SAPC  C317 5958   3.103   3.800   4.110 -0.1260 -0.4954  0.1009
   69SAPC  H17X 5959   3.001   3.758   4.093  0.4621 -2.1027  0.3494
   69SAPC  H17Y 5960   3.136   3.857   4.021  1.8640 -0.1960  0.9852
   69SAPC  C318 5961   3.105   3.890   4.227 -0.0074 -0.2322 -0.2328
   69SAPC  H18X 5962   3.081   3.817   4.307  2.5678 -0.4481  0.4368
   69SAPC  H18Y 5963   3.021   3.963   4.230  0.8920  0.7964  1.1529
   69SAPC  H18Z 5964   3.204   3.939   4.243 -0.6057  1.5854 -1.6806
   70SAPC     N 5965   0.594   6.063   1.967  0.3598 -0.2421 -0.1636
   70SAPC   C12 5966   0.548   6.116   2.098  0.1568 -0.3874  0.2492
   70SAPC  H12A 5967   0.560   6.034   2.169  1.6710 -0.4267 -0.0202
   70SAPC  H12B 5968   0.446   6.146   2.082  0.4169  0.9332  0.9633
   70SAPC   C13 5969   0.604   6.170   1.865  1.1237  0.1029 -0.5089
   70SAPC  H13A 5970   0.511   6.222   1.846  0.8814  0.3714  1.1988
   70SAPC  H13B 5971   0.680   6.242   1.894 -0.8818  1.7182  1.0796
   70SAPC  H13C 5972   0.639   6.119   1.777 -1.3084 -0.8704 -0.9926
   70SAPC   C14 5973   0.729   6.015   1.976 -0.5189  0.1756  0.2603
   70SAPC  H14A 5974   0.804   6.091   1.992  0.0748 -0.3475 -0.0043
   70SAPC  H14B 5975   0.746   5.951   2.061  2.4269  0.9188  0.3360
   70SAPC  H14C 5976   0.751   5.955   1.889  0.4525  1.6382 -0.5550
   70SAPC   C15 5977   0.499   5.959   1.913 -0.7928 -0.5700 -1.0428
   70SAPC  H15A 5978   0.408   6.009   1.883 -0.4155  0.2061 -0.9003
   70SAPC  H15B 5979   0.547   5.913   1.828  0.3848  0.5979 -1.0383
   70SAPC  H15C 5980   0.483   5.882   1.988  1.7656 -0.3554 -0.1946
   70SAPC   C11 5981   0.611   6.239   2.160 -0.5865 -0.6774 -0.1580
   70SAPC  H11A 5982   0.722   6.234   2.172 -0.7233 -0.7014  1.2436
   70SAPC  H11B 5983   0.565   6.257   2.259  0.1036  1.2769 -0.1542
   70SAPC     P 5984   0.464   6.430   2.069  0.4988 -0.1985 -0.0641
   70SAPC   O13 5985   0.482   6.578   2.042  0.1664  0.3350  0.5269
   70SAPC   O14 5986   0.383   6.361   1.966 -0.2422 -0.5548 -0.2573
   70SAPC   O12 5987   0.600   6.356   2.081 -0.3101  0.0161 -0.0817
   70SAPC   O11 5988   0.397   6.409   2.212 -0.3502 -0.2841  0.5849
   70SAPC    C1 5989   0.382   6.513   2.307 -1.2911  0.0082  0.6820
   70SAPC    HA 5990   0.480   6.559   2.332 -1.1026  0.1169 -0.2178
   70SAPC    HB 5991   0.306   6.584   2.267 -1.6893 -0.8535 -0.1360
   70SAPC    C2 5992   0.319   6.466   2.442 -0.3501  0.8824 -0.1418
   70SAPC    HS 5993   0.237   6.398   2.409  1.3444 -1.1084 -0.5270
   70SAPC   O21 5994   0.276   6.569   2.519  0.1837 -0.3535 -0.0177
   70SAPC   C21 5995   0.153   6.561   2.572 -0.5795 -0.1245 -0.1511
   70SAPC   O22 5996   0.076   6.473   2.559  0.0450  0.1260  0.5506
   70SAPC   C22 5997   0.125   6.691   2.639 -0.6934  0.1553 -0.6106
   70SAPC   H2R 5998   0.213   6.757   2.654 -2.2816  2.1310  0.5486
   70SAPC   H2S 5999   0.048   6.752   2.587 -0.2258  1.0562 -0.2743
   70SAPC    C3 6000   0.429   6.381   2.515 -0.4625 -0.5001 -0.2993
   70SAPC    HX 6001   0.517   6.448   2.529 -0.4489 -0.2826 -1.3225
   70SAPC    HY 6002   0.466   6.307   2.441 -0.6605 -0.6988 -0.1991
   70SAPC   O31 6003   0.389   6.306   2.641 -0.2958  0.4335 -0.1454
   70SAPC   C31 6004   0.294   6.217   2.609  0.1725  0.5938  0.0101
   70SAPC   O32 6005   0.272   6.179   2.493  0.0785  0.4272 -0.1461
   70SAPC   C32 6006   0.212   6.172   2.736 -0.3927 -0.2696 -0.3708
   70SAPC   H2X 6007   0.275   6.102   2.795 -0.5328  0.5588  0.7798
   70SAPC   H2Y 6008   0.117   6.122   2.707 -3.6392  3.4384  2.6865
   70SAPC   C23 6009   0.070   6.680   2.784 -0.0223  0.0502  0.2341
   70SAPC   H3R 6010  -0.009   6.603   2.786  0.6248 -0.9135 -3.5156
   70SAPC   H3S 6011   0.009   6.769   2.811  0.4975  0.7677 -0.8558
   70SAPC   C24 6012   0.175   6.644   2.893 -1.0941  0.2304  0.5122
   70SAPC   H4R 6013   0.245   6.567   2.855 -2.2626 -0.0266 -1.2304
   70SAPC   H4S 6014   0.118   6.594   2.975 -0.9772 -2.5048 -0.9550
   70SAPC   C25 6015   0.254   6.768   2.935  0.0219 -0.0667 -0.5313
   70SAPC   H5R 6016   0.297   6.822   2.849  2.5434 -3.3475 -1.5760
   70SAPC   C26 6017   0.290   6.793   3.060 -0.0494 -0.1061 -0.3906
   70SAPC   H6R 6018   0.347   6.884   3.082  0.3544 -0.7068  1.2493
   70SAPC   C27 6019   0.255   6.716   3.187  0.4012  0.3134  0.6613
   70SAPC   H7R 6020   0.162   6.660   3.166 -0.2924  1.6619  0.0159
   70SAPC   H7S 6021   0.252   6.796   3.264  1.3185 -0.3444  1.4116
   70SAPC   C28 6022   0.364   6.620   3.223 -0.2676 -0.5977 -0.1479
   70SAPC   H8R 6023   0.396   6.551   3.143 -2.4460 -2.3580  0.3988
   70SAPC   C29 6024   0.425   6.613   3.342  0.3694 -0.3681 -0.4252
   70SAPC   H9R 6025   0.511   6.544   3.345  0.8640  0.1409 -1.8541
   70SAPC  C210 6026   0.404   6.692   3.470  0.0929 -0.2047  0.3286
   70SAPC  H10R 6027   0.429   6.800   3.469 -0.6635 -0.0145  0.9330
   70SAPC  H10S 6028   0.486   6.665   3.539  0.3368  0.0896  0.1598
   70SAPC  C211 6029   0.263   6.668   3.521 -0.4155 -0.5200  0.5656
   70SAPC  H11R 6030   0.184   6.657   3.445  0.3562 -2.2446 -0.0459
   70SAPC  C212 6031   0.232   6.663   3.649 -0.6021  0.5829 -0.1750
   70SAPC  H12R 6032   0.125   6.663   3.676 -0.7744 -1.7960 -0.6632
   70SAPC  C213 6033   0.331   6.690   3.761 -0.6021  0.4414 -0.0534
   70SAPC  H13R 6034   0.274   6.731   3.848  1.0036  2.2037  0.2159
   70SAPC  H13S 6035   0.408   6.763   3.729 -1.7648  1.4902 -0.5744
   70SAPC  C214 6036   0.401   6.565   3.814 -0.0122 -0.2412  0.2229
   70SAPC  H14R 6037   0.476   6.526   3.743  0.6958  1.2080  0.1420
   70SAPC  C215 6038   0.389   6.507   3.932 -1.1317  0.9016 -0.4586
   70SAPC  H15R 6039   0.457   6.422   3.946 -0.1774  1.8317  0.7824
   70SAPC  C216 6040   0.293   6.531   4.047 -0.2615 -0.2105  0.8921
   70SAPC  H16R 6041   0.254   6.438   4.095  1.2504 -1.0124  0.6434
   70SAPC  H16S 6042   0.200   6.580   4.010 -0.9669 -0.6062  2.0895
   70SAPC  C217 6043   0.342   6.615   4.164 -0.1614 -0.1113  0.3326
   70SAPC  H17R 6044   0.365   6.713   4.117 -2.6661  0.4761  0.1898
   70SAPC  H17S 6045   0.422   6.561   4.218  1.2513  2.4668  0.9930
   70SAPC  C218 6046   0.229   6.656   4.256 -0.1595 -0.4442 -0.9461
   70SAPC  H18R 6047   0.182   6.565   4.301 -2.3180  0.9173 -0.2680
   70SAPC  H18S 6048   0.152   6.720   4.208  0.6922  1.3801  0.0369
   70SAPC  C219 6049   0.276   6.743   4.384 -0.3694  0.2176  0.7565
   70SAPC  H19R 6050   0.348   6.683   4.444  1.0111  0.7735 -0.2658
   70SAPC  H19S 6051   0.178   6.768   4.428 -1.2394 -0.1903 -0.8580
   70SAPC  C220 6052   0.357   6.868   4.343  0.0593  0.0922 -0.0232
   70SAPC  H20R 6053   0.438   6.840   4.272  1.2404 -3.6183  2.4367
   70SAPC  H20S 6054   0.407   6.917   4.429  1.4497 -1.1692 -0.0627
   70SAPC  H20T 6055   0.288   6.940   4.296 -0.8019 -1.5836 -1.4348
   70SAPC   C33 6056   0.185   6.284   2.841  0.8849  0.5541  0.2593
   70SAPC   H3X 6057   0.102   6.354   2.817 -0.1733 -0.9148 -0.5002
   70SAPC   H3Y 6058   0.279   6.342   2.858  1.9674 -1.2432  0.7170
   70SAPC   C34 6059   0.152   6.230   2.983  0.3382  0.1502 -0.6800
   70SAPC   H4X 6060   0.237   6.174   3.028 -1.6693 -1.1330  1.8217
   70SAPC   H4Y 6061   0.060   6.175   2.954  0.1984 -0.1532  0.3249
   70SAPC   C35 6062   0.113   6.336   3.081 -0.6568  0.1579 -0.1869
   70SAPC   H5X 6063   0.026   6.402   3.060  0.3966  1.5829 -0.1759
   70SAPC   H5Y 6064   0.206   6.395   3.089 -0.1022 -0.5176 -1.3742
   70SAPC   C36 6065   0.077   6.267   3.216 -0.2585 -0.4044  0.0541
   70SAPC   H6X 6066   0.150   6.189   3.245 -0.0710  0.2707  1.4750
   70SAPC   H6Y 6067  -0.018   6.213   3.194  0.5598 -2.4928  1.3469
   70SAPC   C37 6068   0.073   6.363   3.324 -0.2894 -0.1406 -0.3188
   70SAPC   H7X 6069   0.178   6.396   3.341  0.2865 -2.3998  0.9300
   70SAPC   H7Y 6070   0.019   6.454   3.291  0.8179  0.7552  0.2479
   70SAPC   C38 6071   0.006   6.303   3.449  0.6376  0.2140 -0.6348
   70SAPC   H8X 6072   0.071   6.219   3.480 -2.6860 -2.1640  0.5318
   70SAPC   H8Y 6073  -0.095   6.274   3.413  0.0458  1.5067 -0.0838
   70SAPC   C39 6074  -0.025   6.408   3.556 -0.7895  0.3519 -1.1220
   70SAPC   H9X 6075  -0.048   6.507   3.511 -3.9042  1.0879  1.7107
   70SAPC   H9Y 6076   0.073   6.425   3.606 -0.0597 -1.1383 -1.9762
   70SAPC  C310 6077  -0.138   6.383   3.663 -0.4999 -0.5171  0.2831
   70SAPC  H10X 6078  -0.242   6.369   3.628 -0.4987 -1.6140  0.6555
   70SAPC  H10Y 6079  -0.141   6.476   3.723 -1.4481  0.6451 -1.4630
   70SAPC  C311 6080  -0.120   6.256   3.751  0.0988 -0.2853 -0.1291
   70SAPC  H11X 6081  -0.116   6.172   3.679  0.3344 -2.8709  2.7023
   70SAPC  H11Y 6082  -0.213   6.244   3.811 -0.5843  0.8463 -0.9190
   70SAPC  C312 6083   0.006   6.252   3.836 -0.3604  0.1857 -0.3235
   70SAPC  H12X 6084   0.022   6.351   3.885  3.8460  0.8327 -2.5582
   70SAPC  H12Y 6085   0.098   6.246   3.774 -1.1923  0.9317 -1.7051
   70SAPC  C313 6086   0.012   6.133   3.921 -0.4864  0.1373  0.1894
   70SAPC  H13X 6087   0.010   6.041   3.859  1.1976 -0.1666  0.5264
   70SAPC  H13Y 6088  -0.080   6.123   3.982 -0.5121 -1.9944 -0.1348
   70SAPC  C314 6089   0.131   6.125   4.021 -1.1621  0.4811 -0.3716
   70SAPC  H14X 6090   0.121   6.180   4.117  1.5781 -0.0810  0.3276
   70SAPC  H14Y 6091   0.217   6.167   3.965 -0.2348  1.3586  1.5982
   70SAPC  C315 6092   0.178   5.984   4.048  0.7525  0.1414  0.3914
   70SAPC  H15X 6093   0.216   5.943   3.952  1.3714  2.9475 -0.6612
   70SAPC  H15Y 6094   0.102   5.912   4.085 -1.2900  0.2810 -3.0451
   70SAPC  C316 6095   0.295   5.991   4.136  0.6814  0.3635 -0.2335
   70SAPC  H16X 6096   0.262   6.048   4.226  2.0478  2.8628 -1.2064
   70SAPC  H16Y 6097   0.368   6.062   4.093  1.2812 -0.7142 -1.0444
   70SAPC  C317 6098   0.372   5.854   4.161 -0.1147 -0.8789 -0.8600
   70SAPC  H17X 6099   0.459   5.878   4.227  0.1160  1.0202 -1.7704
   70SAPC  H17Y 6100   0.399   5.800   4.068  4.1039 -0.1102 -0.2825
   70SAPC  C318 6101   0.289   5.747   4.232  0.1542 -0.3669 -0.0756
   70SAPC  H18X 6102   0.257   5.790   4.329 -0.0037  0.4267 -0.4697
   70SAPC  H18Y 6103   0.357   5.668   4.272  0.6409 -0.6118 -1.3464
   70SAPC  H18Z 6104   0.208   5.705   4.169 -0.2358 -0.2524  0.3504
   71SAPC     N 6105   6.393   6.192   1.402  0.2891 -0.8232 -1.0250
   71SAPC   C12 6106   6.299   6.216   1.532  0.0091 -0.1657  0.3431
   71SAPC  H12A 6107   6.201   6.177   1.509  1.5306 -2.6460 -2.7186
   71SAPC  H12B 6108   6.304   6.324   1.539 -0.6968 -0.2289  2.7424
   71SAPC   C13 6109   6.380   6.049   1.372  0.0299  0.8437 -0.6995
   71SAPC  H13A 6110   6.281   6.026   1.335  0.7432  0.0646 -2.2491
   71SAPC  H13B 6111   6.455   6.018   1.300  0.1657  0.2245 -0.2971
   71SAPC  H13C 6112   6.393   5.991   1.462 -0.4164  2.3518  0.3835
   71SAPC   C14 6113   6.343   6.266   1.288 -1.0734 -0.3524 -0.9948
   71SAPC  H14A 6114   6.405   6.245   1.202 -1.0321 -3.8128 -0.2884
   71SAPC  H14B 6115   6.238   6.248   1.268 -1.5442  1.1635 -0.0191
   71SAPC  H14C 6116   6.355   6.366   1.326  0.7953 -2.0146  3.5782
   71SAPC   C15 6117   6.538   6.227   1.423 -0.3274  0.1562 -0.0272
   71SAPC  H15A 6118   6.590   6.188   1.337 -2.5758 -1.7379 -0.6397
   71SAPC  H15B 6119   6.553   6.333   1.439  0.7463 -0.2344  1.8834
   71SAPC  H15C 6120   6.585   6.189   1.513 -1.2065  4.7798  2.7470
   71SAPC   C11 6121   6.347   6.154   1.668  0.0257  0.8763  0.9691
   71SAPC  H11A 6122   6.276   6.203   1.738  0.6143  1.9503  0.8316
   71SAPC  H11B 6123   6.452   6.179   1.692  0.8519 -0.5800 -0.8806
   71SAPC     P 6124   6.216   5.917   1.689  0.0125 -0.0820 -0.3674
   71SAPC   O13 6125   6.093   5.993   1.661 -0.5666 -0.0965  0.7452
   71SAPC   O14 6126   6.227   5.789   1.616 -0.8061 -0.2157  0.4786
   71SAPC   O12 6127   6.339   6.009   1.671  0.2194  0.3857 -0.1864
   71SAPC   O11 6128   6.223   5.880   1.839 -0.1064 -0.1686 -0.0354
   71SAPC    C1 6129   6.241   5.986   1.936 -0.1336  0.3472  0.1080
   71SAPC    HA 6130   6.324   6.052   1.903 -1.2133  1.8385  0.2710
   71SAPC    HB 6131   6.156   6.058   1.944 -0.0994  0.8444 -3.0315
   71SAPC    C2 6132   6.270   5.939   2.083  0.4150 -0.7739  0.6307
   71SAPC    HS 6133   6.188   5.876   2.124 -0.4537  0.6668  1.1977
   71SAPC   O21 6134   6.279   6.058   2.164  0.1131  0.0408 -0.2049
   71SAPC   C21 6135   6.169   6.087   2.234  0.5390  1.0200  0.3206
   71SAPC   O22 6136   6.061   6.033   2.216 -0.1592  0.0205 -0.0788
   71SAPC   C22 6137   6.200   6.199   2.335  0.0405 -0.0267 -0.0543
   71SAPC   H2R 6138   6.245   6.145   2.421  0.5411 -0.7410 -0.7548
   71SAPC   H2S 6139   6.279   6.261   2.287  1.2904 -1.9868 -0.6232
   71SAPC    C3 6140   6.399   5.861   2.084  0.2472  0.3059 -0.8078
   71SAPC    HX 6141   6.479   5.924   2.040 -1.2961  0.3430 -3.7792
   71SAPC    HY 6142   6.380   5.775   2.017 -2.4499  1.6293 -1.8950
   71SAPC   O31 6143   6.431   5.820   2.220  0.5970  0.1280  0.1120
   71SAPC   C31 6144   6.545   5.752   2.240 -0.0574  0.3153  0.4404
   71SAPC   O32 6145   6.608   5.697   2.147 -0.1852 -0.4477 -0.3206
   71SAPC   C32 6146   6.584   5.764   2.379  0.4109  0.0940  0.1653
   71SAPC   H2X 6147   6.675   5.700   2.387 -0.6746 -1.9747 -2.5523
   71SAPC   H2Y 6148   6.500   5.731   2.444 -1.7345  1.3088 -1.8249
   71SAPC   C23 6149   6.078   6.280   2.373 -0.7615 -0.2542  0.0668
   71SAPC   H3R 6150   5.996   6.211   2.400 -0.7572 -1.1789 -2.1152
   71SAPC   H3S 6151   6.033   6.327   2.283  0.3887  4.8312  1.8102
   71SAPC   C24 6152   6.113   6.382   2.485  0.0009  0.0481  0.0399
   71SAPC   H4R 6153   6.025   6.448   2.502  1.4732  1.7381  1.3551
   71SAPC   H4S 6154   6.194   6.444   2.440  1.3514 -2.1146 -0.6546
   71SAPC   C25 6155   6.157   6.312   2.613  0.5904 -0.6333  0.2774
   71SAPC   H5R 6156   6.267   6.311   2.623  0.4193  0.5592  3.3594
   71SAPC   C26 6157   6.078   6.267   2.714 -0.4972 -0.9212  0.7770
   71SAPC   H6R 6158   6.126   6.230   2.806  2.0177  2.4550  1.0201
   71SAPC   C27 6159   5.922   6.273   2.717 -0.5503 -0.3489  0.5254
   71SAPC   H7R 6160   5.894   6.362   2.656  0.9521 -0.9964 -1.1909
   71SAPC   H7S 6161   5.883   6.278   2.821 -1.1726 -0.3084  0.2924
   71SAPC   C28 6162   5.861   6.151   2.650 -0.2092  1.0096  0.1103
   71SAPC   H8R 6163   5.851   6.147   2.540 -4.5518 -0.4280  0.3521
   71SAPC   C29 6164   5.840   6.034   2.706 -0.4200  0.3215  0.4070
   71SAPC   H9R 6165   5.799   5.960   2.635 -0.6256  0.8399 -0.0284
   71SAPC  C210 6166   5.851   5.999   2.853  0.5215 -0.6339 -0.4197
   71SAPC  H10R 6167   5.948   6.046   2.879  0.7967 -0.0893 -2.3320
   71SAPC  H10S 6168   5.879   5.894   2.873  3.6134  0.1862  0.1628
   71SAPC  C211 6169   5.722   6.034   2.935  0.4613  0.0669 -0.7142
   71SAPC  H11R 6170   5.621   6.004   2.903 -0.7760  3.4606 -0.4147
   71SAPC  C212 6171   5.731   6.079   3.060 -0.0631  0.1023  0.4862
   71SAPC  H12R 6172   5.647   6.110   3.125 -1.3639 -1.7409 -0.2263
   71SAPC  C213 6173   5.870   6.121   3.121 -0.0040 -0.0264 -0.2619
   71SAPC  H13R 6174   5.946   6.162   3.052  0.5005 -0.3771  0.0842
   71SAPC  H13S 6175   5.911   6.024   3.158 -0.7293  0.1890  1.2013
   71SAPC  C214 6176   5.860   6.222   3.239 -0.2583 -0.2008  0.5886
   71SAPC  H14R 6177   5.896   6.324   3.220 -0.1538 -0.2486  0.5223
   71SAPC  C215 6178   5.812   6.200   3.360  0.8659  0.2009 -0.2748
   71SAPC  H15R 6179   5.826   6.277   3.437 -0.5068  0.8486 -0.6445
   71SAPC  C216 6180   5.751   6.074   3.416 -0.2397  0.2291 -0.2654
   71SAPC  H16R 6181   5.800   6.039   3.510  1.0375  0.5624 -0.8034
   71SAPC  H16S 6182   5.746   5.996   3.338  1.0820  0.6215 -0.7561
   71SAPC  C217 6183   5.610   6.105   3.464  1.0580 -0.3985 -0.4408
   71SAPC  H17R 6184   5.539   6.021   3.474 -0.5860  0.8614 -1.0189
   71SAPC  H17S 6185   5.560   6.149   3.375  0.7801 -2.5503 -1.3872
   71SAPC  C218 6186   5.612   6.189   3.597  0.3706 -0.2729 -0.0791
   71SAPC  H18R 6187   5.560   6.287   3.594 -0.9111 -0.7186  3.0771
   71SAPC  H18S 6188   5.717   6.209   3.626  0.5746 -2.1440  0.6752
   71SAPC  C219 6189   5.562   6.118   3.719  0.6364  0.0220 -0.8519
   71SAPC  H19R 6190   5.473   6.060   3.685  2.3928 -2.2715 -1.8002
   71SAPC  H19S 6191   5.536   6.178   3.809 -0.0113 -0.1588 -0.9091
   71SAPC  C220 6192   5.656   6.011   3.775  0.0240  0.8120  0.9319
   71SAPC  H20R 6193   5.631   5.972   3.876 -1.1655 -0.1649  0.2814
   71SAPC  H20S 6194   5.758   6.050   3.793  0.4623 -0.9211  2.4764
   71SAPC  H20T 6195   5.670   5.927   3.705  0.8464  1.0495  0.7950
   71SAPC   C33 6196   6.643   5.899   2.419 -0.0161  0.2654 -0.7621
   71SAPC   H3X 6197   6.553   5.963   2.428 -0.7912 -1.0863  3.2187
   71SAPC   H3Y 6198   6.712   5.931   2.339  1.3025 -0.4057  0.0574
   71SAPC   C34 6199   6.739   5.902   2.542 -0.3127  0.3991  0.1688
   71SAPC   H4X 6200   6.821   5.975   2.524  1.8796 -1.9315  0.0601
   71SAPC   H4Y 6201   6.788   5.804   2.526 -0.6267  0.1281  0.7942
   71SAPC   C35 6202   6.674   5.919   2.679  0.5960  0.2364 -0.1173
   71SAPC   H5X 6203   6.592   5.844   2.682 -0.1477  1.0163 -0.6081
   71SAPC   H5Y 6204   6.629   6.017   2.706  1.3646  0.9211 -1.2663
   71SAPC   C36 6205   6.768   5.873   2.782  0.0282 -0.6957  0.2271
   71SAPC   H6X 6206   6.839   5.956   2.803  1.5216 -2.1944  1.4108
   71SAPC   H6Y 6207   6.815   5.778   2.749 -1.6478 -1.6568  0.4922
   71SAPC   C37 6208   6.694   5.843   2.912  0.5464  0.7371 -0.1741
   71SAPC   H7X 6209   6.651   5.741   2.916  0.5998  0.7429  2.1042
   71SAPC   H7Y 6210   6.610   5.914   2.928  0.5273  0.3724  1.6537
   71SAPC   C38 6211   6.782   5.839   3.037 -0.3944  0.0980  0.2086
   71SAPC   H8X 6212   6.844   5.930   3.051 -1.9470  1.2268 -0.0406
   71SAPC   H8Y 6213   6.850   5.751   3.037 -2.7535 -1.8632  0.6623
   71SAPC   C39 6214   6.690   5.833   3.163 -0.0441  0.6145 -0.0379
   71SAPC   H9X 6215   6.628   5.741   3.151 -1.5506  1.7358 -1.2749
   71SAPC   H9Y 6216   6.625   5.923   3.159 -1.4608 -0.2276  2.0095
   71SAPC  C310 6217   6.761   5.823   3.298 -1.3377 -0.7266 -0.0727
   71SAPC  H10X 6218   6.830   5.911   3.298  0.8306 -2.3406 -0.2068
   71SAPC  H10Y 6219   6.824   5.732   3.310 -2.2816 -1.6093 -1.5785
   71SAPC  C311 6220   6.659   5.831   3.412  0.3184  0.5482  0.2004
   71SAPC  H11X 6221   6.602   5.735   3.413  1.1624  0.0340  1.0634
   71SAPC  H11Y 6222   6.595   5.920   3.393 -0.8770 -0.5034 -0.8840
   71SAPC  C312 6223   6.721   5.857   3.561 -0.5651 -0.5206 -0.0677
   71SAPC  H12X 6224   6.751   5.964   3.566 -1.2631 -0.2856 -0.7844
   71SAPC  H12Y 6225   6.816   5.800   3.571  1.0314  1.9600 -0.2863
   71SAPC  C313 6226   6.620   5.837   3.673  0.5857 -0.5495 -0.5061
   71SAPC  H13X 6227   6.679   5.829   3.766 -0.0679 -2.5535 -0.2165
   71SAPC  H13Y 6228   6.563   5.743   3.656 -1.3109  0.5111 -0.3681
   71SAPC  C314 6229   6.513   5.949   3.667 -0.7636  0.3959 -0.4787
   71SAPC  H14X 6230   6.443   5.943   3.580 -0.0809  0.1255 -1.0154
   71SAPC  H14Y 6231   6.563   6.047   3.656  0.1800 -0.0318 -0.0756
   71SAPC  C315 6232   6.424   5.973   3.790  0.0626  0.6524 -0.1346
   71SAPC  H15X 6233   6.377   5.876   3.819 -0.2216  0.8440  0.0516
   71SAPC  H15Y 6234   6.344   6.047   3.768  0.8620  1.3318 -0.7848
   71SAPC  C316 6235   6.495   6.018   3.920  0.2531 -0.2945 -0.0797
   71SAPC  H16X 6236   6.444   6.108   3.962 -0.2622 -1.2106  1.3400
   71SAPC  H16Y 6237   6.597   6.046   3.885  1.0689  0.9327  2.9000
   71SAPC  C317 6238   6.501   5.903   4.019 -0.3152  0.0960 -0.3041
   71SAPC  H17X 6239   6.558   5.823   3.967 -2.8104 -1.3026 -1.0361
   71SAPC  H17Y 6240   6.402   5.873   4.059 -0.6246  1.2282 -0.1821
   71SAPC  C318 6241   6.588   5.933   4.146  0.5184 -0.2537  0.2670
   71SAPC  H18X 6242   6.528   6.003   4.207  3.2051  1.7839  0.7451
   71SAPC  H18Y 6243   6.684   5.982   4.120  0.7962 -0.2873  1.2039
   71SAPC  H18Z 6244   6.605   5.845   4.212  0.4641 -0.1915  0.3625
   72SAPC     N 6245   5.853   4.351   2.360  0.6689 -0.4523 -0.1253
   72SAPC   C12 6246   5.872   4.281   2.491  0.7023  0.3558  0.0418
   72SAPC  H12A 6247   5.773   4.259   2.530  1.2892 -0.2057  1.2616
   72SAPC  H12B 6248   5.921   4.351   2.557 -3.0395  2.5633  0.7613
   72SAPC   C13 6249   5.977   4.354   2.275  0.2619 -0.4005  0.1381
   72SAPC  H13A 6250   6.008   4.255   2.245 -2.0305 -1.8354  2.1331
   72SAPC  H13B 6251   5.963   4.410   2.184  1.1876  0.0664  0.2701
   72SAPC  H13C 6252   6.053   4.408   2.330 -0.6375 -0.4855  1.4856
   72SAPC   C14 6253   5.739   4.285   2.291 -0.0488  0.6643  0.0507
   72SAPC  H14A 6254   5.647   4.311   2.340 -1.1391 -0.5032 -1.2687
   72SAPC  H14B 6255   5.741   4.324   2.190  0.4412 -0.5669 -0.4355
   72SAPC  H14C 6256   5.754   4.178   2.292 -0.3093  0.5774 -1.6226
   72SAPC   C15 6257   5.807   4.498   2.390 -0.1289 -0.1535 -0.4701
   72SAPC  H15A 6258   5.748   4.535   2.307 -0.1866  0.1113 -0.3098
   72SAPC  H15B 6259   5.746   4.504   2.478 -0.8482  1.8235 -1.0602
   72SAPC  H15C 6260   5.899   4.553   2.405 -0.0197 -0.8754  1.9890
   72SAPC   C11 6261   5.954   4.147   2.487 -0.2456  0.4923  0.0304
   72SAPC  H11A 6262   5.973   4.118   2.592  0.9777  2.2226  0.3085
   72SAPC  H11B 6263   6.055   4.150   2.441  0.4261 -3.1276  0.9108
   72SAPC     P 6264   5.752   3.971   2.471 -0.2964  0.1295  0.1747
   72SAPC   O13 6265   5.630   4.004   2.391 -0.0432 -0.0361  0.3835
   72SAPC   O14 6266   5.794   3.832   2.487 -0.1697 -0.1954  0.0019
   72SAPC   O12 6267   5.881   4.050   2.414  0.2617  0.5197 -0.1681
   72SAPC   O11 6268   5.728   4.036   2.608 -0.6104 -0.0795  0.8859
   72SAPC    C1 6269   5.748   3.968   2.731 -0.4928 -0.0382 -0.1504
   72SAPC    HA 6270   5.734   3.858   2.718 -0.0009 -0.1012 -0.1550
   72SAPC    HB 6271   5.851   3.998   2.760 -0.4309 -0.2641 -0.1345
   72SAPC    C2 6272   5.646   4.016   2.838  0.3528  0.4483 -0.0507
   72SAPC    HS 6273   5.552   4.058   2.797 -2.5991 -2.5783  2.9309
   72SAPC   O21 6274   5.721   4.104   2.922 -0.4639 -0.1475  0.5366
   72SAPC   C21 6275   5.729   4.230   2.886  0.3307  0.1382  0.3897
   72SAPC   O22 6276   5.694   4.272   2.776 -0.4748 -0.1469 -0.0611
   72SAPC   C22 6277   5.749   4.311   3.017  0.4280  0.1945  0.1126
   72SAPC   H2R 6278   5.822   4.253   3.080 -0.4224 -0.7338  0.2718
   72SAPC   H2S 6279   5.783   4.412   2.988 -0.3411  0.6971  0.9215
   72SAPC    C3 6280   5.595   3.894   2.932 -0.2772  0.5576  0.7597
   72SAPC    HX 6281   5.550   3.821   2.861  3.2527 -0.3881 -0.7417
   72SAPC    HY 6282   5.509   3.922   2.996 -1.5334 -3.0138  0.8442
   72SAPC   O31 6283   5.699   3.824   3.005  0.5304 -0.4252  1.0104
   72SAPC   C31 6284   5.726   3.880   3.125  0.9656  0.0957 -0.0653
   72SAPC   O32 6285   5.663   3.977   3.170  0.7770  0.2024  0.3475
   72SAPC   C32 6286   5.844   3.808   3.194 -0.2698  0.0011 -0.3379
   72SAPC   H2X 6287   5.861   3.706   3.155  1.4707  0.2102 -0.2241
   72SAPC   H2Y 6288   5.822   3.799   3.303 -2.2349  0.8648 -0.6277
   72SAPC   C23 6289   5.611   4.339   3.086  0.4586 -0.2244 -0.1076
   72SAPC   H3R 6290   5.539   4.255   3.091 -1.2990  1.2222 -0.1366
   72SAPC   H3S 6291   5.560   4.413   3.022 -0.6710 -0.2635  0.7177
   72SAPC   C24 6292   5.603   4.415   3.220  0.2365  0.2285  0.0609
   72SAPC   H4R 6293   5.497   4.427   3.248 -0.3631  0.7941 -2.2199
   72SAPC   H4S 6294   5.638   4.519   3.203 -0.0447  0.2480 -0.4142
   72SAPC   C25 6295   5.676   4.321   3.309 -0.1622  0.6470 -0.1895
   72SAPC   H5R 6296   5.654   4.213   3.315 -1.7138  0.8554 -1.6715
   72SAPC   C26 6297   5.775   4.360   3.388 -0.2577  0.0798  0.0325
   72SAPC   H6R 6298   5.825   4.285   3.450  1.4692  1.1190 -0.0294
   72SAPC   C27 6299   5.826   4.500   3.392 -0.5141 -0.2362 -0.9660
   72SAPC   H7R 6300   5.850   4.523   3.497  0.3169  0.9405 -1.3895
   72SAPC   H7S 6301   5.744   4.574   3.381 -0.0287  0.9188  2.2628
   72SAPC   C28 6302   5.940   4.524   3.295  0.1396 -1.1543  0.0766
   72SAPC   H8R 6303   5.924   4.486   3.193 -1.6956 -0.0032 -0.1117
   72SAPC   C29 6304   6.050   4.596   3.329  0.2280  0.4634 -1.0247
   72SAPC   H9R 6305   6.128   4.610   3.253  1.2610 -0.0015 -0.0858
   72SAPC  C210 6306   6.088   4.646   3.468 -0.9041 -0.2875  0.9062
   72SAPC  H10R 6307   6.059   4.561   3.534  2.3514 -2.6173 -0.3983
   72SAPC  H10S 6308   6.023   4.733   3.491 -0.3256  0.4146 -0.0235
   72SAPC  C211 6309   6.237   4.688   3.459  0.6521  0.3214  0.3154
   72SAPC  H11R 6310   6.305   4.647   3.382  1.9045  4.3487 -0.9659
   72SAPC  C212 6311   6.290   4.788   3.532 -0.1233 -0.8621 -0.5782
   72SAPC  H12R 6312   6.396   4.817   3.522 -0.3516  1.1001  1.7348
   72SAPC  C213 6313   6.218   4.874   3.633  0.3221 -0.5526  0.1523
   72SAPC  H13R 6314   6.288   4.894   3.717  0.0780 -1.3796  0.5560
   72SAPC  H13S 6315   6.127   4.822   3.669 -1.1794  0.0654 -2.4824
   72SAPC  C214 6316   6.168   5.002   3.571  0.3406  0.1776 -0.0768
   72SAPC  H14R 6317   6.129   4.996   3.468 -1.7131 -0.0156  0.6641
   72SAPC  C215 6318   6.172   5.122   3.632  0.0018 -0.2973  0.2312
   72SAPC  H15R 6319   6.141   5.217   3.586  0.5986  0.4768  1.3884
   72SAPC  C216 6320   6.212   5.142   3.779 -0.8655  0.7370 -0.0133
   72SAPC  H16R 6321   6.309   5.194   3.786 -0.5092  0.0547  0.2276
   72SAPC  H16S 6322   6.220   5.047   3.836  0.0399 -0.3735 -1.8998
   72SAPC  C217 6323   6.102   5.235   3.838 -0.0821 -0.1683  0.2907
   72SAPC  H17R 6324   6.002   5.188   3.831 -1.1129  1.8524  0.8428
   72SAPC  H17S 6325   6.096   5.330   3.781 -2.2647  0.0751  0.8519
   72SAPC  C218 6326   6.139   5.288   3.975 -0.0585 -0.3205  0.4414
   72SAPC  H18R 6327   6.236   5.344   3.975 -0.5128  0.4838  0.4575
   72SAPC  H18S 6328   6.148   5.207   4.050 -0.1213 -2.4160 -1.6955
   72SAPC  C219 6329   6.047   5.393   4.031  0.2088  0.1296  0.3709
   72SAPC  H19R 6330   5.945   5.352   4.042  0.0044  0.7551  0.8850
   72SAPC  H19S 6331   6.040   5.478   3.960  0.7731 -0.7970 -0.8384
   72SAPC  C220 6332   6.095   5.441   4.165 -0.6610 -0.6051  0.5527
   72SAPC  H20R 6333   6.190   5.498   4.162 -1.3953  0.8742  2.3571
   72SAPC  H20S 6334   6.101   5.351   4.229  1.2108 -2.7444 -2.3851
   72SAPC  H20T 6335   6.022   5.516   4.202 -0.7491 -0.2799 -0.2583
   72SAPC   C33 6336   5.974   3.885   3.175 -0.6924  0.0902  0.4914
   72SAPC   H3X 6337   5.981   3.931   3.074  1.4996 -2.0356 -0.4375
   72SAPC   H3Y 6338   6.052   3.806   3.176  2.1598  2.7295  2.1713
   72SAPC   C34 6339   6.002   3.989   3.281  0.3464 -0.1758  0.4234
   72SAPC   H4X 6340   5.917   4.059   3.290 -0.2526 -1.0428  1.7135
   72SAPC   H4Y 6341   6.095   4.043   3.252 -0.5848  0.9649 -0.5055
   72SAPC   C35 6342   6.028   3.927   3.418  0.1571 -0.4074 -0.1736
   72SAPC   H5X 6343   6.136   3.902   3.424  0.5630  0.6928 -1.9796
   72SAPC   H5Y 6344   5.976   3.830   3.435  1.0179 -0.6906  0.9177
   72SAPC   C36 6345   5.998   4.024   3.533  0.2347  0.1081 -0.5030
   72SAPC   H6X 6346   5.976   3.954   3.617  1.9400 -1.2306 -1.1114
   72SAPC   H6Y 6347   5.908   4.088   3.527 -0.2288 -0.4796  0.0369
   72SAPC   C37 6348   6.123   4.110   3.572  0.2536  0.8556 -0.3841
   72SAPC   H7X 6349   6.137   4.192   3.498  0.9114  3.6368  2.5892
   72SAPC   H7Y 6350   6.209   4.040   3.565 -1.0011 -0.6523 -1.4522
   72SAPC   C38 6351   6.116   4.186   3.698  0.3277 -0.2574 -0.5386
   72SAPC   H8X 6352   6.115   4.116   3.784  0.0518 -0.2366 -0.5243
   72SAPC   H8Y 6353   6.025   4.249   3.691  0.8404  0.4423 -1.1374
   72SAPC   C39 6354   6.239   4.282   3.708  0.9351 -0.0340  0.1474
   72SAPC   H9X 6355   6.234   4.369   3.638  3.0029 -0.2271 -0.3118
   72SAPC   H9Y 6356   6.326   4.222   3.674  0.6026 -0.3460 -0.1686
   72SAPC  C310 6357   6.272   4.321   3.855 -0.4184 -0.5512 -0.2147
   72SAPC  H10X 6358   6.275   4.225   3.910  2.9645 -0.0493  0.6549
   72SAPC  H10Y 6359   6.191   4.389   3.890 -1.6883 -0.0205 -3.6985
   72SAPC  C311 6360   6.409   4.387   3.870 -0.3726 -0.6492  0.4555
   72SAPC  H11X 6361   6.418   4.484   3.816  3.1762 -0.2246  1.5736
   72SAPC  H11Y 6362   6.482   4.309   3.841 -1.3633 -1.3050 -0.3566
   72SAPC  C312 6363   6.440   4.436   4.011 -0.1581 -0.0640 -0.2515
   72SAPC  H12X 6364   6.371   4.512   4.053 -0.5538 -0.2299 -0.5944
   72SAPC  H12Y 6365   6.532   4.497   3.998 -0.9137  1.2901  0.5947
   72SAPC  C313 6366   6.465   4.324   4.118  0.7230  0.4533  0.1575
   72SAPC  H13X 6367   6.506   4.235   4.066 -0.1746 -1.5923  2.7552
   72SAPC  H13Y 6368   6.363   4.294   4.150  0.0416  0.9352 -1.4499
   72SAPC  C314 6369   6.554   4.378   4.228 -0.0441  0.6768  0.2463
   72SAPC  H14X 6370   6.513   4.476   4.261  1.0106  0.2289  3.1197
   72SAPC  H14Y 6371   6.657   4.389   4.187 -0.0007 -0.4052  0.0236
   72SAPC  C315 6372   6.564   4.292   4.357 -0.6096 -0.4176  0.1149
   72SAPC  H15X 6373   6.648   4.339   4.411 -1.9448  1.6363  0.5169
   72SAPC  H15Y 6374   6.607   4.192   4.334 -0.1936 -0.3062  0.4018
   72SAPC  C316 6375   6.439   4.272   4.449  0.0637 -0.6428 -0.5540
   72SAPC  H16X 6376   6.468   4.218   4.542 -1.9641  0.8106  1.0184
   72SAPC  H16Y 6377   6.371   4.203   4.394  2.7417 -1.2499 -3.3979
   72SAPC  C317 6378   6.375   4.407   4.488  0.8816  0.9180 -0.0821
   72SAPC  H17X 6379   6.360   4.475   4.401  0.2820  2.2669  1.0344
   72SAPC  H17Y 6380   6.452   4.464   4.544  2.1716  1.5474 -2.3561
   72SAPC  C318 6381   6.245   4.383   4.568  0.2843  0.3854 -0.2367
   72SAPC  H18X 6382   6.183   4.474   4.584 -2.7743 -0.9804 -3.0598
   72SAPC  H18Y 6383   6.281   4.349   4.668 -0.9186 -1.3999 -0.3614
   72SAPC  H18Z 6384   6.180   4.303   4.526  0.2620  1.3151 -2.0839
   73SLPC     N 6385   1.455   3.414   6.860  0.2308 -0.0290 -0.7127
   73SLPC   C13 6386   1.349   3.311   6.822 -0.3536  0.1091 -1.1917
   73SLPC  H13A 6387   1.284   3.351   6.746 -2.4148 -0.0472  0.4002
   73SLPC  H13B 6388   1.388   3.216   6.788  0.1174 -0.5538  1.0109
   73SLPC  H13C 6389   1.286   3.295   6.908 -1.4819  1.3775 -1.7603
   73SLPC   C14 6390   1.544   3.358   6.971  0.0486 -0.4461 -0.0567
   73SLPC  H14A 6391   1.610   3.431   7.016 -0.8236  0.0109  0.5354
   73SLPC  H14B 6392   1.484   3.325   7.055  0.7472 -3.0985 -0.5080
   73SLPC  H14C 6393   1.595   3.272   6.932 -0.5596 -0.8729  0.0816
   73SLPC   C15 6394   1.388   3.536   6.915  0.3355 -0.1473  0.0048
   73SLPC  H15A 6395   1.331   3.586   6.839 -1.1383  0.2140  1.2971
   73SLPC  H15B 6396   1.322   3.502   6.993 -1.4819  0.1656 -1.3470
   73SLPC  H15C 6397   1.459   3.607   6.954  0.5491  0.3763 -1.3056
   73SLPC   C12 6398   1.528   3.453   6.729  0.7955 -0.7106  0.2418
   73SLPC  H12A 6399   1.576   3.549   6.743  2.8432 -1.4299 -1.3482
   73SLPC  H12B 6400   1.453   3.469   6.654 -1.1081 -2.3245  1.6752
   73SLPC   C11 6401   1.634   3.366   6.668  0.2356 -0.3732 -0.2874
   73SLPC  H11A 6402   1.701   3.349   6.756  0.2990 -2.5438 -0.7026
   73SLPC  H11B 6403   1.692   3.416   6.588  0.1087  1.1739  0.5616
   73SLPC     P 6404   1.504   3.231   6.495 -0.3348 -0.1299  0.4302
   73SLPC   O13 6405   1.593   3.209   6.381 -0.0172  0.2460  0.2048
   73SLPC   O14 6406   1.395   3.132   6.516  0.3014 -0.2912 -0.1660
   73SLPC   O12 6407   1.579   3.240   6.626  0.0091  0.2174 -0.2787
   73SLPC   O11 6408   1.434   3.370   6.487 -0.1161 -0.3023 -0.4096
   73SLPC    C1 6409   1.326   3.392   6.408  0.9090 -0.4324  0.3345
   73SLPC    HA 6410   1.267   3.301   6.385  1.5590 -0.6247 -0.6240
   73SLPC    HB 6411   1.248   3.439   6.471 -0.6724 -1.2965 -0.9199
   73SLPC    C2 6412   1.365   3.478   6.290  0.9779 -0.3709 -0.4174
   73SLPC    HS 6413   1.270   3.526   6.258  0.7372  0.2217  1.0835
   73SLPC   O21 6414   1.412   3.399   6.180  0.0999  0.3539 -0.2691
   73SLPC   C21 6415   1.327   3.321   6.119  0.0281 -0.7505  0.0097
   73SLPC   O22 6416   1.208   3.309   6.151 -0.6907 -0.6995  0.1797
   73SLPC   C22 6417   1.399   3.256   6.003  0.2370 -0.3148 -0.1746
   73SLPC   H2R 6418   1.477   3.324   5.962  0.8321 -1.0716 -0.3156
   73SLPC   H2S 6419   1.450   3.169   6.049 -0.7946  0.5211  2.8208
   73SLPC    C3 6420   1.476   3.579   6.318 -0.4045 -0.8608 -0.0928
   73SLPC    HX 6421   1.571   3.525   6.337  0.0709  0.6275  2.2496
   73SLPC    HY 6422   1.454   3.637   6.411  0.7166 -0.2194 -0.2101
   73SLPC   O31 6423   1.489   3.667   6.202 -0.3265  0.5269  0.7031
   73SLPC   C31 6424   1.420   3.775   6.206  0.1941 -0.0688 -0.6490
   73SLPC   O32 6425   1.367   3.814   6.309  0.0186 -0.1378  0.4990
   73SLPC   C32 6426   1.422   3.852   6.066 -0.3217 -0.3006 -0.3942
   73SLPC   H2X 6427   1.486   3.938   6.094  0.4180 -1.0495  0.2857
   73SLPC   H2Y 6428   1.316   3.877   6.045 -0.7152 -1.3129  0.2935
   73SLPC   C23 6429   1.307   3.211   5.885 -0.4690 -0.1327  0.8410
   73SLPC   H3R 6430   1.233   3.291   5.862 -1.8205 -1.9558 -1.6592
   73SLPC   H3S 6431   1.260   3.114   5.910 -0.6449 -1.4924 -3.8108
   73SLPC   C24 6432   1.382   3.187   5.754  0.2810  0.0179  0.1551
   73SLPC   H4R 6433   1.307   3.147   5.683  1.0108  1.8332 -1.7433
   73SLPC   H4S 6434   1.455   3.109   5.786 -2.0799 -1.9995  0.9046
   73SLPC   C25 6435   1.439   3.315   5.692 -0.0490 -0.5984  0.3977
   73SLPC   H5R 6436   1.549   3.313   5.706  0.2361 -2.3643 -1.5743
   73SLPC   H5S 6437   1.396   3.406   5.739 -1.6482 -1.8549  1.4793
   73SLPC   C26 6438   1.429   3.323   5.542  0.1619 -0.0382 -0.5133
   73SLPC   H6R 6439   1.325   3.350   5.514 -0.2122  0.2064  1.0383
   73SLPC   H6S 6440   1.459   3.225   5.499 -0.7343  0.6259 -2.8393
   73SLPC   C27 6441   1.521   3.424   5.474 -0.1551 -0.2029  0.6205
   73SLPC   H7R 6442   1.625   3.391   5.491 -0.0600 -0.7948 -0.9943
   73SLPC   H7S 6443   1.508   3.521   5.528  1.6426  0.3502  0.1352
   73SLPC   C28 6444   1.481   3.430   5.329  0.2425 -1.0062 -0.3362
   73SLPC   H8R 6445   1.374   3.459   5.327  0.7732  1.3125  0.9368
   73SLPC   H8S 6446   1.471   3.325   5.295 -0.9368 -2.1425  3.0848
   73SLPC   C29 6447   1.574   3.515   5.247  0.1458  0.3599  0.6154
   73SLPC   H9R 6448   1.541   3.615   5.218  1.5458  1.2794  2.0056
   73SLPC  C210 6449   1.681   3.466   5.175  0.9484 -0.1790 -0.1235
   73SLPC  H10R 6450   1.747   3.533   5.118  1.3552  0.9544  1.5950
   73SLPC  C211 6451   1.736   3.323   5.178 -0.2640 -0.2000 -0.5009
   73SLPC  H11R 6452   1.714   3.285   5.076  1.5160  0.6975 -1.2728
   73SLPC  H11S 6453   1.677   3.271   5.256  0.7110 -0.2671  0.2090
   73SLPC  C212 6454   1.887   3.312   5.208  0.7261 -0.1500  0.1495
   73SLPC  H12R 6455   1.902   3.265   5.306 -4.6153 -0.5386  1.1066
   73SLPC  C213 6456   1.991   3.360   5.128 -0.4817 -0.3373 -0.9373
   73SLPC  H13R 6457   2.093   3.327   5.153 -1.6630 -2.7376  1.1554
   73SLPC  C214 6458   1.967   3.418   4.989  0.2460 -0.8860  0.4262
   73SLPC  H14R 6459   1.999   3.524   4.985 -1.6079 -0.1921  2.2447
   73SLPC  H14S 6460   1.860   3.425   4.961  0.7885  0.0759 -1.5433
   73SLPC  C215 6461   2.030   3.352   4.870  0.1893  0.5530 -0.7596
   73SLPC  H15R 6462   2.008   3.411   4.778 -1.4434 -0.4886 -1.0702
   73SLPC  H15S 6463   1.992   3.250   4.852  0.0236  1.1798 -5.3846
   73SLPC  C216 6464   2.190   3.345   4.866  0.2412 -0.4762  0.5004
   73SLPC  H16R 6465   2.229   3.319   4.765  1.1020 -1.2155  1.0029
   73SLPC  H16S 6466   2.238   3.275   4.938  3.2978  1.5564  0.6318
   73SLPC  C217 6467   2.251   3.490   4.894  0.2557 -0.0486  0.0499
   73SLPC  H17R 6468   2.222   3.527   4.994 -0.5711  1.5101 -0.7373
   73SLPC  H17S 6469   2.218   3.567   4.821  0.4244 -1.0463 -1.1338
   73SLPC  C218 6470   2.404   3.495   4.884  0.2348  0.0334  0.3482
   73SLPC  H18R 6471   2.453   3.420   4.819  1.0091 -0.9926  2.0734
   73SLPC  H18S 6472   2.440   3.476   4.987 -0.8735  0.2464  0.7977
   73SLPC  H18T 6473   2.430   3.599   4.855 -2.9316  1.2299  1.3255
   73SLPC   C33 6474   1.507   3.790   5.952  0.5043  0.3243  0.5644
   73SLPC   H3X 6475   1.586   3.737   6.010 -0.4945  0.2825  1.9444
   73SLPC   H3Y 6476   1.562   3.869   5.897  0.6010  1.2884  1.9745
   73SLPC   C34 6477   1.432   3.695   5.869  0.0362  0.6085  0.6960
   73SLPC   H4X 6478   1.364   3.623   5.919 -0.5167 -1.1690 -2.3494
   73SLPC   H4Y 6479   1.502   3.642   5.801 -0.6607  0.5342  0.0335
   73SLPC   C35 6480   1.340   3.765   5.772  0.1229 -0.5516 -0.3734
   73SLPC   H5X 6481   1.277   3.839   5.825 -1.0233 -1.9058  0.1834
   73SLPC   H5Y 6482   1.276   3.685   5.729 -0.6696  0.8647 -1.9628
   73SLPC   C36 6483   1.405   3.835   5.655 -0.2009 -0.1985 -0.2499
   73SLPC   H6X 6484   1.487   3.772   5.614  3.6359  0.2353  5.5747
   73SLPC   H6Y 6485   1.446   3.932   5.690 -1.5477  0.0585  0.7125
   73SLPC   C37 6486   1.299   3.858   5.537 -0.5409  0.0127 -0.3213
   73SLPC   H7X 6487   1.210   3.919   5.567 -1.9082 -1.2777 -1.5800
   73SLPC   H7Y 6488   1.249   3.764   5.506  0.0010 -0.5630  0.5217
   73SLPC   C38 6489   1.359   3.922   5.418 -0.1457  0.8735 -0.3617
   73SLPC   H8X 6490   1.434   3.855   5.369 -0.4751 -1.4685  2.1131
   73SLPC   H8Y 6491   1.418   4.011   5.450 -1.1317  0.9567  1.3326
   73SLPC   C39 6492   1.254   3.968   5.320 -0.0232 -0.5835 -0.0360
   73SLPC   H9X 6493   1.196   4.049   5.369  1.0299  0.9219 -1.1888
   73SLPC   H9Y 6494   1.192   3.883   5.285  0.0493 -0.2629 -0.9611
   73SLPC  C310 6495   1.319   4.032   5.199  0.5948 -0.6139 -0.4499
   73SLPC  H10X 6496   1.381   3.953   5.151  1.1303 -1.2390  1.2029
   73SLPC  H10Y 6497   1.378   4.113   5.246  1.6116 -1.8168  0.4088
   73SLPC  C311 6498   1.219   4.084   5.088  0.3996 -0.3495  0.2703
   73SLPC  H11X 6499   1.263   4.162   5.023 -2.1463  1.2399  0.3248
   73SLPC  H11Y 6500   1.128   4.127   5.136 -0.3625 -1.7871  0.1503
   73SLPC  C312 6501   1.176   3.963   5.000  0.0030  0.4195  0.6092
   73SLPC  H12X 6502   1.099   3.903   5.054  0.1015  0.4655  0.8002
   73SLPC  H12Y 6503   1.268   3.906   4.978  0.1486  1.5424 -2.0381
   73SLPC  C313 6504   1.136   4.018   4.860  0.7718  0.0861  0.2557
   73SLPC  H13X 6505   1.219   4.076   4.814 -0.0910  1.8882  0.8728
   73SLPC  H13Y 6506   1.048   4.087   4.862 -0.2947 -0.9374 -3.1150
   73SLPC  C314 6507   1.103   3.909   4.757  0.4782 -0.0655  0.6171
   73SLPC  H14X 6508   1.033   3.833   4.798  4.1104 -3.2470  1.6280
   73SLPC  H14Y 6509   1.199   3.856   4.735  0.4726  0.0392  0.3457
   73SLPC  C315 6510   1.049   3.968   4.622 -0.3761  0.1355  0.3345
   73SLPC  H15X 6511   1.023   3.881   4.558 -0.7248  0.1731  0.4217
   73SLPC  H15Y 6512   1.128   4.030   4.576 -1.1856 -0.2518 -1.6769
   73SLPC  C316 6513   0.927   4.067   4.624 -0.0394  0.0562  0.4912
   73SLPC  H16X 6514   0.907   4.095   4.519  1.5794 -0.9652 -0.1212
   73SLPC  H16Y 6515   0.958   4.162   4.674 -1.3431  0.5576  0.3963
   73SLPC  C317 6516   0.799   4.015   4.684 -0.1589  0.0886  0.5214
   73SLPC  H17X 6517   0.738   4.107   4.698  0.3300  0.3067  1.2643
   73SLPC  H17Y 6518   0.811   3.974   4.787 -2.8439 -3.6752 -0.4321
   73SLPC  C318 6519   0.717   3.926   4.592  0.8914  0.5852  0.1807
   73SLPC  H18X 6520   0.761   3.824   4.579  1.0296  0.7676 -0.8853
   73SLPC  H18Y 6521   0.724   3.965   4.488 -0.2345 -1.7187 -0.8358
   73SLPC  H18Z 6522   0.610   3.921   4.622  0.6527  0.4321 -0.6643
   74SLPC     N 6523   5.324   1.869   6.792  0.2163  0.0274  0.0834
   74SLPC   C13 6524   5.294   2.009   6.833 -0.4576  0.2978 -0.6249
   74SLPC  H13A 6525   5.362   2.077   6.784  0.3879  2.2991  2.9839
   74SLPC  H13B 6526   5.196   2.027   6.791 -0.7039 -0.5544 -0.4397
   74SLPC  H13C 6527   5.283   2.023   6.940 -2.3154 -0.0665 -0.7343
   74SLPC   C14 6528   5.231   1.763   6.851 -0.1121  0.3173 -0.4978
   74SLPC  H14A 6529   5.147   1.753   6.784 -1.7599 -2.7123  1.7903
   74SLPC  H14B 6530   5.280   1.667   6.850 -3.3553 -1.4948 -0.6660
   74SLPC  H14C 6531   5.200   1.781   6.953 -0.1410 -3.0509  0.1982
   74SLPC   C15 6532   5.452   1.836   6.855 -0.6557 -0.2284  0.2725
   74SLPC  H15A 6533   5.455   1.854   6.962  0.9199  0.0781  0.1938
   74SLPC  H15B 6534   5.490   1.737   6.835 -0.2062  0.4458 -2.6315
   74SLPC  H15C 6535   5.525   1.904   6.814 -1.4564 -0.8649 -2.3859
   74SLPC   C12 6536   5.332   1.836   6.642  0.4249 -0.3543 -0.3831
   74SLPC  H12A 6537   5.354   1.730   6.644  0.2068 -0.4450 -1.8735
   74SLPC  H12B 6538   5.414   1.883   6.591  0.5481 -1.5516 -1.3353
   74SLPC   C11 6539   5.203   1.848   6.560 -0.1767  0.7633  0.0765
   74SLPC  H11A 6540   5.127   1.769   6.578  0.4871 -0.3216 -1.5496
   74SLPC  H11B 6541   5.234   1.815   6.458  0.0998  1.0323  0.0714
   74SLPC     P 6542   5.198   2.099   6.484  0.0825 -0.0641  0.2718
   74SLPC   O13 6543   5.102   2.149   6.380  0.4829  0.1725 -0.3122
   74SLPC   O14 6544   5.244   2.204   6.580  0.2595  0.5324 -0.0285
   74SLPC   O12 6545   5.143   1.975   6.564  0.5589  0.0361 -0.1002
   74SLPC   O11 6546   5.328   2.039   6.421  0.0376  0.0118 -0.5251
   74SLPC    C1 6547   5.410   2.108   6.328 -0.0195  0.0952  0.4134
   74SLPC    HA 6548   5.414   2.216   6.353  0.4421 -0.3470  2.4301
   74SLPC    HB 6549   5.514   2.067   6.336  0.7014  2.0341  1.6247
   74SLPC    C2 6550   5.356   2.079   6.184  0.6652 -0.6859 -0.2774
   74SLPC    HS 6551   5.268   2.146   6.172  0.6077 -0.8693 -0.9311
   74SLPC   O21 6552   5.323   1.941   6.161  0.3013  0.1601  0.0464
   74SLPC   C21 6553   5.206   1.918   6.103 -0.4169 -0.2359 -0.2625
   74SLPC   O22 6554   5.128   2.005   6.060  0.2265  0.8367 -0.5529
   74SLPC   C22 6555   5.170   1.770   6.100  0.2982  0.3316  0.2594
   74SLPC   H2R 6556   5.202   1.721   6.195  2.2497  1.5161  0.2726
   74SLPC   H2S 6557   5.059   1.766   6.090  0.1474  3.7983 -0.6505
   74SLPC    C3 6558   5.463   2.128   6.078 -0.3081  0.0452  0.3565
   74SLPC    HX 6559   5.543   2.053   6.093 -0.2587 -0.0821 -0.4821
   74SLPC    HY 6560   5.503   2.231   6.092  0.0356 -0.2429  1.6828
   74SLPC   O31 6561   5.414   2.104   5.944 -0.5470  0.4020  0.0993
   74SLPC   C31 6562   5.336   2.199   5.899  0.0569  0.1215  0.1551
   74SLPC   O32 6563   5.298   2.300   5.960 -0.5720 -0.4416  0.8627
   74SLPC   C32 6564   5.292   2.171   5.753 -0.0540  0.4515  0.3648
   74SLPC   H2X 6565   5.190   2.126   5.752  0.1205  0.0496  0.4751
   74SLPC   H2Y 6566   5.368   2.101   5.712 -0.3864  0.5625 -0.4575
   74SLPC   C23 6567   5.230   1.690   5.988  0.7768 -0.3545 -0.1507
   74SLPC   H3R 6568   5.210   1.584   6.011 -2.4420 -0.1571 -1.5828
   74SLPC   H3S 6569   5.338   1.713   5.971  0.6827 -1.0445 -1.8704
   74SLPC   C24 6570   5.157   1.717   5.849  0.1085 -0.5613 -0.6628
   74SLPC   H4R 6571   5.048   1.722   5.868  0.0151  0.8325 -1.4421
   74SLPC   H4S 6572   5.177   1.627   5.788 -1.5485 -1.1610 -0.3572
   74SLPC   C25 6573   5.199   1.847   5.781  0.4425  0.1043 -0.5302
   74SLPC   H5R 6574   5.294   1.894   5.814 -0.1027  2.1290 -1.6374
   74SLPC   H5S 6575   5.120   1.920   5.810 -0.6958 -1.8371  1.5974
   74SLPC   C26 6576   5.180   1.832   5.626  0.1027 -0.6820 -0.4490
   74SLPC   H6R 6577   5.134   1.921   5.578 -1.5662 -0.1647  1.9408
   74SLPC   H6S 6578   5.112   1.744   5.620 -0.4232 -0.1649 -4.1303
   74SLPC   C27 6579   5.317   1.802   5.567  0.6443  0.0555 -0.1005
   74SLPC   H7R 6580   5.351   1.709   5.618  0.2950 -0.3596 -0.6201
   74SLPC   H7S 6581   5.393   1.879   5.592 -0.9263  1.9882 -1.0076
   74SLPC   C28 6582   5.313   1.772   5.417 -0.9469 -0.2865 -0.0536
   74SLPC   H8R 6583   5.251   1.846   5.360 -1.0040  1.1952  1.8331
   74SLPC   H8S 6584   5.244   1.685   5.408 -3.2519  1.3031  1.0407
   74SLPC   C29 6585   5.455   1.751   5.374 -0.3763  0.0072 -0.1041
   74SLPC   H9R 6586   5.500   1.665   5.426 -2.5166  0.0301  1.9435
   74SLPC  C210 6587   5.530   1.828   5.296  0.1316 -0.3592  0.1215
   74SLPC  H10R 6588   5.629   1.785   5.275  0.2654  0.2167 -0.4615
   74SLPC  C211 6589   5.476   1.950   5.220  0.0793 -0.0836 -0.0592
   74SLPC  H11R 6590   5.553   2.030   5.215 -0.6761  0.6157 -0.7592
   74SLPC  H11S 6591   5.383   1.985   5.268  0.3915 -0.7395  1.0588
   74SLPC  C212 6592   5.447   1.918   5.076  0.0276 -0.1943 -0.7801
   74SLPC  H12R 6593   5.359   1.852   5.072  0.0942 -0.2653 -1.0792
   74SLPC  C213 6594   5.506   1.960   4.965  0.1782  0.6084  0.2638
   74SLPC  H13R 6595   5.475   1.914   4.870  0.5636 -0.1935  0.5225
   74SLPC  C214 6596   5.619   2.055   4.943 -0.5577 -0.2023  0.4863
   74SLPC  H14R 6597   5.712   1.995   4.955 -1.2850 -1.0735  2.2158
   74SLPC  H14S 6598   5.631   2.136   5.018  2.9992 -0.7511  0.6769
   74SLPC  C215 6599   5.626   2.122   4.806  0.0601  0.3660  0.2704
   74SLPC  H15R 6600   5.617   2.055   4.717  1.3224 -0.2657  0.5998
   74SLPC  H15S 6601   5.727   2.167   4.803  0.0747  0.5102  2.0128
   74SLPC  C216 6602   5.531   2.242   4.801  1.2857 -0.4786 -0.0807
   74SLPC  H16R 6603   5.563   2.322   4.871  2.9581 -1.2339  0.0507
   74SLPC  H16S 6604   5.429   2.210   4.832  0.4646 -0.4776 -2.5310
   74SLPC  C217 6605   5.519   2.300   4.661  0.0420 -0.2485  0.7349
   74SLPC  H17R 6606   5.425   2.359   4.657  0.0163 -0.1466  2.4434
   74SLPC  H17S 6607   5.527   2.210   4.597  1.7836 -0.0284  0.6159
   74SLPC  C218 6608   5.630   2.395   4.624 -0.5673  0.2763  0.0343
   74SLPC  H18R 6609   5.729   2.350   4.648 -2.2008 -2.4528  2.2769
   74SLPC  H18S 6610   5.619   2.484   4.690 -3.5889  0.4211 -0.5115
   74SLPC  H18T 6611   5.623   2.426   4.518  2.1757  1.1283  0.0111
   74SLPC   C33 6612   5.285   2.305   5.676  1.2396  0.2573  0.7896
   74SLPC   H3X 6613   5.380   2.361   5.676 -0.0403  2.5422  0.8411
   74SLPC   H3Y 6614   5.216   2.373   5.730 -1.2731 -3.3170  2.5353
   74SLPC   C34 6615   5.239   2.306   5.530  0.0216 -0.0050 -0.0128
   74SLPC   H4X 6616   5.307   2.241   5.471 -1.5041 -1.6016 -0.0973
   74SLPC   H4Y 6617   5.256   2.404   5.480  1.2354 -0.7881 -1.2039
   74SLPC   C35 6618   5.102   2.267   5.511 -0.5691  0.6529  0.3849
   74SLPC   H5X 6619   5.031   2.352   5.518 -4.2084 -2.1116 -0.2343
   74SLPC   H5Y 6620   5.062   2.189   5.579  0.2313 -0.3725 -0.3016
   74SLPC   C36 6621   5.088   2.196   5.373 -0.3682  0.0502 -0.8831
   74SLPC   H6X 6622   4.990   2.143   5.370  0.2328 -1.0954 -0.8459
   74SLPC   H6Y 6623   5.155   2.108   5.374  0.1819  0.4612 -0.4757
   74SLPC   C37 6624   5.112   2.284   5.250 -0.1351  0.3212  0.4956
   74SLPC   H7X 6625   5.177   2.372   5.268 -0.4347  1.1996 -2.2942
   74SLPC   H7Y 6626   5.016   2.335   5.227 -0.0816  1.3928  2.4125
   74SLPC   C38 6627   5.133   2.206   5.125 -0.1955  0.2861 -0.3247
   74SLPC   H8X 6628   5.064   2.121   5.106 -0.7529  0.4369  0.9194
   74SLPC   H8Y 6629   5.234   2.161   5.131 -0.2833  0.2721  1.8831
   74SLPC   C39 6630   5.127   2.282   4.989 -0.5942 -0.2504  0.3917
   74SLPC   H9X 6631   5.205   2.361   4.990 -1.4609  0.6280 -0.0405
   74SLPC   H9Y 6632   5.042   2.353   4.984  0.0927  0.6447  1.1015
   74SLPC  C310 6633   5.156   2.190   4.865 -0.0105 -0.1259  0.5974
   74SLPC  H10X 6634   5.082   2.107   4.858 -1.1508  0.8042  1.2112
   74SLPC  H10Y 6635   5.246   2.128   4.885 -0.3992 -0.4148  1.4871
   74SLPC  C311 6636   5.159   2.257   4.725 -0.1140 -0.1829 -0.7572
   74SLPC  H11X 6637   5.229   2.341   4.744  0.1750 -0.5233 -0.3042
   74SLPC  H11Y 6638   5.061   2.301   4.696  0.8953  0.5354 -3.3896
   74SLPC  C312 6639   5.195   2.150   4.620  0.3005  0.2639  1.3835
   74SLPC  H12X 6640   5.111   2.078   4.607  0.4657  0.4911 -1.6434
   74SLPC  H12Y 6641   5.290   2.095   4.637  0.3729 -0.3756 -0.7577
   74SLPC  C313 6642   5.209   2.216   4.477  0.2805  0.0180 -0.1319
   74SLPC  H13X 6643   5.292   2.289   4.471  0.5635 -0.4046 -3.1550
   74SLPC  H13Y 6644   5.122   2.279   4.448  1.7619  2.0133 -0.4319
   74SLPC  C314 6645   5.218   2.118   4.356 -0.3639 -0.1368  0.3950
   74SLPC  H14X 6646   5.177   2.158   4.261  1.6859  1.5205  0.1477
   74SLPC  H14Y 6647   5.148   2.034   4.377  0.9452 -1.7844 -1.4203
   74SLPC  C315 6648   5.361   2.066   4.335  0.2579 -0.2031 -0.5718
   74SLPC  H15X 6649   5.428   2.049   4.421  1.8489 -3.2156 -2.2501
   74SLPC  H15Y 6650   5.413   2.143   4.273  0.5089  1.1384  1.2197
   74SLPC  C316 6651   5.367   1.945   4.244 -0.0766  0.3127  0.4385
   74SLPC  H16X 6652   5.319   1.853   4.283  1.6803 -0.8832 -0.0994
   74SLPC  H16Y 6653   5.476   1.926   4.235 -0.3227 -1.0523  0.1206
   74SLPC  C317 6654   5.312   1.981   4.103  0.5344  0.2052 -0.8582
   74SLPC  H17X 6655   5.370   2.069   4.071  1.6711 -0.8551 -1.7923
   74SLPC  H17Y 6656   5.204   2.002   4.117  0.3109 -0.3773 -1.6702
   74SLPC  C318 6657   5.320   1.861   4.013 -0.5728  0.1058 -0.2189
   74SLPC  H18X 6658   5.300   1.768   4.071  1.4931 -0.5045 -0.4395
   74SLPC  H18Y 6659   5.422   1.855   3.969  0.5032 -1.0752  2.2716
   74SLPC  H18Z 6660   5.235   1.874   3.942 -1.0736  0.1630  0.3726
   75SLPC     N 6661   5.616   6.825   6.734  0.6955 -0.4436  0.0684
   75SLPC   C13 6662   5.657   6.693   6.683  0.7194 -0.0014 -0.2654
   75SLPC  H13A 6663   5.585   6.647   6.617  1.3041 -2.1818  0.5269
   75SLPC  H13B 6664   5.746   6.693   6.622  0.6260  0.8328 -0.4079
   75SLPC  H13C 6665   5.670   6.620   6.762  1.7256  1.8216  1.3647
   75SLPC   C14 6666   5.735   6.878   6.806 -0.7486  0.0878  0.9488
   75SLPC  H14A 6667   5.724   6.983   6.829  2.8388  1.3641 -2.0278
   75SLPC  H14B 6668   5.754   6.826   6.899 -0.4005  0.4703  1.0955
   75SLPC  H14C 6669   5.820   6.884   6.740 -2.2998 -0.9865 -1.2711
   75SLPC   C15 6670   5.502   6.794   6.829 -0.2611  0.4013  0.4680
   75SLPC  H15A 6671   5.541   6.718   6.896  1.4715 -0.1427 -1.0640
   75SLPC  H15B 6672   5.462   6.877   6.884 -2.5901 -0.3372 -0.0076
   75SLPC  H15C 6673   5.423   6.741   6.778  0.3332 -0.9581  0.9055
   75SLPC   C12 6674   5.557   6.910   6.616 -0.4289 -0.7552  0.0184
   75SLPC  H12A 6675   5.645   6.930   6.557  0.3294 -1.2106  0.9735
   75SLPC  H12B 6676   5.534   7.010   6.651  0.1133  0.2892 -2.4113
   75SLPC   C11 6677   5.431   6.864   6.535 -0.3894 -0.0753 -0.1790
   75SLPC  H11A 6678   5.447   6.773   6.474  2.7126 -0.0877  0.4652
   75SLPC  H11B 6679   5.417   6.950   6.465 -2.0537  1.4631  1.8997
   75SLPC     P 6680   5.214   6.968   6.652 -0.0693 -0.2451  0.4487
   75SLPC   O13 6681   5.077   6.919   6.673  0.0141 -0.0994 -0.1786
   75SLPC   O14 6682   5.272   7.043   6.761 -0.3331  0.6471 -0.5590
   75SLPC   O12 6683   5.311   6.848   6.618  0.2079 -0.9919  0.2166
   75SLPC   O11 6684   5.207   7.055   6.514 -0.1800  0.9939 -0.4475
   75SLPC    C1 6685   5.117   7.034   6.412 -0.3944  0.3269  0.0547
   75SLPC    HA 6686   5.027   6.982   6.449 -0.7115 -0.1628 -1.3364
   75SLPC    HB 6687   5.078   7.133   6.378  0.3904  1.2647  1.7435
   75SLPC    C2 6688   5.174   6.968   6.281 -0.0332  0.2095  0.0948
   75SLPC    HS 6689   5.235   6.881   6.314 -0.1388  0.2042  0.2806
   75SLPC   O21 6690   5.246   7.070   6.211  0.0547 -0.1220 -0.1787
   75SLPC   C21 6691   5.342   7.026   6.135 -0.3230 -0.1812  0.6794
   75SLPC   O22 6692   5.381   6.909   6.127 -0.0192  0.0778 -0.1465
   75SLPC   C22 6693   5.399   7.139   6.049 -0.3309 -0.2170 -0.0496
   75SLPC   H2R 6694   5.323   7.196   5.992 -0.6639 -0.1622  0.4402
   75SLPC   H2S 6695   5.439   7.208   6.127  0.2861 -1.1270  0.4583
   75SLPC    C3 6696   5.062   6.909   6.181  0.0106 -0.1516 -0.0553
   75SLPC    HX 6697   4.976   6.980   6.184  1.4383  1.6636  3.3045
   75SLPC    HY 6698   5.024   6.816   6.229 -0.2595  0.1052  0.2299
   75SLPC   O31 6699   5.103   6.900   6.046 -0.2770 -0.5537 -0.0191
   75SLPC   C31 6700   5.102   6.778   5.991  0.1035 -0.4186  0.2501
   75SLPC   O32 6701   5.069   6.680   6.054  0.2232  0.3447 -0.2769
   75SLPC   C32 6702   5.165   6.790   5.854 -0.1457 -0.1282  0.1478
   75SLPC   H2X 6703   5.252   6.859   5.863 -1.0582  0.9057  1.5732
   75SLPC   H2Y 6704   5.088   6.837   5.789  1.5739  1.7967 -0.6074
   75SLPC   C23 6705   5.525   7.107   5.967  0.2273  1.0027  0.6939
   75SLPC   H3R 6706   5.604   7.060   6.028  1.7671 -0.0196 -1.9272
   75SLPC   H3S 6707   5.566   7.197   5.915  1.4670  0.4567  0.6919
   75SLPC   C24 6708   5.495   7.009   5.851  0.3389  0.6267  0.1947
   75SLPC   H4R 6709   5.415   7.045   5.784 -0.6597 -0.4776  0.7526
   75SLPC   H4S 6710   5.459   6.910   5.886 -3.0043  1.0511 -1.6916
   75SLPC   C25 6711   5.627   6.976   5.765  0.1201  0.2823  0.3326
   75SLPC   H5R 6712   5.703   6.917   5.820  0.7252 -0.2088 -0.9924
   75SLPC   H5S 6713   5.664   7.076   5.737 -2.9870  0.8199 -2.5172
   75SLPC   C26 6714   5.591   6.892   5.635  0.6056  0.1129  0.2416
   75SLPC   H6R 6715   5.506   6.936   5.578  0.6519  1.6877  1.3106
   75SLPC   H6S 6716   5.557   6.793   5.672  1.2675  0.3862  1.6555
   75SLPC   C27 6717   5.716   6.875   5.545 -0.1870  0.1025  0.2929
   75SLPC   H7R 6718   5.705   6.797   5.466 -1.8321 -0.8096  1.3776
   75SLPC   H7S 6719   5.791   6.833   5.614 -0.8941 -1.0353  0.3939
   75SLPC   C28 6720   5.761   7.003   5.475 -0.5456 -0.6561  0.4388
   75SLPC   H8R 6721   5.862   6.985   5.431  0.0611 -0.6695  1.7922
   75SLPC   H8S 6722   5.775   7.076   5.557 -1.5525 -0.7827  0.7320
   75SLPC   C29 6723   5.670   7.057   5.371  0.7001 -0.4651 -1.1007
   75SLPC   H9R 6724   5.589   7.118   5.414  0.7056 -0.2649 -1.3760
   75SLPC  C210 6725   5.676   7.043   5.240 -0.3485 -0.1661  0.0446
   75SLPC  H10R 6726   5.603   7.089   5.171  0.0557  0.6153  0.1251
   75SLPC  C211 6727   5.775   6.951   5.165  0.1816  0.2712  0.1708
   75SLPC  H11R 6728   5.849   6.900   5.231  0.2388  1.4105  1.0074
   75SLPC  H11S 6729   5.840   7.022   5.110 -0.1844 -0.4818 -1.2806
   75SLPC  C212 6730   5.704   6.856   5.064 -0.6564  0.5823 -0.0761
   75SLPC  H12R 6731   5.647   6.775   5.111  1.4189 -1.5623 -1.0522
   75SLPC  C213 6732   5.698   6.865   4.933 -0.5560  0.4137 -0.5668
   75SLPC  H13R 6733   5.637   6.791   4.880  1.0713 -1.2207 -0.2274
   75SLPC  C214 6734   5.750   6.979   4.848  0.0183  0.3853 -0.0090
   75SLPC  H14R 6735   5.843   7.028   4.883 -0.3089  1.0909 -0.1180
   75SLPC  H14S 6736   5.673   7.059   4.850  0.7868  1.1592  2.2987
   75SLPC  C215 6737   5.777   6.930   4.703  0.3498 -0.3424 -0.1199
   75SLPC  H15R 6738   5.796   7.017   4.636 -1.1017  0.2175  0.1648
   75SLPC  H15S 6739   5.687   6.871   4.676 -0.0800 -0.3762  1.3011
   75SLPC  C216 6740   5.902   6.847   4.719  1.1235 -1.0318  0.8624
   75SLPC  H16R 6741   5.887   6.764   4.792  0.2764  0.6798  2.7275
   75SLPC  H16S 6742   5.974   6.918   4.766 -0.1192  0.8281  0.0777
   75SLPC  C217 6743   5.958   6.787   4.584  0.1472 -0.5214 -0.7686
   75SLPC  H17R 6744   6.061   6.757   4.615 -0.1628 -2.6790 -1.6352
   75SLPC  H17S 6745   5.959   6.872   4.513  2.0583 -0.2663 -0.4957
   75SLPC  C218 6746   5.880   6.665   4.534 -0.3294  0.8742 -0.6280
   75SLPC  H18R 6747   5.911   6.637   4.431  1.4557 -0.6218  0.2747
   75SLPC  H18S 6748   5.770   6.682   4.536 -0.2509  1.3533  0.1586
   75SLPC  H18T 6749   5.906   6.587   4.608 -2.6671  1.9015  1.4529
   75SLPC   C33 6750   5.203   6.659   5.791  0.0770 -0.1175 -0.0396
   75SLPC   H3X 6751   5.113   6.594   5.790  0.1783 -0.2940 -2.0660
   75SLPC   H3Y 6752   5.279   6.604   5.850  0.4487 -0.5303 -0.8879
   75SLPC   C34 6753   5.246   6.672   5.641 -0.2644 -0.3405  0.4753
   75SLPC   H4X 6754   5.319   6.755   5.631  0.5107 -1.2407 -2.1871
   75SLPC   H4Y 6755   5.157   6.700   5.580  0.2585 -0.8049 -0.5284
   75SLPC   C35 6756   5.313   6.548   5.592  0.6493  0.3309  0.0918
   75SLPC   H5X 6757   5.245   6.462   5.579 -0.7112  1.3658  0.2160
   75SLPC   H5Y 6758   5.394   6.529   5.666 -0.6258  0.9391  1.6969
   75SLPC   C36 6759   5.377   6.590   5.455 -0.9631  0.1597  0.2253
   75SLPC   H6X 6760   5.455   6.668   5.456 -0.7136 -0.0409 -1.3572
   75SLPC   H6Y 6761   5.293   6.632   5.394 -0.8571  0.9324  0.6007
   75SLPC   C37 6762   5.443   6.474   5.379  0.3917  0.0902  0.1258
   75SLPC   H7X 6763   5.360   6.401   5.363 -0.8424  1.5250 -0.3022
   75SLPC   H7Y 6764   5.514   6.413   5.438 -1.1617 -2.0241 -0.0912
   75SLPC   C38 6765   5.487   6.508   5.238  0.1864  0.2605  0.4578
   75SLPC   H8X 6766   5.593   6.540   5.231  1.2774 -2.7365  1.5963
   75SLPC   H8Y 6767   5.414   6.584   5.201 -1.1784 -1.1216  0.2218
   75SLPC   C39 6768   5.464   6.385   5.142  0.4239  0.1485  0.0274
   75SLPC   H9X 6769   5.361   6.346   5.160  0.0662  0.2385 -1.6600
   75SLPC   H9Y 6770   5.530   6.296   5.146 -0.5059 -0.6456 -1.4288
   75SLPC  C310 6771   5.448   6.426   4.996 -0.6838  0.1522 -0.1305
   75SLPC  H10X 6772   5.391   6.521   5.000 -0.6452  0.1251  1.6946
   75SLPC  H10Y 6773   5.409   6.337   4.943  1.2684 -0.8265 -0.0305
   75SLPC  C311 6774   5.582   6.464   4.921 -0.5875 -0.2339  0.3601
   75SLPC  H11X 6775   5.639   6.369   4.909  0.4357  0.4571 -0.4091
   75SLPC  H11Y 6776   5.650   6.528   4.981 -0.6891 -0.1086  0.3423
   75SLPC  C312 6777   5.582   6.524   4.782 -0.1971 -0.5358  0.4037
   75SLPC  H12X 6778   5.687   6.536   4.748  0.3939 -0.5446  2.1320
   75SLPC  H12Y 6779   5.525   6.620   4.783 -0.8007 -0.8065 -2.2217
   75SLPC  C313 6780   5.515   6.438   4.673 -0.2816  0.2621  0.1214
   75SLPC  H13X 6781   5.499   6.495   4.579  0.2786 -0.3483 -0.3524
   75SLPC  H13Y 6782   5.409   6.414   4.696 -0.5573  1.4450  0.1794
   75SLPC  C314 6783   5.593   6.307   4.649 -0.3065 -0.4247  0.4217
   75SLPC  H14X 6784   5.566   6.228   4.722  0.1523  0.1172  1.1921
   75SLPC  H14Y 6785   5.704   6.321   4.648 -0.2426 -0.8979  0.0361
   75SLPC  C315 6786   5.546   6.250   4.514 -0.1519  0.8683  0.7315
   75SLPC  H15X 6787   5.565   6.332   4.442 -0.3412  1.7456  1.6601
   75SLPC  H15Y 6788   5.438   6.227   4.521 -0.1330  0.3619 -0.4639
   75SLPC  C316 6789   5.615   6.115   4.483  0.0900 -0.1476  0.5036
   75SLPC  H16X 6790   5.608   6.045   4.569  0.4572  0.6647  1.2150
   75SLPC  H16Y 6791   5.723   6.126   4.459  0.3191 -1.7814  0.6622
   75SLPC  C317 6792   5.555   6.045   4.357 -0.4076 -0.5761 -0.0891
   75SLPC  H17X 6793   5.445   6.046   4.372 -0.2712  0.7903  1.0273
   75SLPC  H17Y 6794   5.582   5.937   4.365 -1.3431 -0.8282 -0.2236
   75SLPC  C318 6795   5.592   6.112   4.231 -0.3760  0.1216 -0.1732
   75SLPC  H18X 6796   5.564   6.219   4.221  0.1847  0.1847 -1.1563
   75SLPC  H18Y 6797   5.549   6.057   4.144 -0.3511 -0.4308  0.1631
   75SLPC  H18Z 6798   5.702   6.108   4.217 -0.4880  2.3148 -2.6237
   76SLPC     N 6799   2.475   3.463   6.962 -0.4495 -0.4116 -0.3868
   76SLPC   C13 6800   2.514   3.477   6.821 -0.1255  0.6100 -0.1109
   76SLPC  H13A 6801   2.434   3.454   6.753 -1.7052 -1.6451  2.3086
   76SLPC  H13B 6802   2.544   3.580   6.808 -1.6272  1.1085  0.2857
   76SLPC  H13C 6803   2.601   3.414   6.805 -0.0459  0.6281  0.2306
   76SLPC   C14 6804   2.583   3.527   7.047 -0.5710 -0.6817 -0.0051
   76SLPC  H14A 6805   2.592   3.629   7.012 -1.4432 -0.1375  1.2989
   76SLPC  H14B 6806   2.562   3.524   7.153  2.4147  0.6975  0.7317
   76SLPC  H14C 6807   2.676   3.472   7.035 -0.7759 -0.7946 -1.2015
   76SLPC   C15 6808   2.481   3.314   6.994  0.2993 -0.4450 -0.6594
   76SLPC  H15A 6809   2.582   3.283   6.971 -0.1767 -1.7452 -1.1033
   76SLPC  H15B 6810   2.469   3.300   7.100  0.0717  0.3898 -0.5723
   76SLPC  H15C 6811   2.411   3.247   6.948 -0.9822  0.7400 -0.4863
   76SLPC   C12 6812   2.346   3.534   6.995 -0.5781  1.1234 -0.6995
   76SLPC  H12A 6813   2.327   3.509   7.098  0.5196  0.6413 -0.5965
   76SLPC  H12B 6814   2.261   3.489   6.946 -1.7765  1.7955  0.6946
   76SLPC   C11 6815   2.330   3.679   6.958  0.1892 -0.4246 -0.3833
   76SLPC  H11A 6816   2.225   3.708   6.976 -0.4517 -1.8559 -1.6336
   76SLPC  H11B 6817   2.338   3.686   6.847 -0.4198 -1.4192 -0.4995
   76SLPC     P 6818   2.397   3.825   7.152 -0.3069 -0.2058  0.1503
   76SLPC   O13 6819   2.380   3.716   7.247 -0.1496  0.4774 -0.0835
   76SLPC   O14 6820   2.507   3.913   7.183  0.1832  0.0583  0.2793
   76SLPC   O12 6821   2.421   3.762   7.014 -0.2906 -0.4349  0.4268
   76SLPC   O11 6822   2.259   3.900   7.127 -0.4550  0.0184  0.2283
   76SLPC    C1 6823   2.229   3.980   7.012  0.3296  0.7470  0.4122
   76SLPC    HA 6824   2.261   4.083   7.038  0.7890  0.6416  0.2765
   76SLPC    HB 6825   2.275   3.951   6.915 -0.8900 -0.7614  0.2499
   76SLPC    C2 6826   2.085   3.990   6.976  0.5199  0.5519 -1.0913
   76SLPC    HS 6827   2.036   4.029   7.068 -0.9291 -1.2197 -1.0547
   76SLPC   O21 6828   2.036   3.850   6.954  0.5100 -0.4324 -0.0046
   76SLPC   C21 6829   1.906   3.830   6.937 -0.0146 -0.7158 -0.2669
   76SLPC   O22 6830   1.815   3.906   6.963  0.0653 -0.3082 -0.1946
   76SLPC   C22 6831   1.883   3.688   6.893  0.2642 -0.0589 -0.5375
   76SLPC   H2R 6832   1.979   3.631   6.896 -0.2276 -0.9523 -1.2578
   76SLPC   H2S 6833   1.811   3.643   6.965 -1.4149  1.4564 -1.1959
   76SLPC    C3 6834   2.059   4.081   6.860 -0.2671  0.1269 -0.2202
   76SLPC    HX 6835   2.088   4.187   6.881 -0.0991  0.8098 -3.4085
   76SLPC    HY 6836   1.949   4.078   6.843 -0.0652 -0.2442 -1.5610
   76SLPC   O31 6837   2.132   4.028   6.748 -0.4426  0.4718  0.0475
   76SLPC   C31 6838   2.109   4.083   6.637  0.8209 -0.4784  0.0600
   76SLPC   O32 6839   2.037   4.181   6.624 -0.1942  0.2506 -0.1959
   76SLPC   C32 6840   2.182   3.992   6.530  0.0539 -0.3681 -0.1073
   76SLPC   H2X 6841   2.151   3.886   6.538 -0.1745 -0.1700  1.8982
   76SLPC   H2Y 6842   2.290   3.995   6.556  0.0649  2.8998 -0.1096
   76SLPC   C23 6843   1.840   3.659   6.749  0.6573  0.5848  0.5043
   76SLPC   H3R 6844   1.764   3.734   6.718  0.4807  0.4416  0.5876
   76SLPC   H3S 6845   1.799   3.556   6.741 -0.2740  1.0773 -1.7245
   76SLPC   C24 6846   1.956   3.671   6.641 -0.8890 -0.4784  0.4009
   76SLPC   H4R 6847   2.038   3.608   6.682  0.6470  0.7604 -0.6675
   76SLPC   H4S 6848   1.994   3.775   6.650  1.6560 -1.3023 -0.1919
   76SLPC   C25 6849   1.914   3.640   6.495  0.3163 -0.0120 -0.7503
   76SLPC   H5R 6850   1.897   3.530   6.489 -0.3408 -0.0513  1.2251
   76SLPC   H5S 6851   1.999   3.659   6.425  1.6879 -0.2954  0.7612
   76SLPC   C26 6852   1.787   3.711   6.442  0.8218  0.4530  0.4717
   76SLPC   H6R 6853   1.710   3.713   6.522 -0.8933 -1.8550 -0.9716
   76SLPC   H6S 6854   1.743   3.659   6.353 -0.8155  1.9591  0.3464
   76SLPC   C27 6855   1.829   3.845   6.389 -0.3969 -0.2858  0.0291
   76SLPC   H7R 6856   1.912   3.832   6.316  1.3770 -1.0835  2.0700
   76SLPC   H7S 6857   1.866   3.915   6.467 -0.2385 -0.6146  0.2524
   76SLPC   C28 6858   1.714   3.918   6.315 -0.1166  0.5862  0.1021
   76SLPC   H8R 6859   1.633   3.941   6.387  3.2340  2.1231  3.7505
   76SLPC   H8S 6860   1.688   3.845   6.236  1.3268 -0.6213  0.6843
   76SLPC   C29 6861   1.771   4.050   6.267 -0.1552  0.5461  0.3246
   76SLPC   H9R 6862   1.774   4.121   6.351 -0.6140  1.2196 -0.2257
   76SLPC  C210 6863   1.802   4.089   6.146 -0.4519 -0.6300 -0.4079
   76SLPC  H10R 6864   1.835   4.190   6.119  0.6949 -0.9294 -0.1627
   76SLPC  C211 6865   1.806   3.994   6.030  0.0507 -0.8593 -0.0776
   76SLPC  H11R 6866   1.703   3.985   5.989  0.2055 -1.2543 -0.3824
   76SLPC  H11S 6867   1.836   3.890   6.054  1.6511 -0.3780  0.1044
   76SLPC  C212 6868   1.903   4.048   5.921  0.2483 -0.2608 -0.9333
   76SLPC  H12R 6869   2.012   4.029   5.926  0.4955 -0.1282 -3.9694
   76SLPC  C213 6870   1.865   4.122   5.812 -0.2244  0.2753  0.3754
   76SLPC  H13R 6871   1.943   4.160   5.744 -1.1415  3.0791  0.7601
   76SLPC  C214 6872   1.718   4.146   5.780  0.0381  0.3166  0.3407
   76SLPC  H14R 6873   1.656   4.186   5.863 -0.3491  0.4263  0.0019
   76SLPC  H14S 6874   1.665   4.052   5.755  1.1544 -0.1758 -0.2582
   76SLPC  C215 6875   1.707   4.246   5.665  0.5592  0.6900  0.0838
   76SLPC  H15R 6876   1.775   4.331   5.682  1.7047 -0.4101  1.1934
   76SLPC  H15S 6877   1.605   4.290   5.656 -0.1309 -1.0504 -1.5462
   76SLPC  C216 6878   1.719   4.185   5.524 -0.4433  0.0047  0.2268
   76SLPC  H16R 6879   1.645   4.105   5.505  0.0042  0.0619 -1.9539
   76SLPC  H16S 6880   1.812   4.124   5.525  0.3385  1.1107 -1.5264
   76SLPC  C217 6881   1.728   4.293   5.416  0.2424 -0.3063  0.0152
   76SLPC  H17R 6882   1.812   4.363   5.436  0.2010 -0.6301  1.4046
   76SLPC  H17S 6883   1.640   4.357   5.437  1.2886  1.8540 -1.7095
   76SLPC  C218 6884   1.722   4.240   5.274  0.6948  0.2467 -0.6075
   76SLPC  H18R 6885   1.696   4.320   5.202 -0.0403 -1.0100 -1.7688
   76SLPC  H18S 6886   1.656   4.152   5.262  2.3180 -1.2913  1.0823
   76SLPC  H18T 6887   1.821   4.201   5.244  1.2920  0.4687  0.9890
   76SLPC   C33 6888   2.160   4.043   6.392  0.2731 -0.4249  0.4477
   76SLPC   H3X 6889   2.182   4.152   6.399 -1.1367 -0.1073  0.3431
   76SLPC   H3Y 6890   2.054   4.042   6.358  0.2183  2.4354  0.2798
   76SLPC   C34 6891   2.244   3.978   6.289  0.2153  0.3878 -0.4275
   76SLPC   H4X 6892   2.349   3.993   6.320 -0.5725 -1.9619  4.3407
   76SLPC   H4Y 6893   2.229   4.040   6.198 -0.1644  0.1120 -0.5575
   76SLPC   C35 6894   2.220   3.826   6.260 -0.2897 -0.8264  1.0254
   76SLPC   H5X 6895   2.120   3.811   6.214  0.9701 -0.2861 -2.1349
   76SLPC   H5Y 6896   2.238   3.762   6.349 -1.4350 -1.2773  0.9558
   76SLPC   C36 6897   2.318   3.779   6.151 -0.7306  0.1681  0.5250
   76SLPC   H6X 6898   2.420   3.814   6.180  1.2997 -3.3225 -1.7433
   76SLPC   H6Y 6899   2.289   3.826   6.055 -2.3645 -0.9375  0.4457
   76SLPC   C37 6900   2.321   3.622   6.137 -1.0319 -0.2866 -0.0664
   76SLPC   H7X 6901   2.238   3.589   6.071  0.3019 -0.5815 -1.6662
   76SLPC   H7Y 6902   2.317   3.590   6.243  0.4795  2.5861  0.9598
   76SLPC   C38 6903   2.453   3.571   6.076  0.0510 -0.3409  0.2209
   76SLPC   H8X 6904   2.470   3.471   6.119 -3.2120 -0.9263  0.3782
   76SLPC   H8Y 6905   2.541   3.631   6.108 -0.3778  0.9755 -0.9502
   76SLPC   C39 6906   2.447   3.590   5.926  0.4598  0.6229  0.4948
   76SLPC   H9X 6907   2.446   3.696   5.896  1.9444  0.5560  0.1355
   76SLPC   H9Y 6908   2.355   3.548   5.880  2.1121 -0.3809 -2.0695
   76SLPC  C310 6909   2.559   3.520   5.847  0.1475  0.4216 -0.7337
   76SLPC  H10X 6910   2.566   3.412   5.872  2.9511  0.0446 -2.6032
   76SLPC  H10Y 6911   2.656   3.561   5.884 -0.7170  2.2314 -0.4024
   76SLPC  C311 6912   2.539   3.520   5.699 -0.3402  0.1668 -0.0213
   76SLPC  H11X 6913   2.552   3.628   5.675 -0.6145  0.2586  0.2389
   76SLPC  H11Y 6914   2.434   3.489   5.681 -1.0065  1.2394  1.7464
   76SLPC  C312 6915   2.634   3.451   5.607  0.0261  0.0548  0.6387
   76SLPC  H12X 6916   2.639   3.346   5.642  0.1859 -0.7607 -1.6498
   76SLPC  H12Y 6917   2.740   3.484   5.612  0.5715 -1.5576  0.2081
   76SLPC  C313 6918   2.580   3.443   5.459 -0.2161 -0.6041 -0.4644
   76SLPC  H13X 6919   2.480   3.396   5.451 -0.0802 -0.9368 -0.2498
   76SLPC  H13Y 6920   2.653   3.373   5.414  1.5665 -0.3671  1.8090
   76SLPC  C314 6921   2.593   3.573   5.379  0.0654 -0.4215 -0.1640
   76SLPC  H14X 6922   2.684   3.633   5.401 -1.8624  3.1959 -1.1242
   76SLPC  H14Y 6923   2.511   3.644   5.403  0.2682 -0.1875 -0.1569
   76SLPC  C315 6924   2.584   3.558   5.226  0.1624 -0.2591  0.0744
   76SLPC  H15X 6925   2.568   3.659   5.181  0.2236 -1.1877 -2.1695
   76SLPC  H15Y 6926   2.487   3.510   5.205  0.0681 -0.0538  0.0350
   76SLPC  C316 6927   2.695   3.483   5.158 -0.1778 -0.2060 -0.2820
   76SLPC  H16X 6928   2.669   3.468   5.051 -2.6953 -2.2407  0.5362
   76SLPC  H16Y 6929   2.709   3.389   5.217 -0.0962  0.8963  1.5280
   76SLPC  C317 6930   2.838   3.549   5.152  0.2091  0.6062  0.0424
   76SLPC  H17X 6931   2.911   3.468   5.132 -1.0416  0.1759 -3.4798
   76SLPC  H17Y 6932   2.853   3.602   5.249  1.9121 -0.9793  0.7127
   76SLPC  C318 6933   2.845   3.654   5.041 -0.3684  0.7937 -0.0753
   76SLPC  H18X 6934   2.752   3.715   5.044 -0.4304  0.7114 -0.2998
   76SLPC  H18Y 6935   2.841   3.603   4.943 -1.0036  2.3753 -0.9117
   76SLPC  H18Z 6936   2.934   3.720   5.042 -0.5871  1.1195 -1.0905
   77SLPC     N 6937   5.524   2.404   6.770 -0.0395  0.7088  0.1460
   77SLPC   C13 6938   5.434   2.390   6.886  0.0137 -0.8513 -0.1728
   77SLPC  H13A 6939   5.359   2.312   6.877  1.7441 -2.5813 -0.3334
   77SLPC  H13B 6940   5.490   2.372   6.977  0.8904  0.0366 -0.5213
   77SLPC  H13C 6941   5.381   2.480   6.913  1.0584 -0.7877  1.9243
   77SLPC   C14 6942   5.615   2.289   6.773 -0.6514  0.4299  0.1335
   77SLPC  H14A 6943   5.656   2.287   6.873  1.1200  2.5047 -0.4590
   77SLPC  H14B 6944   5.569   2.195   6.748  0.3196  0.2569 -1.1205
   77SLPC  H14C 6945   5.704   2.307   6.714 -1.4085  2.4688 -0.4755
   77SLPC   C15 6946   5.606   2.530   6.784  0.1825 -0.0227  0.4354
   77SLPC  H15A 6947   5.663   2.539   6.875 -0.5140  1.8665  0.7320
   77SLPC  H15B 6948   5.680   2.521   6.706  0.9587 -0.0149  1.1643
   77SLPC  H15C 6949   5.553   2.621   6.758 -0.6191 -0.2925  1.0927
   77SLPC   C12 6950   5.447   2.403   6.635  0.0417  0.1698  0.0476
   77SLPC  H12A 6951   5.384   2.490   6.630  1.0590  0.9883  0.7764
   77SLPC  H12B 6952   5.389   2.312   6.630  0.9630 -0.3449 -2.1144
   77SLPC   C11 6953   5.530   2.409   6.505  0.2144 -0.3573  0.0062
   77SLPC  H11A 6954   5.467   2.409   6.413  0.1490 -1.4548  0.0413
   77SLPC  H11B 6955   5.587   2.317   6.481  1.4202  0.1496  0.8343
   77SLPC     P 6956   5.615   2.643   6.425 -0.0086  0.5884  0.0645
   77SLPC   O13 6957   5.536   2.746   6.494  0.4348  0.5649  0.1056
   77SLPC   O14 6958   5.749   2.684   6.379 -0.1140  0.5456 -0.2692
   77SLPC   O12 6959   5.623   2.514   6.504 -0.4419 -0.0088  0.3635
   77SLPC   O11 6960   5.534   2.599   6.292 -0.3421 -0.2759 -0.2172
   77SLPC    C1 6961   5.603   2.539   6.184 -0.6283  0.3477 -0.5920
   77SLPC    HA 6962   5.691   2.485   6.225 -0.2539  0.4310 -1.2698
   77SLPC    HB 6963   5.531   2.465   6.143  0.0292 -0.0396 -1.0792
   77SLPC    C2 6964   5.623   2.640   6.072  0.3921 -0.0071  0.1923
   77SLPC    HS 6965   5.646   2.736   6.124 -0.4187  0.3766 -0.1238
   77SLPC   O21 6966   5.501   2.644   6.001  0.4166  0.2338 -0.6972
   77SLPC   C21 6967   5.491   2.733   5.912  0.9802 -0.1615  0.0175
   77SLPC   O22 6968   5.569   2.826   5.897  0.4257 -0.5354  0.1182
   77SLPC   C22 6969   5.362   2.699   5.833 -0.2342  0.5649 -0.3064
   77SLPC   H2R 6970   5.367   2.592   5.802  1.0507 -0.1137  1.9745
   77SLPC   H2S 6971   5.276   2.709   5.903  0.5877  0.2017  0.7971
   77SLPC    C3 6972   5.751   2.602   5.978  0.3676 -0.0952 -0.2085
   77SLPC    HX 6973   5.851   2.601   6.027  0.7476  2.3236 -0.8103
   77SLPC    HY 6974   5.762   2.693   5.915 -3.1277  0.1579 -0.6733
   77SLPC   O31 6975   5.715   2.502   5.884 -0.3987 -0.2020  0.1675
   77SLPC   C31 6976   5.731   2.378   5.909  0.8888  0.0232 -0.8186
   77SLPC   O32 6977   5.792   2.335   6.005 -0.3615 -0.3086 -0.1638
   77SLPC   C32 6978   5.651   2.295   5.803 -0.3790  0.1446  0.2376
   77SLPC   H2X 6979   5.545   2.329   5.802 -0.9984 -1.6894 -0.9099
   77SLPC   H2Y 6980   5.645   2.187   5.828 -0.0496 -0.2534 -1.3150
   77SLPC   C23 6981   5.339   2.799   5.715  0.1295 -0.1049 -0.1527
   77SLPC   H3R 6982   5.347   2.902   5.755  0.1772  0.7579 -2.2496
   77SLPC   H3S 6983   5.235   2.793   5.677  0.1439 -0.5356 -0.1271
   77SLPC   C24 6984   5.437   2.780   5.601  0.2201 -0.4084 -0.4015
   77SLPC   H4R 6985   5.441   2.675   5.563  1.3813 -0.2990 -0.5967
   77SLPC   H4S 6986   5.536   2.804   5.645 -0.8263 -0.0397  1.8865
   77SLPC   C25 6987   5.416   2.881   5.492  0.3594  0.0654 -0.2834
   77SLPC   H5R 6988   5.441   2.979   5.538 -0.5017  1.5399 -2.7932
   77SLPC   H5S 6989   5.308   2.880   5.469  0.4009 -1.8798 -0.5362
   77SLPC   C26 6990   5.493   2.865   5.368 -0.2271 -0.5994  0.2165
   77SLPC   H6R 6991   5.459   2.776   5.312 -1.2796  0.3952 -0.7881
   77SLPC   H6S 6992   5.599   2.850   5.397 -0.2859 -0.6726  0.3927
   77SLPC   C27 6993   5.493   2.991   5.278  0.1660 -0.8207  0.0404
   77SLPC   H7R 6994   5.394   3.015   5.233 -0.5587  0.2665  2.0647
   77SLPC   H7S 6995   5.573   2.975   5.203  1.2401  1.5568  0.5628
   77SLPC   C28 6996   5.545   3.118   5.351 -0.6135  0.0616  0.3076
   77SLPC   H8R 6997   5.643   3.078   5.385 -0.8302 -1.6933 -0.9596
   77SLPC   H8S 6998   5.483   3.147   5.438 -1.4259 -1.0035  0.1044
   77SLPC   C29 6999   5.555   3.234   5.249 -0.1222 -0.1606  0.3841
   77SLPC   H9R 7000   5.460   3.270   5.208  0.5793  2.1152  0.6248
   77SLPC  C210 7001   5.669   3.283   5.196  0.6642  0.7036 -0.2817
   77SLPC  H10R 7002   5.666   3.367   5.124  0.7570  1.7815  0.9304
   77SLPC  C211 7003   5.811   3.242   5.228  0.7955 -0.5055 -0.2435
   77SLPC  H11R 7004   5.819   3.192   5.327 -0.0594  0.4935  0.3508
   77SLPC  H11S 7005   5.874   3.332   5.239 -0.1525  0.3833 -1.6868
   77SLPC  C212 7006   5.863   3.138   5.135  0.0451  0.2796 -0.2026
   77SLPC  H12R 7007   5.796   3.109   5.053 -1.2802  1.1255  0.5414
   77SLPC  C213 7008   5.990   3.091   5.141 -0.4740  0.0031 -0.8987
   77SLPC  H13R 7009   6.009   2.999   5.084 -4.0876 -0.4596 -1.6064
   77SLPC  C214 7010   6.089   3.119   5.253  0.5124  0.2815  0.2094
   77SLPC  H14R 7011   6.109   3.227   5.266 -0.7845  0.6468 -0.5712
   77SLPC  H14S 7012   6.190   3.078   5.232  0.0766 -0.2318 -1.0186
   77SLPC  C215 7013   6.048   3.059   5.395  0.2922  0.0983  0.0377
   77SLPC  H15R 7014   5.973   3.127   5.441 -0.1481 -0.8981  0.8110
   77SLPC  H15S 7015   6.145   3.062   5.449  1.0456  1.7426 -1.3043
   77SLPC  C216 7016   5.997   2.917   5.386 -0.2398 -0.1835 -0.9259
   77SLPC  H16R 7017   6.087   2.859   5.359  0.6770  0.6971  0.1181
   77SLPC  H16S 7018   5.919   2.917   5.307  1.2332  1.4656 -2.4789
   77SLPC  C217 7019   5.945   2.878   5.527 -0.6775  0.4251 -0.3984
   77SLPC  H17R 7020   5.898   2.777   5.521  0.1724 -0.0382  0.4805
   77SLPC  H17S 7021   5.870   2.958   5.546 -1.9872 -1.0277  0.8898
   77SLPC  C218 7022   6.050   2.889   5.645  0.0941  0.2498 -0.1576
   77SLPC  H18R 7023   6.111   2.982   5.634  0.0554  0.1669 -1.0985
   77SLPC  H18S 7024   6.123   2.808   5.665 -0.1699  0.0531  0.0028
   77SLPC  H18T 7025   5.993   2.902   5.740 -1.0881  2.3613 -1.0771
   77SLPC   C33 7026   5.710   2.303   5.665 -0.1004 -0.2934  0.4186
   77SLPC   H3X 7027   5.669   2.211   5.618  0.3420 -0.6678  0.7601
   77SLPC   H3Y 7028   5.821   2.298   5.663 -0.1104 -0.2116 -1.1967
   77SLPC   C34 7029   5.662   2.427   5.588  0.2906  0.7517 -0.1927
   77SLPC   H4X 7030   5.723   2.508   5.632  0.3301 -0.2121  1.6164
   77SLPC   H4Y 7031   5.557   2.459   5.605  0.7202  1.6018  0.9650
   77SLPC   C35 7032   5.696   2.408   5.444  0.4382  0.0999 -0.0096
   77SLPC   H5X 7033   5.782   2.339   5.433  0.6005  0.2317  0.4037
   77SLPC   H5Y 7034   5.727   2.506   5.400  1.6125 -0.0132  0.5292
   77SLPC   C36 7035   5.569   2.362   5.376 -0.1905  0.4169 -0.0970
   77SLPC   H6X 7036   5.502   2.450   5.367  0.1658  0.7890  0.8008
   77SLPC   H6Y 7037   5.526   2.283   5.441  0.0092 -0.0578 -0.5309
   77SLPC   C37 7038   5.602   2.302   5.236 -0.5979  0.7519 -0.6480
   77SLPC   H7X 7039   5.501   2.267   5.205 -0.3379  0.3810 -1.0764
   77SLPC   H7Y 7040   5.667   2.213   5.253 -1.6956 -0.3831 -2.1561
   77SLPC   C38 7041   5.650   2.400   5.128 -0.2822 -0.0210 -0.0038
   77SLPC   H8X 7042   5.695   2.347   5.042  0.0720 -0.5441  0.4971
   77SLPC   H8Y 7043   5.718   2.472   5.180  0.5905 -1.2234  0.5800
   77SLPC   C39 7044   5.539   2.491   5.071  0.5926  0.0330 -0.4407
   77SLPC   H9X 7045   5.490   2.548   5.152 -2.1042  0.3378 -2.1712
   77SLPC   H9Y 7046   5.461   2.431   5.020 -1.2529 -0.7489  2.9917
   77SLPC  C310 7047   5.585   2.598   4.972 -0.1801 -0.6839 -0.1392
   77SLPC  H10X 7048   5.504   2.626   4.901  0.0071  1.8300  0.5247
   77SLPC  H10Y 7049   5.671   2.562   4.912  2.2599  0.9462  2.0778
   77SLPC  C311 7050   5.634   2.726   5.037 -0.0989 -0.5449 -0.2649
   77SLPC  H11X 7051   5.718   2.705   5.107 -0.1572 -2.4338 -0.7203
   77SLPC  H11Y 7052   5.559   2.761   5.112 -0.3159  0.4981 -0.9526
   77SLPC  C312 7053   5.674   2.837   4.938 -0.5015  0.0550 -0.8857
   77SLPC  H12X 7054   5.654   2.935   4.986 -0.6428 -1.3535  2.1589
   77SLPC  H12Y 7055   5.613   2.825   4.846 -0.6201  0.2535 -0.8342
   77SLPC  C313 7056   5.828   2.823   4.913  0.1146  0.2201 -0.0067
   77SLPC  H13X 7057   5.845   2.713   4.911 -0.0148  0.2093 -0.8592
   77SLPC  H13Y 7058   5.891   2.850   5.001  2.0174 -0.4819 -1.0850
   77SLPC  C314 7059   5.870   2.888   4.782 -0.4106  0.0106  0.7453
   77SLPC  H14X 7060   5.981   2.893   4.782 -0.4075  0.0787 -0.0398
   77SLPC  H14Y 7061   5.823   2.989   4.777 -1.4314 -0.4412  0.8158
   77SLPC  C315 7062   5.837   2.803   4.656  0.1954  0.6498  0.2994
   77SLPC  H15X 7063   5.738   2.826   4.611 -0.3512 -0.0971  1.0884
   77SLPC  H15Y 7064   5.836   2.701   4.700  0.2490  0.5903  0.1623
   77SLPC  C316 7065   5.930   2.790   4.538 -0.8038  0.8086 -0.4617
   77SLPC  H16X 7066   6.034   2.789   4.575 -1.4683 -0.3196  1.5370
   77SLPC  H16Y 7067   5.930   2.891   4.492  1.6071  0.7659 -0.6447
   77SLPC  C317 7068   5.894   2.683   4.441 -0.4760  0.0543  0.5035
   77SLPC  H17X 7069   5.787   2.700   4.416  0.0064  1.1035 -1.0437
   77SLPC  H17Y 7070   5.911   2.585   4.490  0.0099  0.5138  1.2640
   77SLPC  C318 7071   5.970   2.703   4.305 -0.3603  0.5601 -0.7844
   77SLPC  H18X 7072   6.063   2.644   4.297 -1.1272 -0.5648 -1.8406
   77SLPC  H18Y 7073   5.994   2.810   4.288  0.5461  0.4602 -0.1944
   77SLPC  H18Z 7074   5.917   2.676   4.211  0.9912 -0.7801 -1.1875
   78SLPC     N 7075   5.953   1.373   6.423 -0.0247  0.2455 -0.2952
   78SLPC   C13 7076   5.853   1.334   6.523  0.1664  0.2610 -0.8911
   78SLPC  H13A 7077   5.769   1.402   6.524 -0.3487 -0.3653 -0.5126
   78SLPC  H13B 7078   5.823   1.231   6.516  0.7302 -0.0418  0.6617
   78SLPC  H13C 7079   5.899   1.331   6.621 -0.5866 -0.0446 -0.5409
   78SLPC   C14 7080   5.892   1.375   6.287  0.0678  0.2419 -0.4387
   78SLPC  H14A 7081   5.805   1.312   6.278  1.4280 -1.5011 -2.1811
   78SLPC  H14B 7082   5.846   1.472   6.276  0.6258  0.7869  1.5852
   78SLPC  H14C 7083   5.960   1.358   6.205 -1.2312 -0.2409 -1.4394
   78SLPC   C15 7084   6.058   1.265   6.433  1.3073 -0.6816 -0.0761
   78SLPC  H15A 7085   6.128   1.283   6.352  1.0288  0.8585 -0.0038
   78SLPC  H15B 7086   6.111   1.260   6.527 -0.7905 -0.0295  1.2083
   78SLPC  H15C 7087   6.008   1.170   6.418 -0.9391  0.7021 -1.9929
   78SLPC   C12 7088   5.991   1.514   6.458 -0.0295  0.0054 -1.3294
   78SLPC  H12A 7089   6.057   1.534   6.375  1.9792 -2.6817 -0.5489
   78SLPC  H12B 7090   6.046   1.501   6.550 -1.2556  4.3049  0.2217
   78SLPC   C11 7091   5.888   1.635   6.470  0.0326  0.5236  0.9831
   78SLPC  H11A 7092   5.858   1.628   6.364  2.5777 -1.6530  0.2856
   78SLPC  H11B 7093   5.938   1.732   6.491  1.0588 -0.3062  2.6039
   78SLPC     P 7094   5.642   1.690   6.525  0.6160 -0.1132 -0.0226
   78SLPC   O13 7095   5.545   1.648   6.629  0.2571 -0.1932  0.2069
   78SLPC   O14 7096   5.674   1.834   6.514  0.2060  0.3142  0.4619
   78SLPC   O12 7097   5.779   1.616   6.563  0.1309 -0.4822 -1.0577
   78SLPC   O11 7098   5.608   1.636   6.381 -0.2621  0.3057  0.5099
   78SLPC    C1 7099   5.486   1.574   6.355 -0.3785  0.0577  0.1843
   78SLPC    HA 7100   5.450   1.513   6.441 -1.7668 -0.1546 -0.5169
   78SLPC    HB 7101   5.400   1.641   6.333 -2.6614 -2.2886  1.4013
   78SLPC    C2 7102   5.497   1.469   6.238  0.2751 -0.2509  0.6611
   78SLPC    HS 7103   5.571   1.391   6.265  1.4937 -0.2341 -2.2706
   78SLPC   O21 7104   5.533   1.542   6.118 -0.0939 -0.5918  0.3586
   78SLPC   C21 7105   5.613   1.475   6.037  0.1908  0.6592 -0.8528
   78SLPC   O22 7106   5.664   1.362   6.065  0.1908 -0.9727 -0.0711
   78SLPC   C22 7107   5.640   1.556   5.914  0.3640  0.6107  0.1761
   78SLPC   H2R 7108   5.576   1.647   5.910  1.6526  1.5307 -0.2850
   78SLPC   H2S 7109   5.744   1.594   5.906  0.7477 -0.5949 -0.8853
   78SLPC    C3 7110   5.361   1.402   6.209  0.2477 -0.5407  0.6361
   78SLPC    HX 7111   5.277   1.474   6.199 -1.7765 -2.5915  2.0456
   78SLPC    HY 7112   5.338   1.347   6.303 -2.6616  1.9272  1.5400
   78SLPC   O31 7113   5.375   1.318   6.091  1.0278 -0.7936  0.0618
   78SLPC   C31 7114   5.415   1.194   6.120  0.7078 -0.0908 -0.0123
   78SLPC   O32 7115   5.439   1.156   6.230 -0.0758  0.5194  0.2572
   78SLPC   C32 7116   5.429   1.109   5.992 -0.6088 -0.0336 -0.7878
   78SLPC   H2X 7117   5.531   1.128   5.951  0.7287  0.5334  2.5292
   78SLPC   H2Y 7118   5.352   1.136   5.916  0.5198 -1.2618 -2.4216
   78SLPC   C23 7119   5.616   1.473   5.782  0.6631 -0.5982 -0.4331
   78SLPC   H3R 7120   5.684   1.385   5.776  0.2141 -0.9884  0.0037
   78SLPC   H3S 7121   5.647   1.545   5.704  1.0851  0.6279  0.8385
   78SLPC   C24 7122   5.464   1.443   5.771  0.4290  0.6451 -0.8545
   78SLPC   H4R 7123   5.405   1.532   5.802 -0.2885 -0.2284  0.3723
   78SLPC   H4S 7124   5.445   1.357   5.839  0.8043  1.0499 -0.2285
   78SLPC   C25 7125   5.429   1.404   5.628 -0.3304 -0.4048 -0.0376
   78SLPC   H5R 7126   5.457   1.492   5.567  0.5193  0.4797  1.5777
   78SLPC   H5S 7127   5.318   1.399   5.624 -0.3522 -0.8362  0.8948
   78SLPC   C26 7128   5.494   1.276   5.595 -0.3539  0.2219  0.5263
   78SLPC   H6R 7129   5.474   1.207   5.680 -0.2117  0.1660  0.5142
   78SLPC   H6S 7130   5.603   1.283   5.577 -0.3729 -1.1706 -0.2182
   78SLPC   C27 7131   5.436   1.220   5.463  0.9361 -0.3650  0.1245
   78SLPC   H7R 7132   5.435   1.304   5.391 -1.1709 -0.4156  0.0313
   78SLPC   H7S 7133   5.328   1.198   5.478  0.4442 -0.1127 -2.5035
   78SLPC   C28 7134   5.513   1.100   5.412  0.0000  0.7395 -0.3823
   78SLPC   H8R 7135   5.539   1.027   5.492 -3.6871  1.5034  1.7392
   78SLPC   H8S 7136   5.609   1.127   5.364  0.3856  0.8432  0.4317
   78SLPC   C29 7137   5.422   1.012   5.318  0.8646 -0.0462 -0.3315
   78SLPC   H9R 7138   5.319   1.017   5.356  0.1648  1.4735 -2.2687
   78SLPC  C210 7139   5.445   0.965   5.194 -0.1660  0.3513  0.2046
   78SLPC  H10R 7140   5.376   0.896   5.142 -0.4324  0.3027  0.6182
   78SLPC  C211 7141   5.576   0.967   5.118 -0.1573  0.1025 -0.2638
   78SLPC  H11R 7142   5.597   0.862   5.090 -1.8203  0.1377 -1.8547
   78SLPC  H11S 7143   5.662   1.015   5.170 -0.3080  1.3637 -1.1119
   78SLPC  C212 7144   5.551   1.055   4.999 -0.3268 -0.4353  0.0438
   78SLPC  H12R 7145   5.499   1.149   5.024 -0.7928 -0.3756 -1.0708
   78SLPC  C213 7146   5.590   1.038   4.873 -0.3902  0.2781  0.7960
   78SLPC  H13R 7147   5.549   1.103   4.794  1.1327  0.8291  0.4353
   78SLPC  C214 7148   5.679   0.926   4.838  0.9183 -0.0017  0.3403
   78SLPC  H14R 7149   5.718   0.870   4.925  0.9772 -0.4943  0.0020
   78SLPC  H14S 7150   5.773   0.967   4.796  1.1447 -0.0807  0.7709
   78SLPC  C215 7151   5.602   0.837   4.742  0.1386 -0.1307 -0.7852
   78SLPC  H15R 7152   5.495   0.820   4.765  0.6278 -0.6409  1.3925
   78SLPC  H15S 7153   5.640   0.733   4.749  1.4995  0.3826 -0.1763
   78SLPC  C216 7154   5.618   0.890   4.599  0.2415  0.7381 -0.4450
   78SLPC  H16R 7155   5.557   0.983   4.595 -0.1326  0.6521  1.7122
   78SLPC  H16S 7156   5.580   0.805   4.539  1.8512 -0.3042 -0.0553
   78SLPC  C217 7157   5.757   0.898   4.547 -0.3651 -0.4706 -0.0662
   78SLPC  H17R 7158   5.820   0.816   4.588 -1.3896 -0.8051  0.8777
   78SLPC  H17S 7159   5.796   0.998   4.576 -2.4795  0.7109 -1.0532
   78SLPC  C218 7160   5.758   0.895   4.397  0.2296 -0.1250 -0.0294
   78SLPC  H18R 7161   5.685   0.817   4.365 -2.4518  1.9515  0.6803
   78SLPC  H18S 7162   5.860   0.875   4.356  0.5305 -0.0733  0.6883
   78SLPC  H18T 7163   5.716   0.989   4.355 -0.1487 -1.5732 -3.1499
   78SLPC   C33 7164   5.433   0.965   6.028 -0.8996  0.0428  0.1454
   78SLPC   H3X 7165   5.355   0.960   6.107 -0.9900  1.6645  0.1945
   78SLPC   H3Y 7166   5.535   0.947   6.068 -0.6033  2.3494  0.5702
   78SLPC   C34 7167   5.414   0.876   5.901 -0.0776  0.0464  0.5067
   78SLPC   H4X 7168   5.336   0.923   5.837  0.3073 -0.0442 -0.0331
   78SLPC   H4Y 7169   5.392   0.775   5.944 -1.1731  1.0745  2.5268
   78SLPC   C35 7170   5.537   0.874   5.811  0.0598  1.2071 -0.1516
   78SLPC   H5X 7171   5.612   0.820   5.872 -0.3938  0.3148 -0.3792
   78SLPC   H5Y 7172   5.581   0.975   5.791  0.7922  0.7660 -0.8297
   78SLPC   C36 7173   5.519   0.798   5.682  0.0681  0.1552  0.3682
   78SLPC   H6X 7174   5.605   0.819   5.615 -0.4040 -0.5029 -0.4687
   78SLPC   H6Y 7175   5.433   0.830   5.619  1.0265 -0.9400 -1.6056
   78SLPC   C37 7176   5.531   0.645   5.701  0.2111  0.8964  0.1587
   78SLPC   H7X 7177   5.472   0.612   5.789  0.9019 -0.8202  0.0065
   78SLPC   H7Y 7178   5.636   0.617   5.723  0.2427  0.7927 -0.1198
   78SLPC   C38 7179   5.496   0.560   5.571  0.1008 -0.5651 -0.3787
   78SLPC   H8X 7180   5.389   0.576   5.547 -0.4171 -1.5826  1.1253
   78SLPC   H8Y 7181   5.499   0.451   5.592 -1.8878 -0.8365 -1.2756
   78SLPC   C39 7182   5.585   0.587   5.444 -0.0450 -0.6073  0.0198
   78SLPC   H9X 7183   5.692   0.569   5.471 -0.4356 -1.1430  1.2661
   78SLPC   H9Y 7184   5.593   0.695   5.423 -0.5846 -0.6083 -0.1985
   78SLPC  C310 7185   5.545   0.505   5.321  0.1025  0.7024 -0.1079
   78SLPC  H10X 7186   5.441   0.530   5.290 -0.1625 -1.2721 -0.9923
   78SLPC  H10Y 7187   5.536   0.398   5.351 -2.7732  1.7274  3.4470
   78SLPC  C311 7188   5.645   0.513   5.208  0.3014 -0.1478  0.0596
   78SLPC  H11X 7189   5.734   0.449   5.225  1.8356  1.3949 -1.6618
   78SLPC  H11Y 7190   5.674   0.618   5.187 -1.8546  1.0650  2.5336
   78SLPC  C312 7191   5.589   0.485   5.069 -0.1708  0.1701  0.3831
   78SLPC  H12X 7192   5.518   0.567   5.041 -1.2677 -0.5984  0.8368
   78SLPC  H12Y 7193   5.540   0.388   5.089  1.4057 -0.3695  1.8767
   78SLPC  C313 7194   5.700   0.462   4.969  0.6186 -0.0429 -0.6490
   78SLPC  H13X 7195   5.755   0.373   5.004 -0.1829 -0.5218 -0.5913
   78SLPC  H13Y 7196   5.776   0.544   4.967 -0.6770  1.1953 -0.8523
   78SLPC  C314 7197   5.665   0.454   4.820  0.0105  1.1830 -0.6538
   78SLPC  H14X 7198   5.608   0.544   4.789  0.6225  1.5216 -0.8081
   78SLPC  H14Y 7199   5.609   0.358   4.814  1.9576 -0.0256 -0.3916
   78SLPC  C315 7200   5.790   0.434   4.736  0.3581 -0.4430  0.4243
   78SLPC  H15X 7201   5.850   0.349   4.774  1.2602  0.1524  0.3632
   78SLPC  H15Y 7202   5.850   0.527   4.745 -1.2133  0.7186 -0.4798
   78SLPC  C316 7203   5.756   0.400   4.592 -0.2369 -0.3441  0.4424
   78SLPC  H16X 7204   5.699   0.486   4.552  0.7161 -1.1503 -2.8923
   78SLPC  H16Y 7205   5.692   0.309   4.589 -0.5918 -0.0733 -0.1786
   78SLPC  C317 7206   5.880   0.377   4.506  0.1847  0.5040  0.3599
   78SLPC  H17X 7207   5.941   0.297   4.553  1.1038  1.6893  1.2374
   78SLPC  H17Y 7208   5.947   0.466   4.508 -2.1983  2.5339 -2.3956
   78SLPC  C318 7209   5.846   0.327   4.361 -1.2082  0.1340 -0.8766
   78SLPC  H18X 7210   5.796   0.229   4.376  0.7250 -0.5521  1.8793
   78SLPC  H18Y 7211   5.940   0.315   4.304 -1.2126 -0.0545 -0.8443
   78SLPC  H18Z 7212   5.779   0.394   4.303 -2.2299 -1.0664 -1.1286
   79SLPC     N 7213   4.456   4.479   6.157  0.2080  0.2662 -1.0885
   79SLPC   C13 7214   4.417   4.337   6.123 -0.4054  0.3991  0.5046
   79SLPC  H13A 7215   4.426   4.316   6.018 -0.1390  1.1492  0.3725
   79SLPC  H13B 7216   4.483   4.267   6.174 -0.5005 -0.4048 -0.4557
   79SLPC  H13C 7217   4.316   4.312   6.151 -0.1996 -0.6869  0.3424
   79SLPC   C14 7218   4.373   4.573   6.078  0.2290  0.3109 -0.5395
   79SLPC  H14A 7219   4.269   4.550   6.100 -0.1259  1.5737 -0.8239
   79SLPC  H14B 7220   4.409   4.671   6.103 -1.4622  0.8889 -0.2248
   79SLPC  H14C 7221   4.394   4.542   5.977 -1.0583 -1.3638 -0.3425
   79SLPC   C15 7222   4.601   4.469   6.117  0.4895  0.1966 -0.1633
   79SLPC  H15A 7223   4.652   4.563   6.130  2.0469 -0.5824 -0.4123
   79SLPC  H15B 7224   4.653   4.401   6.183 -1.3483 -3.2757 -1.9631
   79SLPC  H15C 7225   4.614   4.432   6.016  1.3799 -0.8160  0.2993
   79SLPC   C12 7226   4.456   4.513   6.308 -0.3464 -0.2745  0.6436
   79SLPC  H12A 7227   4.516   4.601   6.324 -0.4339 -0.2537  0.8673
   79SLPC  H12B 7228   4.496   4.424   6.355  0.0575 -0.3114  0.2310
   79SLPC   C11 7229   4.320   4.559   6.366  0.3011 -0.0506  0.1962
   79SLPC  H11A 7230   4.308   4.545   6.476  0.1485 -1.2991  0.0444
   79SLPC  H11B 7231   4.234   4.501   6.326 -0.8749  0.1142  2.3701
   79SLPC     P 7232   4.363   4.810   6.396 -0.3414  0.2936  0.3229
   79SLPC   O13 7233   4.357   4.808   6.544  0.4994  0.3253 -0.2533
   79SLPC   O14 7234   4.503   4.790   6.348  0.1344 -0.2529  0.0012
   79SLPC   O12 7235   4.274   4.692   6.332 -0.4177 -0.5382 -0.2229
   79SLPC   O11 7236   4.311   4.945   6.324 -0.2783  0.4147  0.4980
   79SLPC    C1 7237   4.169   4.950   6.285  0.0998 -0.7690 -0.1278
   79SLPC    HA 7238   4.112   4.855   6.287 -0.4651 -0.4605 -1.1331
   79SLPC    HB 7239   4.126   5.015   6.365  0.4581 -0.5331 -0.1216
   79SLPC    C2 7240   4.157   5.019   6.151  0.0305 -0.7644  0.9187
   79SLPC    HS 7241   4.065   5.081   6.147 -0.0708 -0.8913  1.2484
   79SLPC   O21 7242   4.166   4.926   6.041  0.1965  0.1378 -0.3878
   79SLPC   C21 7243   4.075   4.835   6.036 -0.2671  0.7662  1.0489
   79SLPC   O22 7244   3.967   4.830   6.090 -0.0829 -0.7830  0.2701
   79SLPC   C22 7245   4.105   4.742   5.915  0.8631  0.6005 -0.1565
   79SLPC   H2R 7246   4.141   4.639   5.939  1.1237  0.6234 -0.4526
   79SLPC   H2S 7247   4.009   4.718   5.864  0.2140  0.0592  1.2611
   79SLPC    C3 7248   4.261   5.141   6.134 -0.8845 -0.0835 -1.0208
   79SLPC    HX 7249   4.362   5.096   6.125 -0.0440  1.3109  0.7807
   79SLPC    HY 7250   4.270   5.196   6.230  1.6019 -2.0594 -0.0225
   79SLPC   O31 7251   4.226   5.225   6.021 -0.1262 -0.1894 -0.3261
   79SLPC   C31 7252   4.323   5.308   5.989  0.5991  0.4051 -0.2093
   79SLPC   O32 7253   4.434   5.312   6.036 -0.8654 -0.5851 -0.5618
   79SLPC   C32 7254   4.279   5.405   5.883 -0.5592 -0.0990  0.3047
   79SLPC   H2X 7255   4.208   5.476   5.929  0.2591  0.3183  0.9554
   79SLPC   H2Y 7256   4.226   5.337   5.813 -1.8361  1.0005  0.1707
   79SLPC   C23 7257   4.206   4.791   5.808 -0.2229  0.0827 -0.3359
   79SLPC   H3R 7258   4.313   4.766   5.829 -0.3068 -1.7063 -1.8652
   79SLPC   H3S 7259   4.197   4.902   5.812 -1.8407 -0.0142 -0.9639
   79SLPC   C24 7260   4.160   4.748   5.668  0.3252 -0.2382 -0.1138
   79SLPC   H4R 7261   4.127   4.645   5.694  1.4124 -0.5860 -0.0767
   79SLPC   H4S 7262   4.247   4.739   5.599 -0.2619 -0.9406 -0.7834
   79SLPC   C25 7263   4.041   4.818   5.598  0.2583  0.2981 -0.3554
   79SLPC   H5R 7264   4.062   4.925   5.578 -2.2127  1.3801  2.1027
   79SLPC   H5S 7265   3.956   4.819   5.670  0.4892 -1.3778 -0.0218
   79SLPC   C26 7266   3.985   4.752   5.472 -0.2766  0.4266  0.2380
   79SLPC   H6R 7267   3.943   4.652   5.498 -0.1364  0.1478 -0.5564
   79SLPC   H6S 7268   4.068   4.735   5.400 -0.8019 -0.4910 -0.1780
   79SLPC   C27 7269   3.876   4.832   5.405 -0.5926 -0.1567 -0.2695
   79SLPC   H7R 7270   3.915   4.881   5.313 -1.0759  0.8388  0.0377
   79SLPC   H7S 7271   3.852   4.919   5.470 -0.5302 -0.8060  0.6377
   79SLPC   C28 7272   3.742   4.761   5.380 -0.1529 -0.7362 -1.2258
   79SLPC   H8R 7273   3.700   4.756   5.483 -0.0644 -0.8172 -1.1930
   79SLPC   H8S 7274   3.765   4.656   5.351  0.1846 -0.9219 -0.3098
   79SLPC   C29 7275   3.650   4.836   5.290 -0.3716  0.6399  0.2422
   79SLPC   H9R 7276   3.620   4.936   5.326  3.1088  1.3319  1.6464
   79SLPC  C210 7277   3.642   4.807   5.153 -0.8893  0.1665 -0.5165
   79SLPC  H10R 7278   3.576   4.870   5.093 -0.5738  2.3772  1.3215
   79SLPC  C211 7279   3.706   4.684   5.086 -0.2603  0.2419 -0.2903
   79SLPC  H11R 7280   3.705   4.601   5.160  1.0543 -0.2500 -0.8124
   79SLPC  H11S 7281   3.812   4.710   5.066  0.2219  0.8094  2.5104
   79SLPC  C212 7282   3.631   4.635   4.967  0.2666  0.9186  0.8814
   79SLPC  H12R 7283   3.525   4.661   4.978 -0.2860 -1.2578  1.2799
   79SLPC  C213 7284   3.680   4.575   4.859 -0.1335 -0.7249  0.0559
   79SLPC  H13R 7285   3.612   4.554   4.775 -0.6844 -1.1403  0.5945
   79SLPC  C214 7286   3.822   4.543   4.824 -0.5163  0.2809  0.4044
   79SLPC  H14R 7287   3.843   4.448   4.877 -2.9196  0.9868  2.8694
   79SLPC  H14S 7288   3.885   4.628   4.857  0.0028 -0.2986  0.9396
   79SLPC  C215 7289   3.842   4.514   4.676  0.1684  0.3881 -0.2351
   79SLPC  H15R 7290   3.768   4.436   4.649  0.8715 -0.0206 -1.0233
   79SLPC  H15S 7291   3.943   4.474   4.654  0.4864 -0.3524  2.2951
   79SLPC  C216 7292   3.810   4.634   4.594  0.2090 -0.4217  0.0026
   79SLPC  H16R 7293   3.866   4.724   4.630 -0.1654 -0.9519  2.0758
   79SLPC  H16S 7294   3.702   4.652   4.612  0.2186 -0.5672  0.2232
   79SLPC  C217 7295   3.835   4.607   4.446  0.2018  0.2546 -0.6261
   79SLPC  H17R 7296   3.941   4.578   4.428 -0.1036  0.3768 -2.7827
   79SLPC  H17S 7297   3.824   4.696   4.381 -0.8005  0.1123 -0.6641
   79SLPC  C218 7298   3.738   4.495   4.388  0.4216  0.4111  0.1775
   79SLPC  H18R 7299   3.638   4.543   4.375  1.0335  2.0939  1.2537
   79SLPC  H18S 7300   3.727   4.408   4.456  1.8469  0.5480  0.6136
   79SLPC  H18T 7301   3.769   4.459   4.288 -1.5266 -1.4398  0.1764
   79SLPC   C33 7302   4.392   5.490   5.806 -0.1827  0.7054 -0.0437
   79SLPC   H3X 7303   4.469   5.416   5.777 -1.4227 -0.1096 -1.3987
   79SLPC   H3Y 7304   4.439   5.560   5.879 -1.3954  2.4172 -0.8394
   79SLPC   C34 7305   4.339   5.577   5.685  0.1580 -0.0909 -0.3843
   79SLPC   H4X 7306   4.282   5.663   5.725  0.2659  0.1566 -0.7617
   79SLPC   H4Y 7307   4.257   5.519   5.639 -0.1096  0.5271 -0.6894
   79SLPC   C35 7308   4.459   5.619   5.600  0.9717 -0.1307 -0.2973
   79SLPC   H5X 7309   4.514   5.528   5.567  0.8112 -0.3200 -0.0441
   79SLPC   H5Y 7310   4.533   5.690   5.641  1.0234 -0.0118 -0.5922
   79SLPC   C36 7311   4.405   5.700   5.476  0.0483  0.6263  0.4134
   79SLPC   H6X 7312   4.359   5.795   5.511 -0.8316 -0.5228  2.5641
   79SLPC   H6Y 7313   4.326   5.638   5.429  0.4641  1.0229 -0.8399
   79SLPC   C37 7314   4.515   5.719   5.378 -0.0158 -0.6367 -0.5404
   79SLPC   H7X 7315   4.539   5.622   5.331  0.9067 -0.0072 -1.4003
   79SLPC   H7Y 7316   4.606   5.761   5.426  0.3090 -1.2647 -0.5984
   79SLPC   C38 7317   4.476   5.794   5.249  0.4218  0.0464 -0.2441
   79SLPC   H8X 7318   4.450   5.898   5.281  0.4012  0.2264 -0.8307
   79SLPC   H8Y 7319   4.382   5.760   5.200 -0.5472  0.3291  1.3384
   79SLPC   C39 7320   4.579   5.805   5.141 -0.5779  0.4988 -0.0030
   79SLPC   H9X 7321   4.621   5.703   5.122  1.4994  1.0698  1.1161
   79SLPC   H9Y 7322   4.673   5.859   5.166  0.4035  0.2237 -2.7155
   79SLPC  C310 7323   4.524   5.868   5.017  0.2818 -0.1921  0.2810
   79SLPC  H10X 7324   4.506   5.978   5.020  1.5032  0.0632 -1.0583
   79SLPC  H10Y 7325   4.422   5.823   5.013  1.0229 -1.8783 -1.0220
   79SLPC  C311 7326   4.594   5.829   4.885  0.2972  0.6857 -0.5566
   79SLPC  H11X 7327   4.598   5.718   4.886  1.7631  0.7021  1.3403
   79SLPC  H11Y 7328   4.700   5.854   4.905  0.7621 -3.1335  3.3510
   79SLPC  C312 7329   4.533   5.886   4.757 -0.1943  0.2112  0.1285
   79SLPC  H12X 7330   4.555   5.993   4.740 -1.0942  0.5108  0.7625
   79SLPC  H12Y 7331   4.423   5.884   4.773  0.0865 -0.8171  2.4028
   79SLPC  C313 7332   4.563   5.809   4.628 -0.0032 -0.5320  0.8512
   79SLPC  H13X 7333   4.561   5.698   4.640  0.9163 -0.6643 -0.0972
   79SLPC  H13Y 7334   4.664   5.829   4.586  1.4944 -1.6003  3.6314
   79SLPC  C314 7335   4.463   5.867   4.516 -0.6628  0.1239  0.4084
   79SLPC  H14X 7336   4.460   5.977   4.525 -0.7573  0.3925 -2.1390
   79SLPC  H14Y 7337   4.359   5.836   4.540 -0.6306  0.4434  0.9615
   79SLPC  C315 7338   4.491   5.822   4.366 -0.3379  0.4044  0.2916
   79SLPC  H15X 7339   4.601   5.824   4.353 -0.5493  0.6512 -1.6777
   79SLPC  H15Y 7340   4.444   5.882   4.285  2.9703  0.4274 -1.7793
   79SLPC  C316 7341   4.458   5.673   4.333  0.0287 -0.0923 -0.1185
   79SLPC  H16X 7342   4.348   5.666   4.319 -0.2691  3.9033 -0.9980
   79SLPC  H16Y 7343   4.475   5.623   4.430 -1.5776 -0.0179  0.2278
   79SLPC  C317 7344   4.549   5.627   4.221 -0.4942 -0.1984  0.8166
   79SLPC  H17X 7345   4.555   5.705   4.142 -0.5725  0.0556  1.0597
   79SLPC  H17Y 7346   4.492   5.543   4.176  2.2392 -1.4097 -0.6072
   79SLPC  C318 7347   4.685   5.580   4.258 -0.2455  0.6010 -0.3631
   79SLPC  H18X 7348   4.682   5.490   4.322 -1.0709  0.4110 -0.6502
   79SLPC  H18Y 7349   4.740   5.660   4.310  0.7105  0.6279 -1.3757
   79SLPC  H18Z 7350   4.735   5.542   4.166 -0.8018 -0.9795 -0.0409
   80SLPC     N 7351   5.034   2.992   6.701  0.2790  0.1758  0.6346
   80SLPC   C13 7352   5.034   2.889   6.604 -0.3351  0.4225  0.2716
   80SLPC  H13A 7353   5.075   2.796   6.640  1.2071  1.1004  0.3308
   80SLPC  H13B 7354   4.932   2.869   6.575 -0.8980  0.9013  1.8442
   80SLPC  H13C 7355   5.084   2.922   6.514  1.4281 -0.3862  0.9106
   80SLPC   C14 7356   5.176   3.022   6.737 -0.3795  0.1545  0.1236
   80SLPC  H14A 7357   5.178   3.116   6.791  0.4984 -1.3745  2.9993
   80SLPC  H14B 7358   5.227   2.940   6.786  1.1081  0.7854 -0.3032
   80SLPC  H14C 7359   5.235   3.051   6.651  1.1801 -0.6476  0.8661
   80SLPC   C15 7360   4.963   2.954   6.831  1.0555  0.4666  0.2357
   80SLPC  H15A 7361   4.991   3.028   6.905  3.0252 -0.1635  0.1945
   80SLPC  H15B 7362   4.856   2.948   6.820  0.9204  0.5186  1.3903
   80SLPC  H15C 7363   4.981   2.857   6.874 -1.6016 -0.4552 -0.5480
   80SLPC   C12 7364   4.961   3.122   6.662  0.1886  0.3111  0.0451
   80SLPC  H12A 7365   4.968   3.191   6.745  1.5343 -1.6625  1.6663
   80SLPC  H12B 7366   4.859   3.094   6.640  1.0418 -2.3706 -0.7992
   80SLPC   C11 7367   5.013   3.193   6.536 -0.3649 -0.9613 -0.2568
   80SLPC  H11A 7368   4.952   3.282   6.510 -0.6852 -1.2715 -0.5730
   80SLPC  H11B 7369   4.977   3.117   6.463 -0.9691 -0.1797 -0.7947
   80SLPC     P 7370   5.236   3.187   6.409  0.4100 -0.0892 -0.5754
   80SLPC   O13 7371   5.337   3.296   6.391  0.1133  0.4631 -0.1169
   80SLPC   O14 7372   5.288   3.052   6.429 -0.4948 -0.2708 -0.1177
   80SLPC   O12 7373   5.151   3.224   6.540 -0.3901 -0.2455 -0.6539
   80SLPC   O11 7374   5.140   3.183   6.294 -0.1424 -0.8196 -0.4689
   80SLPC    C1 7375   5.077   3.288   6.228  0.5184 -0.5345 -0.0074
   80SLPC    HA 7376   4.971   3.260   6.208  0.0002  0.1399  1.6013
   80SLPC    HB 7377   5.084   3.376   6.295  3.0258 -2.1761  2.0654
   80SLPC    C2 7378   5.144   3.327   6.100  0.0192  0.2630 -0.0177
   80SLPC    HS 7379   5.086   3.407   6.049  0.9743  1.1946  0.3153
   80SLPC   O21 7380   5.144   3.219   6.008  0.1521 -0.0452 -0.1845
   80SLPC   C21 7381   5.056   3.216   5.904  0.0319  0.0414  0.2000
   80SLPC   O22 7382   4.989   3.318   5.874  0.3758  0.6941 -0.2219
   80SLPC   C22 7383   5.063   3.089   5.834  0.3033 -0.6245 -0.0876
   80SLPC   H2R 7384   5.162   3.041   5.850  1.8689  2.0977 -0.9041
   80SLPC   H2S 7385   4.987   3.028   5.887 -0.8901  0.5279 -0.4178
   80SLPC    C3 7386   5.284   3.389   6.114  1.0523 -0.4216  0.3476
   80SLPC    HX 7387   5.359   3.312   6.139 -1.0892 -2.1125  1.9533
   80SLPC    HY 7388   5.278   3.454   6.204 -0.5670 -0.5836  0.3947
   80SLPC   O31 7389   5.323   3.471   6.003 -0.2733  0.0251  0.0541
   80SLPC   C31 7390   5.387   3.408   5.905  0.1028 -0.0856 -0.4482
   80SLPC   O32 7391   5.441   3.298   5.913  0.4642  0.2616 -0.1787
   80SLPC   C32 7392   5.366   3.479   5.772  0.0681 -0.2018 -0.5472
   80SLPC   H2X 7393   5.375   3.588   5.789  0.3048 -0.6684  3.2781
   80SLPC   H2Y 7394   5.265   3.465   5.729 -0.9223  4.9694 -0.5366
   80SLPC   C23 7395   5.024   3.107   5.689 -0.1361  0.5281 -0.2043
   80SLPC   H3R 7396   4.927   3.161   5.692 -0.4473  0.1339 -1.9031
   80SLPC   H3S 7397   4.999   3.004   5.655  1.6267 -1.1092  2.9987
   80SLPC   C24 7398   5.125   3.183   5.604  0.1527  0.7380 -0.5843
   80SLPC   H4R 7399   5.215   3.118   5.599 -0.7506 -0.5044 -1.1966
   80SLPC   H4S 7400   5.156   3.279   5.650  0.6852  0.3604 -0.1290
   80SLPC   C25 7401   5.065   3.209   5.465 -0.2874 -0.4882 -0.2611
   80SLPC   H5R 7402   4.973   3.270   5.485 -0.0263 -0.2715  0.3239
   80SLPC   H5S 7403   5.026   3.118   5.416 -0.9347 -1.4339  1.9139
   80SLPC   C26 7404   5.153   3.293   5.374  0.0745  0.2984 -0.5231
   80SLPC   H6R 7405   5.246   3.235   5.355 -1.3140 -1.4828 -2.2899
   80SLPC   H6S 7406   5.175   3.390   5.424  1.0118  0.7788 -1.8077
   80SLPC   C27 7407   5.084   3.312   5.231 -0.3014 -0.8862 -0.0036
   80SLPC   H7R 7408   4.985   3.360   5.217  0.3745  0.1942 -1.3179
   80SLPC   H7S 7409   5.069   3.212   5.185  2.4963 -0.9062 -1.0457
   80SLPC   C28 7410   5.183   3.385   5.131 -0.4428 -0.2668  0.4804
   80SLPC   H8R 7411   5.286   3.344   5.135 -0.4603 -0.4534 -0.6752
   80SLPC   H8S 7412   5.192   3.493   5.156 -2.7669 -0.0104  0.4058
   80SLPC   C29 7413   5.141   3.367   4.988  0.6404 -0.1635 -0.1260
   80SLPC   H9R 7414   5.043   3.414   4.969  1.1177  0.5954 -0.7579
   80SLPC  C210 7415   5.197   3.288   4.889  0.4793 -0.1227  0.5139
   80SLPC  H10R 7416   5.157   3.284   4.787  2.6491  1.0226 -0.4747
   80SLPC  C211 7417   5.327   3.207   4.904  0.1274  0.5128  1.1938
   80SLPC  H11R 7418   5.318   3.121   4.833 -0.3988  1.4503  0.0998
   80SLPC  H11S 7419   5.326   3.157   5.003  0.4141  0.3734  1.1308
   80SLPC  C212 7420   5.455   3.293   4.879  0.6965  0.4584 -0.0579
   80SLPC  H12R 7421   5.472   3.367   4.959 -1.1050  2.1092 -1.1080
   80SLPC  C213 7422   5.517   3.302   4.759 -0.1425 -0.8274 -0.6087
   80SLPC  H13R 7423   5.591   3.383   4.751 -0.1427 -0.3652  2.6838
   80SLPC  C214 7424   5.484   3.220   4.632 -1.1026  0.2980 -0.0910
   80SLPC  H14R 7425   5.439   3.289   4.557  0.6649  0.8471 -0.6971
   80SLPC  H14S 7426   5.417   3.135   4.658  0.9698 -1.5477 -0.4931
   80SLPC  C215 7427   5.608   3.159   4.566  0.7906  0.2468  0.3454
   80SLPC  H15R 7428   5.574   3.086   4.490  2.6385 -0.7334  0.4121
   80SLPC  H15S 7429   5.672   3.107   4.641  0.6674 -0.7665 -0.2359
   80SLPC  C216 7430   5.704   3.264   4.511 -0.6766  0.7016  0.6813
   80SLPC  H16R 7431   5.763   3.310   4.594 -0.4308  0.8871  0.4080
   80SLPC  H16S 7432   5.645   3.341   4.456  1.2193 -0.5356 -3.4907
   80SLPC  C217 7433   5.804   3.206   4.409  0.5213 -0.7102 -0.8203
   80SLPC  H17R 7434   5.739   3.164   4.330 -0.0445 -0.5420 -0.4518
   80SLPC  H17S 7435   5.862   3.125   4.458  0.9563 -0.6923 -1.3052
   80SLPC  C218 7436   5.897   3.317   4.371 -0.8304 -0.2272 -0.4397
   80SLPC  H18R 7437   5.906   3.396   4.448 -2.5402  1.2244 -1.6406
   80SLPC  H18S 7438   5.850   3.368   4.284 -0.5027  3.7690  1.5088
   80SLPC  H18T 7439   5.990   3.263   4.344 -1.6578 -2.4030  0.8434
   80SLPC   C33 7440   5.472   3.438   5.665 -0.0135  0.2666  0.2106
   80SLPC   H3X 7441   5.472   3.336   5.622 -0.5354  0.7748 -1.0479
   80SLPC   H3Y 7442   5.572   3.437   5.715  0.7208 -0.1784 -1.2147
   80SLPC   C34 7443   5.451   3.517   5.530  0.8102  0.2035 -0.5004
   80SLPC   H4X 7444   5.345   3.497   5.505  0.6297  0.8689 -0.2832
   80SLPC   H4Y 7445   5.514   3.467   5.453  1.6377 -0.5681  0.6338
   80SLPC   C35 7446   5.472   3.670   5.526 -0.1599  0.1284  0.2941
   80SLPC   H5X 7447   5.565   3.696   5.581 -1.3312  2.2913  1.3655
   80SLPC   H5Y 7448   5.389   3.712   5.587 -3.1092 -3.1526 -1.0666
   80SLPC   C36 7449   5.465   3.720   5.378  0.0448 -0.2013 -0.5403
   80SLPC   H6X 7450   5.445   3.829   5.369 -1.4467 -0.4297 -0.1945
   80SLPC   H6Y 7451   5.382   3.672   5.322  0.2709 -0.1426 -0.9266
   80SLPC   C37 7452   5.586   3.695   5.291 -0.1393 -0.6839  0.0881
   80SLPC   H7X 7453   5.605   3.586   5.305 -0.7425 -0.9040 -0.7338
   80SLPC   H7Y 7454   5.665   3.759   5.336 -0.7997  0.1116  0.1437
   80SLPC   C38 7455   5.551   3.722   5.147  0.2011 -0.7267 -0.2834
   80SLPC   H8X 7456   5.504   3.821   5.128 -0.7357 -1.3263 -1.1805
   80SLPC   H8Y 7457   5.483   3.641   5.113  0.1165  0.1311 -2.3285
   80SLPC   C39 7458   5.672   3.702   5.054  0.1516 -0.2894  0.9872
   80SLPC   H9X 7459   5.714   3.603   5.078 -0.8023 -0.8499  0.4259
   80SLPC   H9Y 7460   5.747   3.782   5.073 -0.2452 -0.0795  1.7012
   80SLPC  C310 7461   5.624   3.699   4.908  0.1222 -0.0818  0.2320
   80SLPC  H10X 7462   5.547   3.778   4.890  0.6292  0.2272 -0.6425
   80SLPC  H10Y 7463   5.569   3.603   4.901 -1.3308  0.6657  0.8915
   80SLPC  C311 7464   5.725   3.704   4.795 -0.1571  1.3675  0.5410
   80SLPC  H11X 7465   5.801   3.623   4.792 -2.3351 -0.7949  0.5557
   80SLPC  H11Y 7466   5.785   3.798   4.799 -0.4471  1.6074 -0.4912
   80SLPC  C312 7467   5.661   3.671   4.655  0.4022 -0.0867  0.1195
   80SLPC  H12X 7468   5.598   3.760   4.631 -1.2748 -1.3008 -0.1918
   80SLPC  H12Y 7469   5.596   3.583   4.676  1.0666 -1.2689 -2.3542
   80SLPC  C313 7470   5.746   3.640   4.532 -0.7532 -0.2054 -0.3313
   80SLPC  H13X 7471   5.685   3.643   4.439 -0.7702  0.3848 -0.3036
   80SLPC  H13Y 7472   5.775   3.534   4.550 -3.5750 -1.2798 -1.4619
   80SLPC  C314 7473   5.862   3.741   4.513  0.7296 -0.0618  0.1195
   80SLPC  H14X 7474   5.917   3.712   4.420  0.5896 -3.3376  0.9183
   80SLPC  H14Y 7475   5.941   3.711   4.584 -0.3496 -1.9973  0.5801
   80SLPC  C315 7476   5.814   3.889   4.505  0.0092  0.2445 -0.7404
   80SLPC  H15X 7477   5.818   3.914   4.613  0.9976  3.1520 -1.3783
   80SLPC  H15Y 7478   5.707   3.888   4.473 -0.2326  1.3058 -0.0073
   80SLPC  C316 7479   5.884   3.999   4.420  0.1535 -0.0522 -0.5088
   80SLPC  H16X 7480   5.897   3.958   4.317 -0.3592 -2.1033  0.2007
   80SLPC  H16Y 7481   5.982   4.033   4.459 -0.5344  1.2340  0.1486
   80SLPC  C317 7482   5.792   4.120   4.396  0.2725  0.0729 -0.0247
   80SLPC  H17X 7483   5.844   4.214   4.422  1.5476 -0.6299  0.0611
   80SLPC  H17Y 7484   5.712   4.111   4.472  0.8862  0.0182  0.6333
   80SLPC  C318 7485   5.717   4.117   4.260  0.5822 -0.1616 -0.6380
   80SLPC  H18X 7486   5.659   4.208   4.237  0.9673 -0.2473 -2.0412
   80SLPC  H18Y 7487   5.644   4.034   4.254 -1.2291  1.2986  0.4182
   80SLPC  H18Z 7488   5.784   4.101   4.173  0.0230  1.1452 -1.3263
   81SLPC     N 7489   5.446   0.144   1.865  0.2557  0.6147 -0.4943
   81SLPC   C13 7490   5.376   0.266   1.906 -0.1443 -0.3297 -0.1538
   81SLPC  H13A 7491   5.272   0.238   1.909  0.3552 -2.3016  0.3175
   81SLPC  H13B 7492   5.411   0.312   1.998 -0.4437  1.7238 -1.0110
   81SLPC  H13C 7493   5.387   0.348   1.837  1.9753 -0.7062 -0.3178
   81SLPC   C14 7494   5.561   0.168   1.771  0.8870 -0.3605 -1.1508
   81SLPC  H14A 7495   5.634   0.232   1.819 -0.4747 -0.0905  0.6187
   81SLPC  H14B 7496   5.613   0.080   1.735  0.4864 -0.2509 -2.0199
   81SLPC  H14C 7497   5.530   0.230   1.688 -2.3638 -1.7764 -1.1269
   81SLPC   C15 7498   5.334   0.068   1.785 -0.0729 -0.1650 -0.3340
   81SLPC  H15A 7499   5.374  -0.018   1.735 -1.5073 -0.7354 -0.5400
   81SLPC  H15B 7500   5.263   0.035   1.859 -1.2675 -0.0181 -1.3924
   81SLPC  H15C 7501   5.294   0.132   1.708  2.6404  1.6574 -0.3690
   81SLPC   C12 7502   5.503   0.055   1.969 -0.1134  0.3238  0.0938
   81SLPC  H12A 7503   5.591   0.106   2.005 -0.2718  0.3968  0.3761
   81SLPC  H12B 7504   5.546  -0.036   1.929 -0.1566 -0.0143  0.8133
   81SLPC   C11 7505   5.419   0.013   2.094 -0.2141 -0.4453  0.7262
   81SLPC  H11A 7506   5.394   0.104   2.153 -1.3435 -1.0601  1.2346
   81SLPC  H11B 7507   5.493  -0.048   2.150  1.5583  0.3142 -0.6699
   81SLPC     P 7508   5.315  -0.208   2.012 -0.2669 -0.1219  0.2403
   81SLPC   O13 7509   5.181  -0.250   1.958 -0.0815  0.0153  0.2663
   81SLPC   O14 7510   5.434  -0.227   1.930 -0.9606  0.4354  0.0232
   81SLPC   O12 7511   5.296  -0.059   2.062  0.3736 -0.3895  0.0473
   81SLPC   O11 7512   5.339  -0.291   2.141 -0.4063 -0.1207  0.4086
   81SLPC    C1 7513   5.284  -0.248   2.265  0.5539  0.4905  0.1100
   81SLPC    HA 7514   5.344  -0.297   2.344  1.0987  1.6938  0.4719
   81SLPC    HB 7515   5.298  -0.141   2.292 -0.3814  0.8721 -0.8300
   81SLPC    C2 7516   5.140  -0.310   2.286  0.0968  0.2422  0.6142
   81SLPC    HS 7517   5.069  -0.271   2.211 -0.9218  2.7225  2.7349
   81SLPC   O21 7518   5.093  -0.290   2.419  0.3681  0.0316  0.3963
   81SLPC   C21 7519   5.061  -0.159   2.434 -0.9320 -0.6008 -0.6286
   81SLPC   O22 7520   5.022  -0.087   2.339 -0.0962 -0.2752 -0.5750
   81SLPC   C22 7521   5.061  -0.125   2.586  0.4610  0.2555 -0.5959
   81SLPC   H2R 7522   5.000  -0.036   2.613  0.3312  0.8052 -2.5360
   81SLPC   H2S 7523   5.009  -0.207   2.639  0.6676  0.9152  0.6552
   81SLPC    C3 7524   5.142  -0.467   2.258  0.1514  0.3307  0.3734
   81SLPC    HX 7525   5.191  -0.526   2.339 -1.0370 -0.9799  0.1824
   81SLPC    HY 7526   5.199  -0.473   2.163 -1.3917  2.9822 -0.8420
   81SLPC   O31 7527   5.008  -0.514   2.231  0.1728 -0.5558  0.6692
   81SLPC   C31 7528   4.991  -0.644   2.217 -0.6770 -0.5512 -0.5492
   81SLPC   O32 7529   5.082  -0.727   2.218 -0.0302 -0.6480  0.2699
   81SLPC   C32 7530   4.839  -0.666   2.219  0.5235  0.0088 -0.4825
   81SLPC   H2X 7531   4.817  -0.695   2.114 -0.0768 -1.9612  0.1508
   81SLPC   H2Y 7532   4.786  -0.571   2.240 -1.6204 -0.6998 -2.2147
   81SLPC   C23 7533   5.206  -0.112   2.657  0.7518 -0.7046  0.2280
   81SLPC   H3R 7534   5.266  -0.024   2.626 -0.7663 -0.0782 -1.0160
   81SLPC   H3S 7535   5.258  -0.207   2.635 -0.2701 -1.7482  2.0565
   81SLPC   C24 7536   5.184  -0.099   2.812  0.7521  0.7297 -0.3465
   81SLPC   H4R 7537   5.101  -0.166   2.844 -1.1562  3.5869  1.1174
   81SLPC   H4S 7538   5.133  -0.001   2.827 -0.8856  0.0242 -1.0936
   81SLPC   C25 7539   5.299  -0.108   2.901 -0.6228 -0.1396 -1.1380
   81SLPC   H5R 7540   5.368  -0.022   2.882 -1.6603  1.3913  1.4364
   81SLPC   H5S 7541   5.351  -0.204   2.882  0.2985 -0.5256  2.5262
   81SLPC   C26 7542   5.275  -0.103   3.055 -0.0159 -0.5082 -0.6571
   81SLPC   H6R 7543   5.381  -0.114   3.087  0.2807 -1.2505 -1.8195
   81SLPC   H6S 7544   5.214  -0.194   3.078 -0.9758 -0.2497 -2.0541
   81SLPC   C27 7545   5.217   0.020   3.106  0.3005 -0.5123 -0.6473
   81SLPC   H7R 7546   5.110   0.025   3.077 -0.3213 -0.1307  1.5083
   81SLPC   H7S 7547   5.260   0.109   3.055 -0.8598 -0.2959 -1.2758
   81SLPC   C28 7548   5.215   0.025   3.259  0.3689 -0.4491 -0.0251
   81SLPC   H8R 7549   5.158  -0.060   3.304 -0.7237  0.2053 -0.1380
   81SLPC   H8S 7550   5.166   0.120   3.289  0.2654 -0.1766 -1.0421
   81SLPC   C29 7551   5.350   0.019   3.328 -0.8440  0.6462  0.3879
   81SLPC   H9R 7552   5.404  -0.076   3.336  2.3118  2.0524 -1.9478
   81SLPC  C210 7553   5.415   0.118   3.393  0.0502  0.1315 -0.4839
   81SLPC  H10R 7554   5.500   0.091   3.456 -1.5586  1.2744  2.3657
   81SLPC  C211 7555   5.372   0.261   3.404 -0.7569 -0.1558  0.1306
   81SLPC  H11R 7556   5.325   0.298   3.310  1.0059 -0.2914 -0.8364
   81SLPC  H11S 7557   5.462   0.325   3.413 -2.4791  2.7701 -1.6033
   81SLPC  C212 7558   5.286   0.278   3.526  0.0574 -0.2591  0.3268
   81SLPC  H12R 7559   5.180   0.251   3.513 -0.3288  1.6228 -0.7396
   81SLPC  C213 7560   5.320   0.320   3.646 -0.3300 -0.2709 -0.3688
   81SLPC  H13R 7561   5.240   0.311   3.720 -1.8562 -0.8347 -2.0358
   81SLPC  C214 7562   5.461   0.366   3.692  0.4115 -0.2132  0.1619
   81SLPC  H14R 7563   5.489   0.464   3.649  2.3570 -1.1271 -0.7933
   81SLPC  H14S 7564   5.543   0.297   3.661  1.2639  1.3408 -1.2052
   81SLPC  C215 7565   5.469   0.370   3.848 -0.4167  0.4178  0.1959
   81SLPC  H15R 7566   5.393   0.445   3.878  1.5281  2.9667 -0.9181
   81SLPC  H15S 7567   5.571   0.406   3.873  0.1815 -1.1660  0.1798
   81SLPC  C216 7568   5.448   0.235   3.922 -0.0006 -0.0563 -0.1125
   81SLPC  H16R 7569   5.529   0.168   3.886 -0.7427 -0.2809 -1.4472
   81SLPC  H16S 7570   5.348   0.195   3.895 -0.0260  0.3958 -0.7104
   81SLPC  C217 7571   5.447   0.254   4.074 -0.2086  0.4470 -0.6309
   81SLPC  H17R 7572   5.431   0.150   4.110 -1.2606  0.1097 -1.9767
   81SLPC  H17S 7573   5.363   0.324   4.093  1.1503  1.5587  1.5947
   81SLPC  C218 7574   5.577   0.309   4.130 -0.1339 -0.2231  0.1731
   81SLPC  H18R 7575   5.568   0.419   4.124 -2.2179 -0.3294  0.7333
   81SLPC  H18S 7576   5.669   0.271   4.080 -0.3784 -0.7340  0.1052
   81SLPC  H18T 7577   5.582   0.300   4.240 -1.3951  1.5547  0.4111
   81SLPC   C33 7578   4.800  -0.778   2.316  0.1637  0.5750 -0.0759
   81SLPC   H3X 7579   4.875  -0.860   2.320 -0.7203 -0.2147  1.2105
   81SLPC   H3Y 7580   4.709  -0.830   2.279  0.6697 -1.0956  0.9170
   81SLPC   C34 7581   4.777  -0.737   2.461  0.1898  0.1723  0.2230
   81SLPC   H4X 7582   4.765  -0.830   2.521  4.3368  0.2758  1.5701
   81SLPC   H4Y 7583   4.686  -0.674   2.462 -0.0782 -0.2234  1.2605
   81SLPC   C35 7584   4.883  -0.642   2.527 -0.1466 -0.1983 -0.0525
   81SLPC   H5X 7585   4.875  -0.541   2.483 -0.1724  0.7896  2.0901
   81SLPC   H5Y 7586   4.989  -0.661   2.500  0.5080  0.5984  1.8087
   81SLPC   C36 7587   4.868  -0.624   2.677 -0.6349  0.2769  0.4494
   81SLPC   H6X 7588   4.868  -0.727   2.719 -1.7055  0.3783  0.7412
   81SLPC   H6Y 7589   4.774  -0.569   2.704 -0.2818  0.2062  1.9315
   81SLPC   C37 7590   4.990  -0.550   2.736 -0.1018  0.5467  0.2010
   81SLPC   H7X 7591   4.982  -0.447   2.696 -0.1965  0.6204  0.4047
   81SLPC   H7Y 7592   5.086  -0.599   2.708 -1.0933 -0.7360 -1.1453
   81SLPC   C38 7593   4.984  -0.560   2.889  0.4544  0.3137 -0.6875
   81SLPC   H8X 7594   5.003  -0.668   2.906 -1.3621  0.2447  1.3032
   81SLPC   H8Y 7595   4.880  -0.550   2.926  0.0663 -3.7754 -0.3113
   81SLPC   C39 7596   5.081  -0.460   2.959  0.4753  0.1295  0.8124
   81SLPC   H9X 7597   5.040  -0.360   2.934 -3.3814 -1.3892  0.2597
   81SLPC   H9Y 7598   5.186  -0.474   2.927  0.6155  0.0955  1.2684
   81SLPC  C310 7599   5.072  -0.458   3.110  0.1844 -0.3166 -0.4649
   81SLPC  H10X 7600   4.972  -0.426   3.146  0.6512 -2.2759  3.0300
   81SLPC  H10Y 7601   5.146  -0.383   3.146 -1.9986  1.4131  0.6365
   81SLPC  C311 7602   5.100  -0.598   3.162  0.7228  0.6205  0.6755
   81SLPC  H11X 7603   5.192  -0.637   3.112 -0.7364  0.9243 -2.4726
   81SLPC  H11Y 7604   5.018  -0.671   3.144  1.5203 -0.0966 -0.1833
   81SLPC  C312 7605   5.118  -0.596   3.312  0.0322 -0.2526  0.3602
   81SLPC  H12X 7606   5.033  -0.547   3.364 -0.8209 -1.9478  0.6244
   81SLPC  H12Y 7607   5.202  -0.537   3.355 -0.7124  0.6876  0.5534
   81SLPC  C313 7608   5.138  -0.737   3.367 -0.1438  0.0065  0.1638
   81SLPC  H13X 7609   5.211  -0.798   3.309 -0.4339 -0.2568  0.0755
   81SLPC  H13Y 7610   5.039  -0.786   3.361 -1.3065  1.5934  3.7687
   81SLPC  C314 7611   5.166  -0.734   3.519 -0.3579  0.2401  0.0259
   81SLPC  H14X 7612   5.074  -0.683   3.556 -1.2427  0.5039 -2.3589
   81SLPC  H14Y 7613   5.257  -0.673   3.531  1.1265 -1.6426 -1.1017
   81SLPC  C315 7614   5.189  -0.863   3.603  0.0964  0.4621 -0.4208
   81SLPC  H15X 7615   5.287  -0.907   3.574 -0.1643  0.5164 -1.4060
   81SLPC  H15Y 7616   5.117  -0.946   3.586  0.0070  0.1857  1.1833
   81SLPC  C316 7617   5.196  -0.835   3.755  0.7577  0.0839  0.0325
   81SLPC  H16X 7618   5.096  -0.819   3.800  0.3923 -0.5428 -0.5296
   81SLPC  H16Y 7619   5.254  -0.742   3.774 -0.5687  0.6957  1.3096
   81SLPC  C317 7620   5.246  -0.953   3.849 -0.5168  0.1035  0.4072
   81SLPC  H17X 7621   5.355  -0.955   3.832 -0.1675 -1.3295  2.4224
   81SLPC  H17Y 7622   5.203  -1.049   3.811  0.7920 -1.1086  1.8324
   81SLPC  C318 7623   5.219  -0.944   3.993  0.4345  0.6201 -0.6937
   81SLPC  H18X 7624   5.113  -0.927   4.022  0.6943  1.2459 -0.0759
   81SLPC  H18Y 7625   5.261  -0.847   4.028 -1.6935  1.6422 -0.7622
   81SLPC  H18Z 7626   5.257  -1.027   4.056 -1.2172  1.2134  1.2308
   82SLPC     N 7627   1.784   1.364   2.190  0.1669 -0.0172  0.2332
   82SLPC   C13 7628   1.850   1.287   2.083 -0.1061 -0.1443  0.6573
   82SLPC  H13A 7629   1.844   1.180   2.100  0.4119 -0.5775 -1.5343
   82SLPC  H13B 7630   1.800   1.299   1.989  0.3293 -1.0644  0.2890
   82SLPC  H13C 7631   1.954   1.317   2.084  1.0915 -3.4747 -2.0463
   82SLPC   C14 7632   1.647   1.316   2.217  0.6186 -1.1602  1.1135
   82SLPC  H14A 7633   1.566   1.368   2.167  0.4482 -0.6507  1.9121
   82SLPC  H14B 7634   1.642   1.214   2.181 -0.7958  0.0549 -2.6539
   82SLPC  H14C 7635   1.627   1.319   2.323 -1.0877  0.6543  0.8167
   82SLPC   C15 7636   1.780   1.508   2.145  0.4396 -1.2607  0.3860
   82SLPC  H15A 7637   1.735   1.518   2.048  1.5302  1.3599  0.0519
   82SLPC  H15B 7638   1.723   1.570   2.212 -0.3781 -1.7113  0.1142
   82SLPC  H15C 7639   1.879   1.552   2.147 -1.1893  2.7926  0.0093
   82SLPC   C12 7640   1.859   1.350   2.319 -0.8945 -0.5546 -0.3539
   82SLPC  H12A 7641   1.824   1.424   2.389  2.2820  1.3853 -0.6073
   82SLPC  H12B 7642   1.954   1.398   2.300 -1.5035  0.4209 -1.0405
   82SLPC   C11 7643   1.885   1.219   2.397  0.2891  0.6906 -0.7455
   82SLPC  H11A 7644   1.783   1.187   2.428  0.9162 -2.1248 -1.2432
   82SLPC  H11B 7645   1.939   1.222   2.494  0.7668  0.2383 -0.9934
   82SLPC     P 7646   2.084   1.102   2.287 -0.4312  0.1102  0.0898
   82SLPC   O13 7647   2.121   1.004   2.184 -0.8041  0.3621 -0.8865
   82SLPC   O14 7648   2.137   1.238   2.263 -0.1884 -0.0322  0.2730
   82SLPC   O12 7649   1.931   1.111   2.314 -0.0559  0.6211 -0.7067
   82SLPC   O11 7650   2.144   1.053   2.425 -0.1551 -0.5971  0.0631
   82SLPC    C1 7651   2.111   0.919   2.465 -0.5238 -0.1571 -0.7350
   82SLPC    HA 7652   2.001   0.912   2.478 -0.4331 -0.8864 -0.2821
   82SLPC    HB 7653   2.139   0.848   2.384  2.6372 -1.1417  1.0371
   82SLPC    C2 7654   2.186   0.881   2.597 -0.7712  0.7303 -0.3565
   82SLPC    HS 7655   2.150   0.778   2.620 -0.7056  1.0254  1.1768
   82SLPC   O21 7656   2.168   0.977   2.707 -0.3314  0.8804  0.3143
   82SLPC   C21 7657   2.043   0.977   2.758  0.8232 -0.9554 -0.4865
   82SLPC   O22 7658   1.956   0.900   2.736  0.3784 -0.1752 -0.0509
   82SLPC   C22 7659   2.035   1.087   2.872  0.4868  0.1722 -0.1517
   82SLPC   H2R 7660   2.118   1.068   2.942  0.4621  1.3024  0.2034
   82SLPC   H2S 7661   2.047   1.185   2.822 -0.4517  0.5499  0.3337
   82SLPC    C3 7662   2.345   0.865   2.574  0.8675  0.1750  1.3891
   82SLPC    HX 7663   2.387   0.966   2.555  1.9028 -0.8054 -2.0819
   82SLPC    HY 7664   2.367   0.803   2.485  0.0415 -0.0433  1.3256
   82SLPC   O31 7665   2.391   0.799   2.686 -0.9465  0.0514  0.0704
   82SLPC   C31 7666   2.519   0.813   2.715 -0.0835 -1.0066 -0.2969
   82SLPC   O32 7667   2.596   0.896   2.668 -0.1083  0.1473  0.6400
   82SLPC   C32 7668   2.559   0.711   2.825  0.3240 -0.4442  0.8066
   82SLPC   H2X 7669   2.630   0.648   2.768 -0.2412 -1.3321  1.0601
   82SLPC   H2Y 7670   2.468   0.653   2.853  1.2340 -0.3331  4.4412
   82SLPC   C23 7671   1.900   1.100   2.952 -0.3530  0.4053  0.4335
   82SLPC   H3R 7672   1.891   1.010   3.016  0.5536 -0.7827 -1.0402
   82SLPC   H3S 7673   1.815   1.118   2.883  0.6942  1.2206 -0.6995
   82SLPC   C24 7674   1.910   1.224   3.043 -0.5319  0.2621 -0.2593
   82SLPC   H4R 7675   1.947   1.308   2.981 -0.5545 -0.8460 -1.8276
   82SLPC   H4S 7676   1.987   1.196   3.118 -0.2970 -0.0986 -0.6292
   82SLPC   C25 7677   1.790   1.264   3.126  0.2500 -0.3616  0.9460
   82SLPC   H5R 7678   1.746   1.181   3.185 -0.6572 -0.4417  0.1858
   82SLPC   H5S 7679   1.718   1.276   3.042  1.4879 -2.2926 -0.4654
   82SLPC   C26 7680   1.799   1.391   3.210 -0.5880  0.3199  0.8522
   82SLPC   H6R 7681   1.695   1.424   3.235 -1.4654 -0.8817 -0.9925
   82SLPC   H6S 7682   1.831   1.483   3.157  0.7996 -0.6388 -0.0164
   82SLPC   C27 7683   1.880   1.376   3.342  0.0074  0.5872  0.5275
   82SLPC   H7R 7684   1.855   1.462   3.408  0.2084 -0.3625  1.9044
   82SLPC   H7S 7685   1.985   1.384   3.307 -0.6473 -0.0961 -1.7177
   82SLPC   C28 7686   1.841   1.260   3.426  0.3746  0.1671 -0.1006
   82SLPC   H8R 7687   1.845   1.167   3.365  0.7434  1.1819 -1.6692
   82SLPC   H8S 7688   1.734   1.276   3.448  0.2700 -0.5326 -0.0604
   82SLPC   C29 7689   1.937   1.254   3.546 -0.0808  0.0176  0.2908
   82SLPC   H9R 7690   2.044   1.268   3.524 -0.2108 -0.2384 -0.5378
   82SLPC  C210 7691   1.901   1.236   3.675 -0.5340  0.4496  0.0665
   82SLPC  H10R 7692   1.979   1.254   3.751 -1.8545 -0.6665  1.7554
   82SLPC  C211 7693   1.764   1.224   3.737  0.2641  0.0665 -0.4242
   82SLPC  H11R 7694   1.717   1.143   3.678 -1.0196  0.5289 -0.0565
   82SLPC  H11S 7695   1.717   1.324   3.736  1.3516  0.5928 -0.9756
   82SLPC  C212 7696   1.772   1.183   3.880  0.7013  0.3673 -0.3830
   82SLPC  H12R 7697   1.758   1.074   3.892  0.7039  0.3583 -0.4646
   82SLPC  C213 7698   1.764   1.259   3.991 -0.0650 -0.0193  0.1524
   82SLPC  H13R 7699   1.792   1.219   4.090  1.0649 -1.3416 -0.6526
   82SLPC  C214 7700   1.772   1.411   3.990 -0.6843  0.1008 -0.6952
   82SLPC  H14R 7701   1.694   1.454   3.924  2.0796 -0.7316 -4.8963
   82SLPC  H14S 7702   1.869   1.444   3.947 -0.0411 -0.1052  0.5488
   82SLPC  C215 7703   1.769   1.462   4.131  0.1853  0.1535  0.1333
   82SLPC  H15R 7704   1.782   1.572   4.120 -0.3860 -0.0155 -3.4885
   82SLPC  H15S 7705   1.839   1.414   4.202  1.3633  3.0238  1.0644
   82SLPC  C216 7706   1.634   1.431   4.198  0.5436  0.4391  0.0254
   82SLPC  H16R 7707   1.638   1.331   4.246  0.4689  0.8562  0.9210
   82SLPC  H16S 7708   1.552   1.417   4.124 -2.0680 -1.6926  3.0496
   82SLPC  C217 7709   1.597   1.535   4.308 -0.3216 -0.2788  0.3079
   82SLPC  H17R 7710   1.572   1.626   4.250  0.5092  0.4098  1.0039
   82SLPC  H17S 7711   1.678   1.573   4.374 -0.9998  1.6580  0.0839
   82SLPC  C218 7712   1.471   1.509   4.385  0.0115 -0.0651  0.1164
   82SLPC  H18R 7713   1.495   1.417   4.443  1.6673 -1.2200 -2.2240
   82SLPC  H18S 7714   1.375   1.493   4.332 -0.0864 -0.3188  0.3652
   82SLPC  H18T 7715   1.453   1.590   4.459  2.0643  0.3129  0.2562
   82SLPC   C33 7716   2.637   0.758   2.952 -0.3747 -0.0354  0.3131
   82SLPC   H3X 7717   2.659   0.865   2.932  1.2936 -0.7288 -2.1655
   82SLPC   H3Y 7718   2.731   0.703   2.971 -0.1331  0.7584  1.5395
   82SLPC   C34 7719   2.554   0.752   3.081 -0.2325 -0.0804  0.0750
   82SLPC   H4X 7720   2.455   0.706   3.061  0.2539 -0.4022 -1.7272
   82SLPC   H4Y 7721   2.523   0.852   3.119 -0.8233 -0.1434 -0.2284
   82SLPC   C35 7722   2.621   0.679   3.198 -0.1438 -0.1460  0.3119
   82SLPC   H5X 7723   2.699   0.749   3.233 -0.4876  1.6392 -2.2322
   82SLPC   H5Y 7724   2.666   0.584   3.162 -0.7540 -0.1122 -0.5953
   82SLPC   C36 7725   2.528   0.650   3.318  0.0023  0.4041  0.0529
   82SLPC   H6X 7726   2.458   0.568   3.293  0.5674 -1.3789  3.6885
   82SLPC   H6Y 7727   2.455   0.733   3.335 -0.9764 -0.6733  1.3222
   82SLPC   C37 7728   2.596   0.602   3.448 -0.9918  0.3010 -0.0588
   82SLPC   H7X 7729   2.519   0.603   3.528 -0.2362  0.9395  0.6813
   82SLPC   H7Y 7730   2.671   0.678   3.478  0.4343  0.1369 -2.8219
   82SLPC   C38 7731   2.675   0.475   3.431  0.5199 -0.2887  0.5446
   82SLPC   H8X 7732   2.753   0.489   3.353 -1.7130 -0.3545 -1.8282
   82SLPC   H8Y 7733   2.602   0.396   3.401  0.0099 -0.3740  1.9660
   82SLPC   C39 7734   2.747   0.437   3.566 -0.4124 -0.2882  0.5983
   82SLPC   H9X 7735   2.791   0.529   3.611 -1.0992 -0.3702  1.4865
   82SLPC   H9Y 7736   2.835   0.375   3.540 -0.4065  0.6600 -1.9322
   82SLPC  C310 7737   2.658   0.367   3.669 -0.4994 -0.9626 -0.0469
   82SLPC  H10X 7738   2.613   0.277   3.621  0.6903 -1.8310  0.4037
   82SLPC  H10Y 7739   2.589   0.439   3.718  0.8092  0.6970 -0.5364
   82SLPC  C311 7740   2.734   0.288   3.779 -0.0721 -0.4494 -0.2500
   82SLPC  H11X 7741   2.791   0.367   3.833  0.3266  0.5448 -2.0182
   82SLPC  H11Y 7742   2.803   0.217   3.729 -0.3829 -0.2022 -1.0401
   82SLPC  C312 7743   2.633   0.211   3.864 -0.4139 -0.3782  0.4289
   82SLPC  H12X 7744   2.692   0.176   3.951 -0.3596 -0.2974  0.4251
   82SLPC  H12Y 7745   2.591   0.125   3.808  0.5385 -0.1150 -0.7355
   82SLPC  C313 7746   2.522   0.300   3.917 -0.1072 -0.8606  0.6565
   82SLPC  H13X 7747   2.458   0.353   3.844 -0.3783  1.2917  2.3269
   82SLPC  H13Y 7748   2.564   0.373   3.991  0.4680 -1.8042  1.2802
   82SLPC  C314 7749   2.426   0.213   3.999 -0.4545  0.4301 -0.4305
   82SLPC  H14X 7750   2.487   0.147   4.065 -0.4012  2.3567  1.5365
   82SLPC  H14Y 7751   2.362   0.153   3.931 -2.7559  1.6767  0.5535
   82SLPC  C315 7752   2.341   0.297   4.096  0.4840 -0.5771 -0.0064
   82SLPC  H15X 7753   2.283   0.221   4.153  0.8945 -1.0244 -0.1881
   82SLPC  H15Y 7754   2.274   0.362   4.035  1.3473  1.8413  1.4876
   82SLPC  C316 7755   2.417   0.393   4.192  0.6385  0.5013  0.4706
   82SLPC  H16X 7756   2.337   0.445   4.250 -0.9076  1.5986 -2.4644
   82SLPC  H16Y 7757   2.473   0.472   4.137  0.5386  0.9358  0.9791
   82SLPC  C317 7758   2.509   0.313   4.288  1.0048  0.3217  0.3199
   82SLPC  H17X 7759   2.587   0.259   4.231  0.1006 -0.4293 -0.2413
   82SLPC  H17Y 7760   2.461   0.226   4.338 -0.8900 -0.5433 -2.7183
   82SLPC  C318 7761   2.551   0.403   4.407 -0.5942 -0.3624  0.5161
   82SLPC  H18X 7762   2.485   0.417   4.495 -0.8658  0.4474  0.1872
   82SLPC  H18Y 7763   2.580   0.504   4.372  2.1867  0.1141  3.7116
   82SLPC  H18Z 7764   2.644   0.361   4.451 -2.9965 -1.7740  4.8414
   83SLPC     N 7765   4.614   6.584   1.819 -0.5470  0.0054 -0.2414
   83SLPC   C13 7766   4.638   6.494   1.704  0.0043 -0.5343  0.1942
   83SLPC  H13A 7767   4.741   6.460   1.701  0.7602  1.5947  0.2074
   83SLPC  H13B 7768   4.579   6.404   1.711  0.6425 -1.1252 -1.5691
   83SLPC  H13C 7769   4.609   6.537   1.609  2.8436  1.3629  0.0618
   83SLPC   C14 7770   4.711   6.697   1.813  0.5990 -0.5768 -0.1206
   83SLPC  H14A 7771   4.814   6.668   1.797  0.7134  0.7562 -2.1955
   83SLPC  H14B 7772   4.684   6.770   1.738  1.6003 -1.3214 -1.2294
   83SLPC  H14C 7773   4.703   6.759   1.902  1.8719  0.1913 -0.5146
   83SLPC   C15 7774   4.643   6.510   1.953 -0.1402 -0.2820 -0.6018
   83SLPC  H15A 7775   4.586   6.552   2.034  1.9798 -2.8299  2.4430
   83SLPC  H15B 7776   4.609   6.408   1.962 -0.0913 -0.1279  5.9416
   83SLPC  H15C 7777   4.748   6.499   1.974 -0.2052 -0.0843 -0.1785
   83SLPC   C12 7778   4.468   6.627   1.820 -0.0071  0.4972  0.1992
   83SLPC  H12A 7779   4.442   6.675   1.913  3.3537 -0.4355  1.7660
   83SLPC  H12B 7780   4.408   6.538   1.817 -0.7395  0.9682  0.5025
   83SLPC   C11 7781   4.416   6.730   1.717 -0.2002 -0.4666  0.4171
   83SLPC  H11A 7782   4.306   6.736   1.710 -0.1538 -1.1877 -2.5592
   83SLPC  H11B 7783   4.450   6.704   1.614 -2.4023 -1.2652 -0.1544
   83SLPC     P 7784   4.413   6.955   1.858 -0.0001  0.1478 -0.2078
   83SLPC   O13 7785   4.492   7.081   1.856 -0.1681 -0.0175  0.2817
   83SLPC   O14 7786   4.270   6.965   1.833  0.2557  0.4154 -0.6190
   83SLPC   O12 7787   4.477   6.854   1.751  0.1642 -0.2803 -0.3958
   83SLPC   O11 7788   4.447   6.869   1.990  0.4662 -0.3692 -0.2895
   83SLPC    C1 7789   4.340   6.851   2.083  0.2795 -0.9204 -0.3579
   83SLPC    HA 7790   4.245   6.872   2.030  1.6950  0.6983 -2.4460
   83SLPC    HB 7791   4.343   6.745   2.114 -2.2778 -0.8792  0.2116
   83SLPC    C2 7792   4.336   6.952   2.202  0.3965 -0.1339  0.1478
   83SLPC    HS 7793   4.352   7.054   2.160  1.6170 -0.5982 -0.5761
   83SLPC   O21 7794   4.439   6.928   2.299  0.0935  0.2088 -0.0920
   83SLPC   C21 7795   4.476   7.034   2.371 -0.2978  0.2062  0.5193
   83SLPC   O22 7796   4.429   7.145   2.373 -0.1161  0.5033  0.3688
   83SLPC   C22 7797   4.599   6.997   2.459 -0.4075  0.2577  0.0697
   83SLPC   H2R 7798   4.629   6.895   2.427 -3.9282 -0.2647 -2.0510
   83SLPC   H2S 7799   4.682   7.061   2.423 -0.0662  0.9200  1.9075
   83SLPC    C3 7800   4.197   6.964   2.269  0.1035  0.2318 -0.0038
   83SLPC    HX 7801   4.109   6.970   2.201 -0.9322 -0.9929  1.1792
   83SLPC    HY 7802   4.197   7.057   2.329 -1.0680  0.4149 -0.2580
   83SLPC   O31 7803   4.176   6.854   2.358  0.7289  0.4489 -0.5697
   83SLPC   C31 7804   4.101   6.753   2.317 -0.3295  0.1890  0.3446
   83SLPC   O32 7805   4.057   6.737   2.202  0.7108 -0.7611  0.0519
   83SLPC   C32 7806   4.075   6.667   2.441 -0.1390 -0.3055  0.6418
   83SLPC   H2X 7807   4.137   6.575   2.428  0.0664  0.2017 -3.0821
   83SLPC   H2Y 7808   3.972   6.626   2.433  0.2545 -0.9524 -3.4316
   83SLPC   C23 7809   4.584   7.010   2.613  0.8916 -0.2255  1.0487
   83SLPC   H3R 7810   4.493   6.961   2.654  0.5600 -2.2831 -1.8305
   83SLPC   H3S 7811   4.574   7.117   2.639  2.5306  0.4553 -0.8328
   83SLPC   C24 7812   4.707   6.962   2.680 -0.3203 -0.1723  0.0094
   83SLPC   H4R 7813   4.790   7.036   2.667 -0.2218 -0.3402 -0.3439
   83SLPC   H4S 7814   4.752   6.871   2.633  3.4564  1.0129  0.9676
   83SLPC   C25 7815   4.705   6.947   2.835  0.5286  0.4008 -0.6554
   83SLPC   H5R 7816   4.621   6.876   2.853  2.2447 -1.5337  0.0359
   83SLPC   H5S 7817   4.663   7.042   2.876 -0.9243  0.1633 -1.5034
   83SLPC   C26 7818   4.832   6.888   2.887  0.3439 -0.2821 -0.5243
   83SLPC   H6R 7819   4.902   6.972   2.908  1.3179 -1.4460  1.2190
   83SLPC   H6S 7820   4.876   6.834   2.801  1.5249 -1.3322  0.6893
   83SLPC   C27 7821   4.823   6.803   3.011 -0.3450 -0.1072  0.2449
   83SLPC   H7R 7822   4.917   6.815   3.069  0.2174  1.5442 -0.9440
   83SLPC   H7S 7823   4.805   6.697   2.985 -0.9056  0.0110  0.1373
   83SLPC   C28 7824   4.710   6.850   3.105 -0.6496 -0.3887  0.3482
   83SLPC   H8R 7825   4.609   6.859   3.059 -0.5225  2.3355  0.4240
   83SLPC   H8S 7826   4.728   6.957   3.130 -1.3705 -0.3772  0.8653
   83SLPC   C29 7827   4.683   6.756   3.218  0.7232  0.1971 -0.3041
   83SLPC   H9R 7828   4.626   6.664   3.196 -0.1265  0.7726 -0.5116
   83SLPC  C210 7829   4.699   6.790   3.347  0.2675 -0.2538  0.3181
   83SLPC  H10R 7830   4.688   6.711   3.423 -4.0302 -0.3522 -0.1807
   83SLPC  C211 7831   4.765   6.924   3.386  0.7415  0.0367 -0.1964
   83SLPC  H11R 7832   4.683   6.999   3.394  0.4439 -0.0850 -1.7301
   83SLPC  H11S 7833   4.834   6.972   3.313  0.8170  1.4481  0.7686
   83SLPC  C212 7834   4.844   6.921   3.516 -0.0602 -0.5225  0.3234
   83SLPC  H12R 7835   4.942   6.874   3.503 -0.6924 -1.9303  0.4902
   83SLPC  C213 7836   4.791   6.950   3.643 -0.4915  0.2621  0.0458
   83SLPC  H13R 7837   4.851   6.947   3.735 -1.2171 -2.2177  0.5399
   83SLPC  C214 7838   4.645   6.973   3.679 -0.1976  0.6820  0.0332
   83SLPC  H14R 7839   4.608   6.897   3.752 -2.9522  3.0540  1.2832
   83SLPC  H14S 7840   4.576   6.973   3.593 -1.1045 -0.4514  0.7337
   83SLPC  C215 7841   4.618   7.114   3.725  0.0490 -0.4259  0.7483
   83SLPC  H15R 7842   4.508   7.125   3.720 -0.0653 -1.3337  1.0848
   83SLPC  H15S 7843   4.672   7.196   3.672 -0.9006 -0.2401  0.0316
   83SLPC  C216 7844   4.643   7.127   3.879  0.3090  0.7053  0.3788
   83SLPC  H16R 7845   4.753   7.133   3.898  0.2901  0.7961  0.4560
   83SLPC  H16S 7846   4.609   7.034   3.928  1.8726  0.4406  1.0262
   83SLPC  C217 7847   4.588   7.252   3.942 -0.4927 -0.0161  0.7035
   83SLPC  H17R 7848   4.632   7.327   3.872 -2.5484 -0.2923 -0.9799
   83SLPC  H17S 7849   4.621   7.271   4.046  1.8961 -0.9458  0.1841
   83SLPC  C218 7850   4.435   7.277   3.934 -0.3770  0.7726 -0.0276
   83SLPC  H18R 7851   4.384   7.209   4.005 -2.4190  0.1175 -1.9773
   83SLPC  H18S 7852   4.386   7.258   3.836  0.4884 -0.6287 -0.2198
   83SLPC  H18T 7853   4.397   7.376   3.968 -1.7473  0.3075 -0.1294
   83SLPC   C33 7854   4.079   6.728   2.586  0.3089  0.3559  1.1458
   83SLPC   H3X 7855   4.027   6.826   2.580 -1.4754 -0.6493 -1.5591
   83SLPC   H3Y 7856   4.183   6.754   2.613  0.8186 -0.1025 -0.2703
   83SLPC   C34 7857   4.025   6.624   2.687  0.1284  0.1129  0.3992
   83SLPC   H4X 7858   4.078   6.527   2.677 -1.7293 -0.8192 -1.2267
   83SLPC   H4Y 7859   3.922   6.591   2.662  0.6956 -2.0907  0.7391
   83SLPC   C35 7860   4.020   6.687   2.825 -0.5291  0.4947  0.3983
   83SLPC   H5X 7861   3.980   6.790   2.814 -0.8291  0.2762 -0.6879
   83SLPC   H5Y 7862   4.126   6.691   2.858 -0.7413  0.0583  1.1719
   83SLPC   C36 7863   3.930   6.613   2.926 -0.3816  0.1337 -0.7921
   83SLPC   H6X 7864   3.954   6.505   2.927 -1.3218 -0.0802 -0.1968
   83SLPC   H6Y 7865   3.823   6.621   2.898 -0.4337  0.6389 -0.4734
   83SLPC   C37 7866   3.941   6.675   3.065 -0.1979 -0.0561  0.4312
   83SLPC   H7X 7867   3.901   6.779   3.063  1.0780  0.4504  0.2477
   83SLPC   H7Y 7868   4.047   6.687   3.095 -0.1345  2.2332 -0.5152
   83SLPC   C38 7869   3.880   6.587   3.168  0.3389  0.6674  0.2177
   83SLPC   H8X 7870   3.940   6.493   3.169  1.5386  1.4064  1.3161
   83SLPC   H8Y 7871   3.771   6.568   3.163 -0.3167  2.5047  3.9871
   83SLPC   C39 7872   3.902   6.635   3.310  0.0655  0.1575  0.2044
   83SLPC   H9X 7873   3.854   6.735   3.322  0.0391  0.0472  1.1050
   83SLPC   H9Y 7874   4.011   6.654   3.324  0.2520 -0.2388 -0.6098
   83SLPC  C310 7875   3.845   6.548   3.420 -0.1691  0.3725  0.6705
   83SLPC  H10X 7876   3.896   6.450   3.402 -1.2820 -0.8659  3.5989
   83SLPC  H10Y 7877   3.740   6.514   3.408  0.4253 -1.1957 -0.4406
   83SLPC  C311 7878   3.852   6.603   3.559  0.0713 -0.2513 -0.3885
   83SLPC  H11X 7879   3.814   6.708   3.556 -1.0255 -0.6283 -3.1543
   83SLPC  H11Y 7880   3.957   6.602   3.594  0.1451  0.7760 -0.5353
   83SLPC  C312 7881   3.760   6.526   3.659  0.6320 -0.4868  0.1117
   83SLPC  H12X 7882   3.791   6.420   3.657  2.4373  0.0069  0.1375
   83SLPC  H12Y 7883   3.655   6.536   3.624  0.5421 -2.1012 -0.1471
   83SLPC  C313 7884   3.777   6.589   3.796  0.1304 -0.7176 -0.2694
   83SLPC  H13X 7885   3.779   6.699   3.786 -1.8076 -0.6090  0.0769
   83SLPC  H13Y 7886   3.870   6.541   3.833  0.5086 -0.9436 -1.4745
   83SLPC  C314 7887   3.659   6.543   3.886 -0.1436  0.3792 -0.8748
   83SLPC  H14X 7888   3.653   6.435   3.864 -0.4737  0.4877 -1.3246
   83SLPC  H14Y 7889   3.564   6.594   3.860 -0.8600 -2.0636 -3.5564
   83SLPC  C315 7890   3.694   6.574   4.034  0.3731  0.0196  0.4534
   83SLPC  H15X 7891   3.727   6.680   4.038 -0.6141  0.7208 -4.1269
   83SLPC  H15Y 7892   3.774   6.504   4.065 -2.6090 -2.7615  2.6439
   83SLPC  C316 7893   3.582   6.549   4.139  0.3659 -0.5181 -0.2414
   83SLPC  H16X 7894   3.559   6.440   4.142 -2.0285 -0.0489  1.0791
   83SLPC  H16Y 7895   3.486   6.597   4.111  0.5717  0.8372  1.2736
   83SLPC  C317 7896   3.614   6.599   4.284 -0.1595 -0.1040  0.5789
   83SLPC  H17X 7897   3.640   6.707   4.277  2.0015 -0.5742  0.5326
   83SLPC  H17Y 7898   3.702   6.546   4.326  0.6850 -0.5256 -1.5979
   83SLPC  C318 7899   3.491   6.589   4.367  0.8433  0.0702 -0.2454
   83SLPC  H18X 7900   3.504   6.613   4.475 -0.4609  0.3570 -0.1425
   83SLPC  H18Y 7901   3.451   6.486   4.361  1.3497 -0.1874  0.6314
   83SLPC  H18Z 7902   3.416   6.665   4.337 -0.3835 -0.4162  1.4658
   84SLPC     N 7903   2.707   5.440   1.407 -0.6434 -0.1527 -0.1764
   84SLPC   C13 7904   2.693   5.433   1.256  0.5759  0.4384 -0.0364
   84SLPC  H13A 7905   2.633   5.352   1.216 -1.3196  1.5456  0.4184
   84SLPC  H13B 7906   2.640   5.519   1.216  0.1232 -0.1030 -0.6166
   84SLPC  H13C 7907   2.785   5.429   1.200  0.2266 -1.0327 -0.5470
   84SLPC   C14 7908   2.573   5.411   1.475 -0.1497  0.7511 -0.1518
   84SLPC  H14A 7909   2.516   5.331   1.432 -0.9690  2.1390 -1.7719
   84SLPC  H14B 7910   2.593   5.367   1.571 -0.9064 -0.1145 -0.3758
   84SLPC  H14C 7911   2.511   5.497   1.496  0.7407  1.0185  1.5583
   84SLPC   C15 7912   2.737   5.578   1.449  0.2510  0.8966  0.2106
   84SLPC  H15A 7913   2.669   5.646   1.399 -0.3878 -0.2920 -0.5635
   84SLPC  H15B 7914   2.728   5.590   1.556 -0.7422  1.5195  0.0740
   84SLPC  H15C 7915   2.835   5.607   1.414 -0.2131  2.3881  0.0690
   84SLPC   C12 7916   2.806   5.333   1.448  0.2438  0.5542 -0.0762
   84SLPC  H12A 7917   2.896   5.345   1.391  0.9744 -1.3834  0.5789
   84SLPC  H12B 7918   2.765   5.237   1.418 -3.0570  1.4871  0.9562
   84SLPC   C11 7919   2.844   5.332   1.601  0.2702  0.5636  0.0538
   84SLPC  H11A 7920   2.866   5.438   1.626  0.4268  0.8884 -1.3934
   84SLPC  H11B 7921   2.935   5.269   1.607  0.8231  1.3438  0.1094
   84SLPC     P 7922   2.778   5.197   1.812 -0.1681 -0.0044 -0.3177
   84SLPC   O13 7923   2.648   5.176   1.883  0.2829 -0.0976  0.3566
   84SLPC   O14 7924   2.852   5.076   1.770 -0.0015 -0.0242  0.5930
   84SLPC   O12 7925   2.739   5.284   1.682 -0.4934 -0.1029 -0.4473
   84SLPC   O11 7926   2.882   5.285   1.890  0.4643  0.7280 -0.3387
   84SLPC    C1 7927   2.856   5.421   1.924  0.2292 -0.0206  0.4478
   84SLPC    HA 7928   2.945   5.485   1.905 -0.0878  0.0547 -0.8856
   84SLPC    HB 7929   2.775   5.464   1.862  0.0317 -1.6070 -0.4533
   84SLPC    C2 7930   2.813   5.447   2.074 -0.4288 -0.1357  0.1479
   84SLPC    HS 7931   2.803   5.556   2.090 -0.6088 -0.1039 -0.1735
   84SLPC   O21 7932   2.914   5.393   2.164 -0.1107  0.1010  0.1963
   84SLPC   C21 7933   3.026   5.455   2.156  0.5192  0.0403  0.3289
   84SLPC   O22 7934   3.045   5.563   2.108 -0.4732 -0.1309  0.5129
   84SLPC   C22 7935   3.127   5.374   2.249  0.2182  0.1679  0.4454
   84SLPC   H2R 7936   3.129   5.272   2.205 -0.5345  0.3522 -0.0333
   84SLPC   H2S 7937   3.228   5.417   2.238  0.0790 -0.0879 -2.5075
   84SLPC    C3 7938   2.679   5.393   2.116  0.7349 -0.4516  1.3212
   84SLPC    HX 7939   2.697   5.283   2.124  0.6862 -0.4013  2.1951
   84SLPC    HY 7940   2.593   5.406   2.048  1.9492 -1.1723 -0.4495
   84SLPC   O31 7941   2.644   5.437   2.250  0.0362 -0.7212  0.3537
   84SLPC   C31 7942   2.550   5.368   2.304 -0.0945  0.0535  0.3806
   84SLPC   O32 7943   2.481   5.280   2.251 -0.4573 -0.2961 -0.1079
   84SLPC   C32 7944   2.536   5.421   2.445 -0.4931  0.5768 -0.6308
   84SLPC   H2X 7945   2.426   5.416   2.458 -0.5362  1.8476 -0.3586
   84SLPC   H2Y 7946   2.567   5.527   2.455  0.1326  0.6766 -3.0110
   84SLPC   C23 7947   3.084   5.374   2.396 -0.5365  0.2965  0.0660
   84SLPC   H3R 7948   2.977   5.356   2.421 -0.3727 -2.2380 -0.7700
   84SLPC   H3S 7949   3.103   5.472   2.443 -1.7847  0.0079  1.2511
   84SLPC   C24 7950   3.174   5.286   2.486  0.3107  0.2522  0.4755
   84SLPC   H4R 7951   3.285   5.301   2.490  0.3282  0.0424  0.7331
   84SLPC   H4S 7952   3.155   5.179   2.464 -1.3035  0.9310 -1.7933
   84SLPC   C25 7953   3.134   5.303   2.638 -0.7519  0.2194  0.3532
   84SLPC   H5R 7954   3.198   5.231   2.694 -2.3485 -1.1443  0.5072
   84SLPC   H5S 7955   3.030   5.272   2.665 -0.8208  0.0194 -0.1349
   84SLPC   C26 7956   3.168   5.437   2.696 -0.3768  0.0855  0.0357
   84SLPC   H6R 7957   3.114   5.523   2.652  1.4574  1.0234 -0.4655
   84SLPC   H6S 7958   3.279   5.442   2.687 -0.1263 -4.1285 -1.8723
   84SLPC   C27 7959   3.143   5.466   2.845 -0.4801 -0.1771 -0.7518
   84SLPC   H7R 7960   3.038   5.499   2.865  0.5358  1.1277  3.5365
   84SLPC   H7S 7961   3.207   5.552   2.874 -2.0279  1.2981 -1.5292
   84SLPC   C28 7962   3.177   5.348   2.934 -0.2593 -0.3036  0.4215
   84SLPC   H8R 7963   3.279   5.316   2.905 -0.6186  0.2105 -1.5998
   84SLPC   H8S 7964   3.103   5.271   2.902 -2.3176  2.9414 -3.6481
   84SLPC   C29 7965   3.173   5.376   3.080 -0.6290 -0.1689 -0.2025
   84SLPC   H9R 7966   3.073   5.407   3.114 -0.4723 -1.0167  1.1151
   84SLPC  C210 7967   3.270   5.407   3.162 -0.3165 -0.0480 -0.3587
   84SLPC  H10R 7968   3.241   5.416   3.268  3.7328  0.7501  0.8385
   84SLPC  C211 7969   3.418   5.392   3.130  1.0064 -0.3137 -0.6373
   84SLPC  H11R 7970   3.458   5.496   3.129  2.7818 -0.9092  1.0464
   84SLPC  H11S 7971   3.434   5.363   3.024 -2.3881 -1.2427 -1.0108
   84SLPC  C212 7972   3.504   5.311   3.215 -0.5383  0.0672  0.1508
   84SLPC  H12R 7973   3.552   5.230   3.157  0.7253  0.4094  0.7047
   84SLPC  C213 7974   3.548   5.334   3.338 -0.3326  0.7159 -0.0434
   84SLPC  H13R 7975   3.601   5.252   3.389  1.8416  2.7009  1.0992
   84SLPC  C214 7976   3.510   5.446   3.426  0.0927  0.1413  0.7615
   84SLPC  H14R 7977   3.438   5.518   3.383 -1.1252 -1.4143  0.0758
   84SLPC  H14S 7978   3.605   5.498   3.452 -0.2600 -0.2318  2.9855
   84SLPC  C215 7979   3.460   5.395   3.567 -0.3166 -0.1609  1.3084
   84SLPC  H15R 7980   3.435   5.486   3.627  2.8765  3.1202 -1.7914
   84SLPC  H15S 7981   3.556   5.355   3.606  1.0322 -0.8471 -2.3109
   84SLPC  C216 7982   3.341   5.296   3.571 -0.5953 -0.8433  0.3228
   84SLPC  H16R 7983   3.330   5.244   3.474  2.2418  0.2849 -0.7272
   84SLPC  H16S 7984   3.250   5.356   3.593  0.7129  1.6115 -0.5286
   84SLPC  C217 7985   3.361   5.189   3.679  0.3631  0.5940 -0.1001
   84SLPC  H17R 7986   3.381   5.227   3.782  3.0674  1.7584 -0.9422
   84SLPC  H17S 7987   3.443   5.123   3.645 -0.7792  0.1739 -2.1974
   84SLPC  C218 7988   3.241   5.105   3.686  0.1267  0.9127  0.2209
   84SLPC  H18R 7989   3.261   5.031   3.605 -0.9655 -1.5194  2.0604
   84SLPC  H18S 7990   3.152   5.164   3.656 -0.5175  0.4794  1.2354
   84SLPC  H18T 7991   3.228   5.066   3.789  1.9476  0.6202  0.3714
   84SLPC   C33 7992   2.624   5.329   2.538  0.4476  0.0970 -0.4741
   84SLPC   H3X 7993   2.726   5.346   2.499  0.0472  1.0279 -1.1529
   84SLPC   H3Y 7994   2.590   5.226   2.515  0.2913 -0.0974  0.5574
   84SLPC   C34 7995   2.605   5.383   2.675 -0.1218  0.0196 -0.1751
   84SLPC   H4X 7996   2.498   5.370   2.700  0.4932 -0.2437  2.6462
   84SLPC   H4Y 7997   2.636   5.488   2.694  1.6184 -0.1725 -1.6337
   84SLPC   C35 7998   2.694   5.306   2.784 -0.0077  0.3299 -0.3208
   84SLPC   H5X 7999   2.800   5.339   2.779 -0.0610  0.6464  0.5811
   84SLPC   H5Y 8000   2.693   5.196   2.773 -1.1983  0.5621 -3.9258
   84SLPC   C36 8001   2.643   5.338   2.932 -0.1903 -0.0647  0.3241
   84SLPC   H6X 8002   2.539   5.309   2.959 -0.9125  3.1293  1.5405
   84SLPC   H6Y 8003   2.633   5.448   2.944  0.2648  0.1364 -1.0310
   84SLPC   C37 8004   2.746   5.281   3.029  0.4315 -0.1741 -0.1791
   84SLPC   H7X 8005   2.845   5.330   3.020  0.1692  0.5392  0.6317
   84SLPC   H7Y 8006   2.757   5.176   2.994 -0.5115 -0.1474 -0.6006
   84SLPC   C38 8007   2.701   5.297   3.174  0.0571 -0.2786 -0.4994
   84SLPC   H8X 8008   2.590   5.292   3.170  0.1405 -2.0246 -1.9564
   84SLPC   H8Y 8009   2.714   5.400   3.214  0.8485 -0.1073 -1.1792
   84SLPC   C39 8010   2.754   5.193   3.273  0.3167 -0.2802 -0.0897
   84SLPC   H9X 8011   2.863   5.183   3.257  0.2420 -1.5429  0.0382
   84SLPC   H9Y 8012   2.708   5.096   3.244  1.1266 -0.5581 -0.4703
   84SLPC  C310 8013   2.701   5.207   3.422 -0.3857  0.6618 -0.3686
   84SLPC  H10X 8014   2.590   5.200   3.424 -0.3245 -0.1744  0.4161
   84SLPC  H10Y 8015   2.723   5.310   3.456  0.2729  1.6706 -3.5046
   84SLPC  C311 8016   2.745   5.091   3.522  0.2129 -0.3473  0.9420
   84SLPC  H11X 8017   2.845   5.119   3.562 -0.3413  3.4168  0.1271
   84SLPC  H11Y 8018   2.736   4.996   3.465 -1.2340 -0.0391  0.6335
   84SLPC  C312 8019   2.646   5.090   3.636  0.5836  0.0240  0.3044
   84SLPC  H12X 8020   2.546   5.059   3.599  0.4112 -1.8351  2.1694
   84SLPC  H12Y 8021   2.632   5.192   3.678 -0.7934 -0.8586  2.0966
   84SLPC  C313 8022   2.681   5.002   3.751 -0.2520  0.1577  0.7538
   84SLPC  H13X 8023   2.712   4.899   3.722  2.3474  0.7054  1.3190
   84SLPC  H13Y 8024   2.591   4.999   3.816 -0.2363 -1.5694  0.7475
   84SLPC  C314 8025   2.795   5.060   3.835  0.3557  0.0443  0.2195
   84SLPC  H14X 8026   2.776   5.169   3.847  1.1507  0.2447 -0.2374
   84SLPC  H14Y 8027   2.889   5.041   3.779 -0.3329 -0.5768 -0.7736
   84SLPC  C315 8028   2.794   5.002   3.980  0.0032 -0.5248 -0.3892
   84SLPC  H15X 8029   2.810   4.893   3.973 -0.2166 -0.4864 -1.9443
   84SLPC  H15Y 8030   2.693   5.010   4.025 -0.1186  0.7491 -0.8232
   84SLPC  C316 8031   2.905   5.068   4.066  0.2154 -0.5386 -0.4950
   84SLPC  H16X 8032   2.880   5.174   4.088 -0.4704 -0.5693 -1.0890
   84SLPC  H16Y 8033   3.009   5.058   4.027  1.0251 -0.5243  1.5193
   84SLPC  C317 8034   2.906   5.003   4.205  0.0517  0.0206 -0.5047
   84SLPC  H17X 8035   2.944   4.899   4.196 -0.2254 -0.3556  1.9201
   84SLPC  H17Y 8036   2.799   4.998   4.235 -1.0557  0.2610 -3.9957
   84SLPC  C318 8037   3.007   5.087   4.290  0.2848  0.1641 -0.3618
   84SLPC  H18X 8038   2.977   5.188   4.324 -0.4483 -0.9742  2.7940
   84SLPC  H18Y 8039   3.102   5.087   4.234  1.8161  2.0611  2.0186
   84SLPC  H18Z 8040   3.022   5.048   4.393 -1.1947  1.2887  0.3224
   85SLPC     N 8041   4.864   0.911   1.743  0.1122 -0.3745  0.0995
   85SLPC   C13 8042   4.798   0.858   1.619 -0.3630  0.6944 -0.2311
   85SLPC  H13A 8043   4.711   0.919   1.598 -0.1326  0.8817 -0.6459
   85SLPC  H13B 8044   4.873   0.855   1.542 -0.0831 -3.5888 -0.0776
   85SLPC  H13C 8045   4.781   0.751   1.629 -0.4942  0.7148 -0.2279
   85SLPC   C14 8046   4.766   0.908   1.855 -0.1082  0.5200 -0.3530
   85SLPC  H14A 8047   4.812   0.935   1.949  0.6979  0.9384 -0.8534
   85SLPC  H14B 8048   4.678   0.969   1.836 -0.0741  1.5461  2.3657
   85SLPC  H14C 8049   4.729   0.809   1.875 -0.3708  0.8923  1.1485
   85SLPC   C15 8050   4.909   1.052   1.712 -0.0599 -0.1574  0.0767
   85SLPC  H15A 8051   4.983   1.055   1.634 -0.9558 -0.8991 -0.8294
   85SLPC  H15B 8052   4.829   1.118   1.680 -1.6495 -1.0104  2.0099
   85SLPC  H15C 8053   4.948   1.105   1.798  2.4812 -1.2445 -0.3198
   85SLPC   C12 8054   4.984   0.831   1.782 -0.4080  0.0198 -0.5568
   85SLPC  H12A 8055   5.066   0.839   1.713  0.9565  0.3341  1.0514
   85SLPC  H12B 8056   4.968   0.724   1.776 -0.6705  0.1081 -1.8085
   85SLPC   C11 8057   5.041   0.861   1.927 -0.1824 -0.4342  0.2874
   85SLPC  H11A 8058   5.132   0.799   1.941  1.2580  1.8322  1.4128
   85SLPC  H11B 8059   4.975   0.821   2.008  1.1782  1.5512  2.4757
   85SLPC     P 8060   5.132   1.060   2.074  0.0017  0.3620 -0.7742
   85SLPC   O13 8061   5.129   1.209   2.065 -0.2838  0.0911  0.0314
   85SLPC   O14 8062   5.048   0.997   2.183 -0.1517  0.0951  0.4133
   85SLPC   O12 8063   5.077   0.998   1.943 -0.0106 -0.4423  0.3887
   85SLPC   O11 8064   5.281   1.012   2.082 -0.2968  0.1668 -0.3286
   85SLPC    C1 8065   5.313   0.883   2.118 -0.0793  0.7725  1.0869
   85SLPC    HA 8066   5.226   0.814   2.121 -0.9213  1.0573 -4.7182
   85SLPC    HB 8067   5.375   0.843   2.035 -2.4280  0.0375 -0.4392
   85SLPC    C2 8068   5.394   0.870   2.246  0.9209 -0.7654 -0.2275
   85SLPC    HS 8069   5.421   0.763   2.250  1.1877 -0.7077 -0.5206
   85SLPC   O21 8070   5.309   0.908   2.347  0.3547 -0.0606  0.0836
   85SLPC   C21 8071   5.239   0.805   2.399  0.4678  0.0248 -0.2226
   85SLPC   O22 8072   5.232   0.693   2.352  0.1095 -0.2243 -0.6558
   85SLPC   C22 8073   5.175   0.842   2.542  0.7672 -0.0879 -0.1427
   85SLPC   H2R 8074   5.209   0.945   2.568 -3.0315  1.3690 -0.4068
   85SLPC   H2S 8075   5.065   0.848   2.528  0.9003 -0.7106 -1.6332
   85SLPC    C3 8076   5.511   0.963   2.252 -0.1522  0.2636  1.1036
   85SLPC    HX 8077   5.474   1.068   2.250  1.4320  0.8964  2.6277
   85SLPC    HY 8078   5.573   0.947   2.162  1.0540  1.2221  1.7325
   85SLPC   O31 8079   5.598   0.948   2.369 -0.1857  0.0068  0.3235
   85SLPC   C31 8080   5.676   0.840   2.361  0.5647 -0.3849  0.5680
   85SLPC   O32 8081   5.672   0.753   2.271 -0.4500 -0.3259  0.4404
   85SLPC   C32 8082   5.767   0.842   2.481  0.0033 -0.6373 -0.5001
   85SLPC   H2X 8083   5.842   0.922   2.467 -0.3206 -0.0518  0.9632
   85SLPC   H2Y 8084   5.821   0.746   2.471 -0.6121 -0.9206 -1.2223
   85SLPC   C23 8085   5.207   0.743   2.659 -0.1079 -0.3589  0.2421
   85SLPC   H3R 8086   5.273   0.661   2.625  0.5580 -1.1168  3.0392
   85SLPC   H3S 8087   5.111   0.701   2.696 -0.0128 -0.6314  0.1832
   85SLPC   C24 8088   5.279   0.812   2.780  0.6947  0.3092  0.2687
   85SLPC   H4R 8089   5.207   0.895   2.796 -1.1671 -0.8891 -1.4132
   85SLPC   H4S 8090   5.380   0.840   2.743  0.7702 -0.9166 -0.5319
   85SLPC   C25 8091   5.276   0.733   2.912  1.0293 -0.6300 -0.3725
   85SLPC   H5R 8092   5.172   0.693   2.920  0.5212  0.9388  1.9745
   85SLPC   H5S 8093   5.339   0.643   2.902  1.4594 -0.6502  1.9184
   85SLPC   C26 8094   5.321   0.819   3.026 -0.4374 -0.3523 -0.4388
   85SLPC   H6R 8095   5.258   0.910   3.014 -2.4183 -1.8672 -2.4828
   85SLPC   H6S 8096   5.427   0.850   3.014 -0.7590  0.9022 -0.1960
   85SLPC   C27 8097   5.311   0.744   3.163  0.8001  0.4502  0.4018
   85SLPC   H7R 8098   5.388   0.666   3.150  1.0982  1.0158 -1.5086
   85SLPC   H7S 8099   5.207   0.705   3.165  0.4570  0.9506 -2.5301
   85SLPC   C28 8100   5.326   0.820   3.293  0.3161  0.5532 -0.4712
   85SLPC   H8R 8101   5.233   0.877   3.311  0.3496  0.3261  0.4565
   85SLPC   H8S 8102   5.409   0.894   3.295 -0.9994  2.1494 -1.6206
   85SLPC   C29 8103   5.346   0.720   3.406  0.2958  0.0917 -0.0472
   85SLPC   H9R 8104   5.285   0.628   3.400 -1.0913  0.8892  1.1208
   85SLPC  C210 8105   5.394   0.748   3.532 -0.3195 -0.2385 -0.4715
   85SLPC  H10R 8106   5.417   0.663   3.597 -0.9067  0.6705  0.9758
   85SLPC  C211 8107   5.476   0.873   3.564 -1.0184  0.2096 -0.2083
   85SLPC  H11R 8108   5.521   0.911   3.470  1.9003 -2.2052  0.0467
   85SLPC  H11S 8109   5.566   0.832   3.615 -2.1073 -0.1620  1.4822
   85SLPC  C212 8110   5.413   0.979   3.648  1.6750 -0.7492 -0.1708
   85SLPC  H12R 8111   5.365   1.053   3.584  0.3576 -0.9896  0.5175
   85SLPC  C213 8112   5.410   0.982   3.784  0.1222 -0.5418  0.2352
   85SLPC  H13R 8113   5.350   1.063   3.828  1.3425  0.8681 -0.5692
   85SLPC  C214 8114   5.464   0.868   3.867 -0.3819 -0.2870  0.0662
   85SLPC  H14R 8115   5.501   0.780   3.809  0.5992 -0.8867  1.5473
   85SLPC  H14S 8116   5.388   0.814   3.928 -0.0678 -1.5928 -0.6454
   85SLPC  C215 8117   5.572   0.903   3.973 -1.1098 -0.3306  0.0974
   85SLPC  H15R 8118   5.667   0.915   3.916 -2.0624 -0.5474 -1.6178
   85SLPC  H15S 8119   5.580   0.821   4.048 -1.7815 -0.6774 -0.2049
   85SLPC  C216 8120   5.554   1.034   4.042  0.3268 -0.6487  0.2347
   85SLPC  H16R 8121   5.574   1.111   3.965  0.9791 -1.4692 -0.4351
   85SLPC  H16S 8122   5.635   1.043   4.117 -0.9036  0.5531  1.4611
   85SLPC  C217 8123   5.426   1.054   4.119  0.3395 -0.4971 -0.4283
   85SLPC  H17R 8124   5.438   0.984   4.205  2.7730  2.1267  1.5226
   85SLPC  H17S 8125   5.329   1.023   4.074 -2.2127  1.8737  2.8734
   85SLPC  C218 8126   5.420   1.186   4.199 -0.3250 -0.5827  0.0809
   85SLPC  H18R 8127   5.525   1.204   4.228 -1.1823  2.6760  1.6217
   85SLPC  H18S 8128   5.357   1.174   4.290 -0.4723 -1.6200 -0.1435
   85SLPC  H18T 8129   5.371   1.275   4.152 -0.4475  0.4625  2.1060
   85SLPC   C33 8130   5.687   0.838   2.609  0.2042  0.2345 -0.5377
   85SLPC   H3X 8131   5.615   0.755   2.597  1.5536 -1.1215  0.3830
   85SLPC   H3Y 8132   5.623   0.929   2.615 -1.0630 -0.5973 -1.1825
   85SLPC   C34 8133   5.772   0.823   2.730  0.3886 -0.3864 -0.4396
   85SLPC   H4X 8134   5.851   0.900   2.720 -1.4482  1.9092  1.5704
   85SLPC   H4Y 8135   5.822   0.724   2.724  0.0715 -0.6985  1.4341
   85SLPC   C35 8136   5.694   0.847   2.859 -0.1889 -0.7473 -0.5021
   85SLPC   H5X 8137   5.631   0.762   2.891 -2.3484  0.1489 -2.1269
   85SLPC   H5Y 8138   5.636   0.941   2.875  1.3872 -0.2568  3.7041
   85SLPC   C36 8139   5.797   0.865   2.980  0.0626  0.3631 -0.0919
   85SLPC   H6X 8140   5.866   0.949   2.956  0.5805 -0.0415 -0.0426
   85SLPC   H6Y 8141   5.860   0.778   3.005  2.7425  2.2112  0.0197
   85SLPC   C37 8142   5.732   0.899   3.122 -0.1888  0.0438  0.0078
   85SLPC   H7X 8143   5.689   0.806   3.164 -0.7932  0.8540  1.2158
   85SLPC   H7Y 8144   5.648   0.972   3.124  0.5277  0.8856  0.2622
   85SLPC   C38 8145   5.840   0.939   3.223  0.2098  0.4993 -0.2322
   85SLPC   H8X 8146   5.907   1.025   3.203  2.3227 -0.3733  2.4030
   85SLPC   H8Y 8147   5.908   0.852   3.233 -1.6310 -1.2689 -2.1871
   85SLPC   C39 8148   5.786   0.969   3.366 -0.5675 -0.7934  0.4004
   85SLPC   H9X 8149   5.726   0.879   3.390 -1.3112 -0.5648 -0.5161
   85SLPC   H9Y 8150   5.710   1.050   3.357 -0.2765 -0.2415  2.5357
   85SLPC  C310 8151   5.887   1.012   3.467  0.2345  0.0140  0.5407
   85SLPC  H10X 8152   5.941   1.103   3.433 -2.1936  0.9065 -1.1705
   85SLPC  H10Y 8153   5.963   0.930   3.463  0.3052  0.1295 -0.9696
   85SLPC  C311 8154   5.829   1.026   3.612  0.1152  0.1107  0.2988
   85SLPC  H11X 8155   5.779   0.931   3.640  1.0618 -0.8017 -0.9796
   85SLPC  H11Y 8156   5.749   1.103   3.614 -0.2794 -0.3120  1.0746
   85SLPC  C312 8157   5.946   1.059   3.715  0.6573  0.1822  0.0725
   85SLPC  H12X 8158   6.030   1.106   3.660  1.4653 -1.4969 -0.2049
   85SLPC  H12Y 8159   5.983   0.960   3.751  0.5218 -0.4568 -1.4901
   85SLPC  C313 8160   5.899   1.152   3.828 -0.4247  0.0622  0.2105
   85SLPC  H13X 8161   5.808   1.112   3.880 -0.1397 -1.3146 -0.3054
   85SLPC  H13Y 8162   5.865   1.254   3.800 -2.9958 -0.6694  0.3224
   85SLPC  C314 8163   6.001   1.169   3.943 -0.2057 -0.5658 -0.1915
   85SLPC  H14X 8164   6.097   1.201   3.896 -1.0175  0.4728 -1.2065
   85SLPC  H14Y 8165   6.031   1.073   3.990  0.0047 -0.1422  0.5722
   85SLPC  C315 8166   5.959   1.267   4.052  0.2323  0.3236 -0.2827
   85SLPC  H15X 8167   5.873   1.222   4.107  1.0037 -1.0122 -0.1158
   85SLPC  H15Y 8168   5.929   1.364   4.007  1.7339  0.4853 -0.9997
   85SLPC  C316 8169   6.060   1.277   4.160 -0.3051  0.2140 -0.9300
   85SLPC  H16X 8170   6.093   1.176   4.192  2.5008  1.6736  1.3092
   85SLPC  H16Y 8171   6.010   1.332   4.243 -1.6711 -0.4890 -1.2617
   85SLPC  C317 8172   6.190   1.356   4.131  0.4913  0.4859 -0.0626
   85SLPC  H17X 8173   6.255   1.291   4.069 -0.2554 -0.8533  0.5266
   85SLPC  H17Y 8174   6.241   1.372   4.229 -0.7137  1.9994  0.3577
   85SLPC  C318 8175   6.178   1.501   4.084  0.8503 -0.3124 -0.7148
   85SLPC  H18X 8176   6.100   1.512   4.006 -1.1014  2.7719  1.4750
   85SLPC  H18Y 8177   6.275   1.528   4.035  1.4427 -1.0351  0.0253
   85SLPC  H18Z 8178   6.144   1.555   4.174 -1.1046 -2.6542  0.0567
   86SLPC     N 8179   2.023   2.576   2.127 -1.0499  0.3458 -0.9767
   86SLPC   C13 8180   2.054   2.513   1.994 -0.6867  0.2423  0.0103
   86SLPC  H13A 8181   2.149   2.550   1.959 -1.0640  1.1027 -0.1302
   86SLPC  H13B 8182   2.055   2.406   2.006 -0.2903  0.5584  4.1164
   86SLPC  H13C 8183   1.983   2.527   1.914 -0.4176 -2.8627 -0.9100
   86SLPC   C14 8184   1.877   2.541   2.159 -0.8377 -0.5786 -0.4302
   86SLPC  H14A 8185   1.846   2.438   2.154  1.6261 -1.3908 -0.0795
   86SLPC  H14B 8186   1.857   2.577   2.259  0.3235 -1.8163  0.2697
   86SLPC  H14C 8187   1.808   2.585   2.089 -0.6762  1.1758  0.4532
   86SLPC   C15 8188   2.033   2.723   2.109 -0.1621 -0.1670 -1.0514
   86SLPC  H15A 8189   2.135   2.758   2.116  0.4785 -1.5822 -2.7812
   86SLPC  H15B 8190   1.996   2.737   2.009  0.8155 -2.1108 -1.7270
   86SLPC  H15C 8191   1.978   2.786   2.178  0.5743  0.4468 -1.0144
   86SLPC   C12 8192   2.120   2.541   2.237  0.2111 -0.3956 -0.2711
   86SLPC  H12A 8193   2.102   2.603   2.323  0.5066  1.1633 -1.3045
   86SLPC  H12B 8194   2.222   2.561   2.207  0.0242 -0.4245 -0.9420
   86SLPC   C11 8195   2.115   2.394   2.288  0.1006 -0.0532 -0.7721
   86SLPC  H11A 8196   2.009   2.364   2.300  0.0069  0.2301 -0.8810
   86SLPC  H11B 8197   2.152   2.386   2.392 -0.3411 -0.0349 -0.6131
   86SLPC     P 8198   2.324   2.269   2.182  0.0061  0.3190  0.0279
   86SLPC   O13 8199   2.332   2.124   2.149  0.3330 -0.1583 -0.0374
   86SLPC   O14 8200   2.385   2.364   2.086 -0.4090 -0.4093  0.0729
   86SLPC   O12 8201   2.174   2.308   2.196 -0.5517  0.0300  0.8876
   86SLPC   O11 8202   2.386   2.294   2.326  0.4519 -0.0822 -0.2832
   86SLPC    C1 8203   2.440   2.421   2.350  0.3744  0.3395 -0.0455
   86SLPC    HA 8204   2.545   2.424   2.314  0.0571  1.3342 -0.9743
   86SLPC    HB 8205   2.378   2.506   2.313  0.5997 -0.1491 -1.6188
   86SLPC    C2 8206   2.463   2.451   2.505  0.0598  0.2400  0.3487
   86SLPC    HS 8207   2.565   2.412   2.525 -0.0985 -0.2897  0.1621
   86SLPC   O21 8208   2.364   2.387   2.591 -0.2526 -0.6978 -0.4328
   86SLPC   C21 8209   2.392   2.265   2.626 -0.2703 -0.6865 -0.0748
   86SLPC   O22 8210   2.500   2.204   2.601  0.2689 -0.1248  0.2310
   86SLPC   C22 8211   2.264   2.211   2.691  0.3162 -0.5615 -0.0883
   86SLPC   H2R 8212   2.206   2.301   2.721  0.7949  0.2383 -1.4958
   86SLPC   H2S 8213   2.204   2.166   2.609  0.5103 -0.7020 -0.1525
   86SLPC    C3 8214   2.442   2.602   2.527  0.3882  1.0578 -0.5809
   86SLPC    HX 8215   2.331   2.606   2.537  0.1806 -1.3809 -1.1599
   86SLPC    HY 8216   2.469   2.654   2.432  1.9185  0.4836 -0.4859
   86SLPC   O31 8217   2.523   2.652   2.633  0.3245 -1.0184 -0.5392
   86SLPC   C31 8218   2.656   2.645   2.640  0.0310  0.0889  0.0690
   86SLPC   O32 8219   2.733   2.595   2.561 -0.3868  0.2294  0.7041
   86SLPC   C32 8220   2.703   2.722   2.757 -0.0263 -0.3080 -0.7440
   86SLPC   H2X 8221   2.671   2.828   2.751  1.0911 -0.0140 -2.0050
   86SLPC   H2Y 8222   2.814   2.718   2.752 -0.0041  0.9888 -1.8577
   86SLPC   C23 8223   2.282   2.098   2.804 -0.0476  1.0691 -0.1682
   86SLPC   H3R 8224   2.361   2.024   2.776 -0.6169  0.7178 -0.8669
   86SLPC   H3S 8225   2.195   2.030   2.818  0.8917 -0.0585  0.4409
   86SLPC   C24 8226   2.310   2.158   2.942  0.4109 -0.4203 -0.6450
   86SLPC   H4R 8227   2.224   2.224   2.969 -0.6798 -2.0705  0.1134
   86SLPC   H4S 8228   2.398   2.225   2.951 -0.0985  0.1099  0.7659
   86SLPC   C25 8229   2.329   2.062   3.064  0.5567  0.4969  0.7777
   86SLPC   H5R 8230   2.416   2.000   3.034  1.2915  1.2957  1.2402
   86SLPC   H5S 8231   2.254   1.982   3.084  1.3649 -0.2327  0.9402
   86SLPC   C26 8232   2.365   2.128   3.192  0.5757  0.1886  0.5302
   86SLPC   H6R 8233   2.281   2.189   3.231  0.4581 -0.0063  0.5855
   86SLPC   H6S 8234   2.438   2.206   3.162 -0.1657  0.7182  0.0675
   86SLPC   C27 8235   2.433   2.040   3.292 -0.2032  0.5491 -0.4189
   86SLPC   H7R 8236   2.518   1.994   3.237  0.7190  2.1943 -0.4437
   86SLPC   H7S 8237   2.365   1.964   3.335  1.7753 -1.0457  0.0520
   86SLPC   C28 8238   2.492   2.119   3.408  0.4606  0.0525  0.3287
   86SLPC   H8R 8239   2.403   2.149   3.468 -1.3571 -2.5557 -0.8995
   86SLPC   H8S 8240   2.534   2.218   3.378 -0.8919  0.9311  1.2220
   86SLPC   C29 8241   2.584   2.047   3.504  0.1332 -0.1171 -0.0848
   86SLPC   H9R 8242   2.682   2.031   3.457 -0.3916  0.6890 -1.5103
   86SLPC  C210 8243   2.568   2.003   3.629  0.0235 -0.6381  0.1056
   86SLPC  H10R 8244   2.656   1.958   3.678  2.5068  1.4187 -2.1776
   86SLPC  C211 8245   2.453   2.025   3.722 -0.0188 -0.8867 -0.4141
   86SLPC  H11R 8246   2.393   1.932   3.731 -0.7579 -0.2313  2.5994
   86SLPC  H11S 8247   2.383   2.097   3.674  0.1507 -1.4042 -1.4653
   86SLPC  C212 8248   2.481   2.062   3.867 -0.3223  0.5895  0.0946
   86SLPC  H12R 8249   2.470   1.989   3.948  0.1138  1.4643  0.9615
   86SLPC  C213 8250   2.510   2.186   3.911 -0.0314 -0.2556  0.1240
   86SLPC  H13R 8251   2.549   2.193   4.014  0.1166 -1.0251  0.1263
   86SLPC  C214 8252   2.515   2.308   3.821  0.3660 -0.4553 -0.0093
   86SLPC  H14R 8253   2.486   2.400   3.876  0.4155  0.7646 -1.9424
   86SLPC  H14S 8254   2.446   2.285   3.737  0.2483 -1.7444  0.4136
   86SLPC  C215 8255   2.658   2.339   3.773  0.3624  0.2087 -0.1987
   86SLPC  H15R 8256   2.652   2.423   3.701 -2.8602 -2.0193 -2.8456
   86SLPC  H15S 8257   2.691   2.256   3.707  0.0036  1.0229 -1.4425
   86SLPC  C216 8258   2.758   2.366   3.891 -0.1737 -0.6371  0.4552
   86SLPC  H16R 8259   2.781   2.267   3.935  2.9342  0.6613  2.0416
   86SLPC  H16S 8260   2.715   2.432   3.969 -1.8192  0.0438 -0.9618
   86SLPC  C217 8261   2.892   2.432   3.839 -0.0414  0.0518  0.1178
   86SLPC  H17R 8262   2.877   2.534   3.796  1.1238 -0.8153 -2.6159
   86SLPC  H17S 8263   2.939   2.375   3.755  1.9903  1.8539 -0.0699
   86SLPC  C218 8264   3.001   2.452   3.946  0.3166 -0.1340  0.0434
   86SLPC  H18R 8265   2.966   2.510   4.035 -1.2850 -0.5100 -0.2999
   86SLPC  H18S 8266   3.087   2.514   3.915 -0.4999  1.7425  1.3621
   86SLPC  H18T 8267   3.046   2.354   3.973  1.3151  0.6427  1.3232
   86SLPC   C33 8268   2.650   2.676   2.894  0.1944 -0.5272 -0.2065
   86SLPC   H3X 8269   2.673   2.567   2.899  2.8583 -0.0012  0.3605
   86SLPC   H3Y 8270   2.539   2.683   2.897  0.1708 -1.2165  1.9089
   86SLPC   C34 8271   2.717   2.750   3.003 -0.0793 -0.2717 -0.0683
   86SLPC   H4X 8272   2.695   2.857   2.986 -2.3969 -0.8070 -0.8440
   86SLPC   H4Y 8273   2.826   2.732   2.991 -0.0741 -0.3775  0.1374
   86SLPC   C35 8274   2.663   2.703   3.139 -0.1744 -0.5765 -0.7400
   86SLPC   H5X 8275   2.691   2.596   3.146  0.9184 -0.1807  3.0657
   86SLPC   H5Y 8276   2.552   2.713   3.142 -0.0622  0.7092 -0.2187
   86SLPC   C36 8277   2.724   2.788   3.253  0.3154 -0.0032  0.6664
   86SLPC   H6X 8278   2.709   2.896   3.230  0.4959 -0.7445 -3.7669
   86SLPC   H6Y 8279   2.835   2.781   3.251  0.2623 -0.6016 -0.8855
   86SLPC   C37 8280   2.679   2.743   3.392 -0.4010 -0.3119 -0.4947
   86SLPC   H7X 8281   2.706   2.636   3.404  1.6513  0.3094  1.0251
   86SLPC   H7Y 8282   2.568   2.750   3.394 -0.4951 -1.0510 -2.2261
   86SLPC   C38 8283   2.741   2.828   3.520  0.2962 -0.6553  0.0026
   86SLPC   H8X 8284   2.701   2.931   3.510 -1.7254 -1.3739  0.1983
   86SLPC   H8Y 8285   2.852   2.825   3.514  0.3382  0.4579  0.0012
   86SLPC   C39 8286   2.679   2.775   3.651 -0.8068 -0.1290 -0.1988
   86SLPC   H9X 8287   2.700   2.666   3.655  2.0213  0.3402  0.1342
   86SLPC   H9Y 8288   2.569   2.789   3.656 -1.0401 -1.7825 -0.0661
   86SLPC  C310 8289   2.735   2.843   3.783 -0.2244  0.1564 -0.7455
   86SLPC  H10X 8290   2.711   2.951   3.773 -0.1480  0.3667  0.9245
   86SLPC  H10Y 8291   2.846   2.837   3.782 -0.1807  0.9403 -1.8972
   86SLPC  C311 8292   2.677   2.789   3.919  0.4291 -0.0315 -0.3730
   86SLPC  H11X 8293   2.696   2.680   3.912  0.8362 -0.1219  1.5835
   86SLPC  H11Y 8294   2.567   2.803   3.930  0.6633  1.4529  0.3882
   86SLPC  C312 8295   2.755   2.854   4.035 -0.3638  0.3918 -0.0073
   86SLPC  H12X 8296   2.708   2.955   4.030 -0.9263  0.0800 -1.8251
   86SLPC  H12Y 8297   2.861   2.848   4.003 -0.2120 -3.3419  0.7132
   86SLPC  C313 8298   2.740   2.792   4.177  0.1122 -0.8882  0.1888
   86SLPC  H13X 8299   2.795   2.696   4.168 -2.9387 -2.5790 -3.7569
   86SLPC  H13Y 8300   2.637   2.780   4.218  1.2169 -2.3656  2.7784
   86SLPC  C314 8301   2.828   2.875   4.277  0.2127 -0.4506  0.1865
   86SLPC  H14X 8302   2.777   2.973   4.280 -3.7946 -2.3040 -0.2364
   86SLPC  H14Y 8303   2.927   2.883   4.228 -1.2876  1.4596 -2.8562
   86SLPC  C315 8304   2.827   2.810   4.416 -0.8175 -0.3103 -0.0968
   86SLPC  H15X 8305   2.869   2.708   4.402  1.5615  0.6267 -0.2789
   86SLPC  H15Y 8306   2.730   2.808   4.470  0.9233 -0.0946  3.3169
   86SLPC  C316 8307   2.923   2.889   4.507  0.1188  0.5529  0.0010
   86SLPC  H16X 8308   2.874   2.988   4.517 -1.1522 -0.1429  0.9865
   86SLPC  H16Y 8309   3.027   2.907   4.472  0.4156  0.0303  0.5808
   86SLPC  C317 8310   2.929   2.828   4.650  0.3459  0.0418 -0.9729
   86SLPC  H17X 8311   2.939   2.718   4.639 -0.8390 -0.9975  4.8346
   86SLPC  H17Y 8312   2.830   2.834   4.701  1.2204 -0.9481  0.9421
   86SLPC  C318 8313   3.031   2.883   4.738 -0.0339  0.3567 -0.0457
   86SLPC  H18X 8314   3.011   2.990   4.761  1.3723  0.8816 -1.0936
   86SLPC  H18Y 8315   3.133   2.874   4.696 -0.3626 -0.8791 -0.6319
   86SLPC  H18Z 8316   3.027   2.832   4.836  0.8896 -0.5556 -0.4660
   87SLPC     N 8317   0.983   5.042   1.947 -0.0626  0.3669 -0.6460
   87SLPC   C13 8318   0.997   4.914   1.865 -0.0325  0.0751  0.0446
   87SLPC  H13A 8319   0.944   4.827   1.900  2.9569 -1.2951  1.4991
   87SLPC  H13B 8320   0.970   4.929   1.761 -1.6674 -0.7761  0.3076
   87SLPC  H13C 8321   1.097   4.872   1.867  0.0528  0.2740  0.0196
   87SLPC   C14 8322   1.068   5.148   1.889  0.5375  0.1743 -0.6117
   87SLPC  H14A 8323   1.036   5.175   1.790 -0.6912 -2.0927 -0.8866
   87SLPC  H14B 8324   1.058   5.237   1.950  1.4929  1.9609 -2.9020
   87SLPC  H14C 8325   1.173   5.125   1.894  1.2290  3.0838  0.7769
   87SLPC   C15 8326   1.031   5.012   2.082  0.1331  0.5078 -0.1079
   87SLPC  H15A 8327   0.978   4.927   2.121  0.5905  1.1839  2.1188
   87SLPC  H15B 8328   1.134   4.983   2.071  0.5371  1.6808  0.3662
   87SLPC  H15C 8329   1.010   5.097   2.146  0.0058  0.8873 -0.6468
   87SLPC   C12 8330   0.840   5.095   1.945  0.4980  0.1487  0.5908
   87SLPC  H12A 8331   0.776   5.021   1.990  0.6225 -0.1234  0.3274
   87SLPC  H12B 8332   0.820   5.089   1.839 -1.2692 -1.3336  0.9502
   87SLPC   C11 8333   0.797   5.242   2.002 -0.4795  0.5407  0.7097
   87SLPC  H11A 8334   0.690   5.253   1.973 -0.8301 -0.4139  1.5754
   87SLPC  H11B 8335   0.847   5.321   1.943 -1.5314  1.1217  0.5692
   87SLPC     P 8336   0.874   5.363   2.228  0.0631 -0.2749  0.0023
   87SLPC   O13 8337   1.003   5.322   2.288  0.1191 -0.6430 -0.1664
   87SLPC   O14 8338   0.885   5.489   2.152 -0.1384 -0.4135  0.7049
   87SLPC   O12 8339   0.824   5.245   2.139  0.5094 -0.4251 -0.1024
   87SLPC   O11 8340   0.769   5.374   2.336  0.0268  0.6642  0.2091
   87SLPC    C1 8341   0.631   5.389   2.296  0.4986 -0.0851 -0.2266
   87SLPC    HA 8342   0.613   5.407   2.188 -1.0289 -1.0463 -0.1674
   87SLPC    HB 8343   0.573   5.302   2.334 -1.1914  0.9874 -0.2300
   87SLPC    C2 8344   0.563   5.507   2.373  0.1170 -0.7798  0.2805
   87SLPC    HS 8345   0.606   5.596   2.323  0.6906 -0.9135  0.5232
   87SLPC   O21 8346   0.598   5.490   2.514  0.4668 -0.0330 -0.2791
   87SLPC   C21 8347   0.626   5.603   2.572 -0.1253 -1.0656 -0.9077
   87SLPC   O22 8348   0.629   5.716   2.525 -0.0339  0.6078  0.3504
   87SLPC   C22 8349   0.666   5.567   2.712 -0.1642  0.4819 -0.5926
   87SLPC   H2R 8350   0.608   5.481   2.752  3.5695 -1.6676  0.6938
   87SLPC   H2S 8351   0.770   5.526   2.705  1.0191  2.8472  1.5015
   87SLPC    C3 8352   0.411   5.503   2.363  0.0951 -0.0557 -0.6692
   87SLPC    HX 8353   0.386   5.406   2.411 -1.9236  0.0945 -1.3539
   87SLPC    HY 8354   0.394   5.506   2.253  3.1388 -0.5684 -1.2602
   87SLPC   O31 8355   0.348   5.616   2.433 -0.1186  0.3248 -0.4751
   87SLPC   C31 8356   0.230   5.592   2.477 -0.1179  0.5013  0.7151
   87SLPC   O32 8357   0.175   5.481   2.479 -0.5515 -0.2825 -0.6676
   87SLPC   C32 8358   0.158   5.724   2.507  0.0023 -0.2352 -0.8138
   87SLPC   H2X 8359   0.057   5.690   2.540 -0.9874 -2.7349 -5.4505
   87SLPC   H2Y 8360   0.135   5.786   2.418 -1.7509  1.1592  0.5433
   87SLPC   C23 8361   0.667   5.694   2.803  0.5621 -0.0988  0.4167
   87SLPC   H3R 8362   0.562   5.730   2.812  0.2797 -0.2059 -1.8158
   87SLPC   H3S 8363   0.721   5.783   2.763  0.2879  0.1259  0.5457
   87SLPC   C24 8364   0.732   5.660   2.930 -0.6930 -0.6746 -0.6906
   87SLPC   H4R 8365   0.841   5.650   2.909 -0.5603 -1.4154  0.2661
   87SLPC   H4S 8366   0.704   5.559   2.967  0.2379 -0.7519 -0.1573
   87SLPC   C25 8367   0.719   5.767   3.036 -0.3742 -0.5316 -0.0180
   87SLPC   H5R 8368   0.619   5.814   3.046 -0.5380 -0.8416 -0.2051
   87SLPC   H5S 8369   0.766   5.862   3.001 -1.3727 -0.3090 -0.7939
   87SLPC   C26 8370   0.772   5.732   3.179 -0.3225 -0.2224  0.3285
   87SLPC   H6R 8371   0.882   5.739   3.187 -0.3334  1.9264 -0.7458
   87SLPC   H6S 8372   0.741   5.626   3.193 -0.1140 -0.7402 -2.5200
   87SLPC   C27 8373   0.710   5.819   3.292 -0.2561  0.4513  0.7904
   87SLPC   H7R 8374   0.602   5.798   3.273 -0.5672  0.4510  2.4359
   87SLPC   H7S 8375   0.738   5.925   3.274  2.0601  0.1098  2.0930
   87SLPC   C28 8376   0.749   5.781   3.435  0.1579 -0.2438 -0.1020
   87SLPC   H8R 8377   0.732   5.873   3.495 -0.4304 -0.6601  0.3892
   87SLPC   H8S 8378   0.860   5.779   3.439  0.2619 -1.5225 -1.9945
   87SLPC   C29 8379   0.670   5.662   3.494  0.0704  0.1431 -0.2815
   87SLPC   H9R 8380   0.597   5.610   3.430 -0.7831  0.2281  0.6022
   87SLPC  C210 8381   0.708   5.605   3.609  0.1193 -0.3779  0.0520
   87SLPC  H10R 8382   0.645   5.520   3.642  1.5844 -1.2020  0.8498
   87SLPC  C211 8383   0.817   5.646   3.704  0.3877  0.1845  0.1507
   87SLPC  H11R 8384   0.779   5.716   3.781  2.9421  1.4359  0.3848
   87SLPC  H11S 8385   0.896   5.691   3.640 -0.8592 -1.3263 -2.6550
   87SLPC  C212 8386   0.888   5.531   3.772  0.5530 -0.3892 -0.4060
   87SLPC  H12R 8387   0.989   5.502   3.739  0.7276 -0.0621 -0.1603
   87SLPC  C213 8388   0.841   5.472   3.887 -0.1210 -0.1387  0.0686
   87SLPC  H13R 8389   0.901   5.388   3.926  1.7838  0.2123 -1.9259
   87SLPC  C214 8390   0.717   5.502   3.970  0.2603  0.1806  0.3296
   87SLPC  H14R 8391   0.650   5.413   3.969 -2.8222  2.3255 -0.7136
   87SLPC  H14S 8392   0.656   5.588   3.934  1.2867  0.9262  0.3516
   87SLPC  C215 8393   0.762   5.527   4.111  0.9715 -0.6053  0.4482
   87SLPC  H15R 8394   0.828   5.615   4.128  2.6301 -1.2926 -1.8815
   87SLPC  H15S 8395   0.816   5.438   4.149  2.2453 -0.0589 -0.0352
   87SLPC  C216 8396   0.635   5.568   4.207  0.8420  0.4584 -0.1145
   87SLPC  H16R 8397   0.560   5.487   4.214 -0.8327  1.7848 -1.8664
   87SLPC  H16S 8398   0.580   5.658   4.171 -1.2086 -1.2133 -1.4006
   87SLPC  C217 8399   0.670   5.569   4.356 -0.0931 -0.1144 -0.0363
   87SLPC  H17R 8400   0.688   5.465   4.389 -0.3194  0.3355  1.6159
   87SLPC  H17S 8401   0.578   5.586   4.416 -1.8795 -3.0207 -1.7262
   87SLPC  C218 8402   0.772   5.669   4.407 -0.6917  0.3874  0.3483
   87SLPC  H18R 8403   0.869   5.629   4.371 -0.6493 -0.5615  1.4851
   87SLPC  H18S 8404   0.766   5.652   4.516 -1.0699 -0.8533  0.1507
   87SLPC  H18T 8405   0.751   5.777   4.387 -1.2513  0.7766  2.7564
   87SLPC   C33 8406   0.234   5.816   2.605 -0.1639  0.4435  0.1336
   87SLPC   H3X 8407   0.175   5.907   2.628  1.8710  2.1194 -0.9168
   87SLPC   H3Y 8408   0.340   5.836   2.577 -0.9525 -0.9561 -4.8860
   87SLPC   C34 8409   0.258   5.731   2.729 -0.0788  0.0635 -0.6181
   87SLPC   H4X 8410   0.338   5.655   2.718  0.9026  0.8282  0.8519
   87SLPC   H4Y 8411   0.165   5.678   2.760  0.7737 -0.5489  1.0684
   87SLPC   C35 8412   0.283   5.814   2.849 -0.5895  0.6121 -0.4379
   87SLPC   H5X 8413   0.233   5.912   2.860 -0.4812  0.4903  1.5045
   87SLPC   H5Y 8414   0.389   5.846   2.837 -0.0443 -0.9545 -0.1587
   87SLPC   C36 8415   0.255   5.743   2.978  0.4415  0.3366  0.2422
   87SLPC   H6X 8416   0.302   5.642   2.987 -1.6025 -0.6817  0.1805
   87SLPC   H6Y 8417   0.148   5.715   2.988  1.1128 -3.4178 -1.2076
   87SLPC   C37 8418   0.302   5.831   3.098  0.1801  0.1293  0.2475
   87SLPC   H7X 8419   0.252   5.930   3.088  1.8083  1.0685  0.9208
   87SLPC   H7Y 8420   0.410   5.857   3.084  0.5157 -2.0065 -1.7528
   87SLPC   C38 8421   0.275   5.774   3.235 -0.6290 -0.0752 -0.0780
   87SLPC   H8X 8422   0.337   5.684   3.258 -1.8336 -1.5352 -2.1956
   87SLPC   H8Y 8423   0.167   5.746   3.229 -0.4490 -0.7491 -0.3120
   87SLPC   C39 8424   0.319   5.874   3.343  0.8643 -0.0756 -0.8485
   87SLPC   H9X 8425   0.278   5.971   3.309  0.1604  0.4466  1.3142
   87SLPC   H9Y 8426   0.427   5.899   3.342  0.6291  0.9611 -1.3259
   87SLPC  C310 8427   0.264   5.845   3.484  0.2868 -0.5142  0.5440
   87SLPC  H10X 8428   0.161   5.808   3.469 -0.2335  1.0301  0.1297
   87SLPC  H10Y 8429   0.255   5.947   3.528 -0.1095 -1.2373  2.1943
   87SLPC  C311 8430   0.345   5.732   3.559 -0.4960 -0.4473  0.6277
   87SLPC  H11X 8431   0.438   5.786   3.588 -0.8643  0.0334  0.9310
   87SLPC  H11Y 8432   0.362   5.635   3.508 -2.7376 -0.2674 -0.6036
   87SLPC  C312 8433   0.274   5.684   3.687 -0.1961 -0.3865  0.2197
   87SLPC  H12X 8434   0.170   5.675   3.650  0.1324 -1.2436 -0.5183
   87SLPC  H12Y 8435   0.259   5.770   3.756 -0.4620 -0.8954  0.7961
   87SLPC  C313 8436   0.323   5.554   3.749  0.2768  0.1036 -0.3953
   87SLPC  H13X 8437   0.426   5.571   3.787  0.2948  0.0452 -0.4163
   87SLPC  H13Y 8438   0.325   5.470   3.676 -2.5843  2.1361 -3.0700
   87SLPC  C314 8439   0.234   5.519   3.862  0.0893  0.6185  0.2834
   87SLPC  H14X 8440   0.139   5.476   3.823  1.0753 -0.2172 -1.3341
   87SLPC  H14Y 8441   0.216   5.605   3.930  1.3299  0.8129  0.3755
   87SLPC  C315 8442   0.292   5.411   3.963 -0.3043 -0.7242  0.3669
   87SLPC  H15X 8443   0.382   5.452   4.014  0.5234  0.7911 -2.1082
   87SLPC  H15Y 8444   0.339   5.326   3.909  0.4776  1.0254 -1.9218
   87SLPC  C316 8445   0.185   5.378   4.063  0.0207  0.2211 -0.6873
   87SLPC  H16X 8446   0.096   5.368   3.997 -0.0211  0.9906 -0.7520
   87SLPC  H16Y 8447   0.184   5.471   4.124  1.5224 -0.7945  0.9966
   87SLPC  C317 8448   0.222   5.257   4.153  0.3483  0.1375  0.7036
   87SLPC  H17X 8449   0.325   5.266   4.194  1.4709  2.0864 -2.2012
   87SLPC  H17Y 8450   0.232   5.164   4.093 -0.8646 -0.1917  0.9875
   87SLPC  C318 8451   0.130   5.236   4.269 -0.0021 -0.9025 -0.6238
   87SLPC  H18X 8452   0.143   5.319   4.342 -1.4404  1.3854 -2.7746
   87SLPC  H18Y 8453   0.159   5.139   4.314 -0.7564 -1.4601 -1.3237
   87SLPC  H18Z 8454   0.020   5.223   4.256 -0.6124  0.7234  1.9976
   88SLPC     N 8455   1.258   4.126   2.260  0.0706  0.6955  0.0927
   88SLPC   C13 8456   1.221   4.091   2.115 -0.3896  0.2843  0.5796
   88SLPC  H13A 8457   1.219   4.181   2.055  0.5310 -0.4036 -0.5414
   88SLPC  H13B 8458   1.292   4.024   2.067 -0.2787  0.4602  0.4966
   88SLPC  H13C 8459   1.124   4.045   2.114 -0.2308 -0.0580  0.4316
   88SLPC   C14 8460   1.165   4.240   2.278  0.4938  0.8216 -0.3993
   88SLPC  H14A 8461   1.171   4.312   2.198  2.2179 -0.1343 -1.1923
   88SLPC  H14B 8462   1.061   4.211   2.286 -0.0364  2.5978 -0.5220
   88SLPC  H14C 8463   1.190   4.288   2.371  1.0375  0.6662 -0.4614
   88SLPC   C15 8464   1.399   4.169   2.267  0.0627 -0.6809 -0.5236
   88SLPC  H15A 8465   1.474   4.091   2.272 -0.9449 -1.6181  1.5607
   88SLPC  H15B 8466   1.420   4.220   2.175  1.7019  1.5171  0.9866
   88SLPC  H15C 8467   1.423   4.239   2.345  1.1615  0.5767 -1.9329
   88SLPC   C12 8468   1.246   4.010   2.360  0.1487 -0.5002  0.3521
   88SLPC  H12A 8469   1.283   4.035   2.458 -0.9622 -1.6621  1.1065
   88SLPC  H12B 8470   1.311   3.928   2.332 -0.1935 -0.2775 -1.1829
   88SLPC   C11 8471   1.101   3.948   2.381 -0.3861  0.2711 -0.0545
   88SLPC  H11A 8472   1.035   4.032   2.351  0.5573  0.8785 -0.4616
   88SLPC  H11B 8473   1.077   3.924   2.487 -1.3746  0.3038 -0.2580
   88SLPC     P 8474   1.134   3.702   2.302 -0.0738 -0.3108 -0.0494
   88SLPC   O13 8475   1.024   3.611   2.343  0.2601  0.4391  0.0842
   88SLPC   O14 8476   1.207   3.679   2.172 -0.1195 -0.1593  0.3428
   88SLPC   O12 8477   1.067   3.845   2.291  0.1161  0.5710  0.1580
   88SLPC   O11 8478   1.238   3.715   2.420 -0.0544  0.2745 -0.1214
   88SLPC    C1 8479   1.207   3.665   2.550 -0.1468  0.0881  0.1688
   88SLPC    HA 8480   1.233   3.737   2.630 -0.7527 -0.8527  1.2302
   88SLPC    HB 8481   1.099   3.646   2.564 -0.2647  0.8263  0.2740
   88SLPC    C2 8482   1.283   3.528   2.591  0.3610 -0.0969  0.6502
   88SLPC    HS 8483   1.245   3.490   2.688 -2.6402  0.9498 -0.0058
   88SLPC   O21 8484   1.428   3.559   2.597 -0.5930  0.3758  0.0740
   88SLPC   C21 8485   1.463   3.603   2.714 -0.0048 -0.3226 -0.3174
   88SLPC   O22 8486   1.380   3.622   2.807 -0.2463 -0.1491 -0.5401
   88SLPC   C22 8487   1.616   3.616   2.730  0.9442 -0.2928  0.0950
   88SLPC   H2R 8488   1.646   3.519   2.776  1.8567  0.4205  1.0508
   88SLPC   H2S 8489   1.661   3.630   2.630 -1.5615  1.2143 -0.9286
   88SLPC    C3 8490   1.258   3.410   2.483 -0.4720 -0.0498  0.7276
   88SLPC    HX 8491   1.292   3.464   2.392  0.7813 -1.8629  0.0708
   88SLPC    HY 8492   1.150   3.387   2.477 -0.3754 -0.1844 -0.7433
   88SLPC   O31 8493   1.328   3.289   2.514 -0.7266 -0.1692 -0.0297
   88SLPC   C31 8494   1.440   3.264   2.452 -0.9436  0.7816  0.2733
   88SLPC   O32 8495   1.504   3.330   2.368 -0.5825  0.2721 -0.3936
   88SLPC   C32 8496   1.497   3.135   2.505  0.0409 -0.2732 -0.1769
   88SLPC   H2X 8497   1.580   3.106   2.437  1.3335 -0.1316  1.2954
   88SLPC   H2Y 8498   1.422   3.053   2.503 -0.7234  0.4086  0.3198
   88SLPC   C23 8499   1.650   3.733   2.816 -0.0199  0.1229  0.0830
   88SLPC   H3R 8500   1.609   3.702   2.915  0.3050  0.5018  0.3363
   88SLPC   H3S 8501   1.610   3.831   2.782  0.4373  1.7306  3.7071
   88SLPC   C24 8502   1.797   3.745   2.826  0.1657 -0.8791  0.0534
   88SLPC   H4R 8503   1.823   3.849   2.855  1.4733 -0.8202 -1.2267
   88SLPC   H4S 8504   1.842   3.724   2.726 -2.0927 -1.5257 -0.8885
   88SLPC   C25 8505   1.856   3.634   2.919  0.1772 -0.0663 -0.3069
   88SLPC   H5R 8506   1.959   3.672   2.936  0.2754 -1.1937  2.1824
   88SLPC   H5S 8507   1.859   3.528   2.886 -0.0397 -0.9340  2.2072
   88SLPC   C26 8508   1.791   3.635   3.060 -0.7190  0.3104 -0.2437
   88SLPC   H6R 8509   1.719   3.551   3.055 -1.5908  1.0926 -1.3703
   88SLPC   H6S 8510   1.737   3.732   3.061 -0.1320  0.6614  1.7312
   88SLPC   C27 8511   1.879   3.634   3.187 -1.1219  0.1398  0.4500
   88SLPC   H7R 8512   1.956   3.714   3.189 -1.3478  0.4795 -1.7690
   88SLPC   H7S 8513   1.944   3.544   3.179  0.6661  1.4929 -0.7332
   88SLPC   C28 8514   1.788   3.666   3.314  0.1121 -0.2877  0.2293
   88SLPC   H8R 8515   1.739   3.573   3.350 -0.6223 -0.7675 -1.9084
   88SLPC   H8S 8516   1.713   3.735   3.272  0.4935  0.0246  0.0506
   88SLPC   C29 8517   1.869   3.744   3.422  0.2853  0.4750  0.5479
   88SLPC   H9R 8518   1.890   3.844   3.382  0.3786  0.0785 -0.4287
   88SLPC  C210 8519   1.906   3.705   3.547  0.5382 -0.3220  0.5641
   88SLPC  H10R 8520   1.964   3.776   3.609  1.1149  1.4025 -1.8022
   88SLPC  C211 8521   1.873   3.582   3.620  0.5404  1.0157 -0.3406
   88SLPC  H11R 8522   1.908   3.586   3.725  0.4352  0.3494 -0.2785
   88SLPC  H11S 8523   1.917   3.495   3.566  2.1026  1.0587  0.7924
   88SLPC  C212 8524   1.721   3.550   3.628  0.3567 -0.0543  0.9660
   88SLPC  H12R 8525   1.672   3.542   3.529 -2.4286 -1.4514  2.3429
   88SLPC  C213 8526   1.651   3.519   3.736 -0.1464 -0.3621 -0.2114
   88SLPC  H13R 8527   1.543   3.519   3.718 -0.2069 -0.4902  0.1355
   88SLPC  C214 8528   1.704   3.512   3.879  0.6714 -0.4130  0.5072
   88SLPC  H14R 8529   1.798   3.453   3.884 -0.3154 -1.9280  1.6689
   88SLPC  H14S 8530   1.645   3.445   3.945 -0.2137 -0.7168 -0.5589
   88SLPC  C215 8531   1.723   3.643   3.951  0.4596 -0.0661  0.6100
   88SLPC  H15R 8532   1.628   3.701   3.941 -0.4362 -1.4721  0.6610
   88SLPC  H15S 8533   1.808   3.692   3.899  1.2656 -0.6780  1.3440
   88SLPC  C216 8534   1.728   3.636   4.105 -0.0797  0.0596  0.2303
   88SLPC  H16R 8535   1.806   3.559   4.120  0.0492 -0.2649 -1.9037
   88SLPC  H16S 8536   1.632   3.609   4.153 -0.5713  0.6089 -0.4237
   88SLPC  C217 8537   1.778   3.762   4.176  0.1966  0.0675  0.2379
   88SLPC  H17R 8538   1.704   3.845   4.169 -0.4099 -0.4464  0.4240
   88SLPC  H17S 8539   1.863   3.808   4.122 -1.0482  3.0189  0.5488
   88SLPC  C218 8540   1.828   3.730   4.323  0.1581  0.6230  0.3545
   88SLPC  H18R 8541   1.739   3.715   4.388 -0.9319  2.1833 -0.7146
   88SLPC  H18S 8542   1.883   3.821   4.356  1.7183  0.0154 -0.4507
   88SLPC  H18T 8543   1.893   3.640   4.332 -0.4892  0.2948  2.2909
   88SLPC   C33 8544   1.569   3.152   2.640  0.2382 -0.3190  0.2677
   88SLPC   H3X 8545   1.604   3.057   2.685  2.6639  0.5172  0.3011
   88SLPC   H3Y 8546   1.504   3.202   2.715  1.9602 -0.7368  2.1277
   88SLPC   C34 8547   1.684   3.251   2.636 -0.6746 -0.2448  0.0655
   88SLPC   H4X 8548   1.639   3.352   2.629 -0.2194  0.0402  1.0208
   88SLPC   H4Y 8549   1.739   3.223   2.544  0.4262 -1.4658  1.0588
   88SLPC   C35 8550   1.787   3.247   2.753 -0.8301  0.3315 -1.1038
   88SLPC   H5X 8551   1.821   3.352   2.759  0.8019 -0.2354  0.6966
   88SLPC   H5Y 8552   1.874   3.183   2.724 -2.1471 -1.1748 -1.9056
   88SLPC   C36 8553   1.742   3.203   2.895  0.4171  0.8377 -0.0263
   88SLPC   H6X 8554   1.709   3.097   2.896  0.7350  0.7432  1.0559
   88SLPC   H6Y 8555   1.658   3.273   2.915 -0.1692  0.8046 -2.1450
   88SLPC   C37 8556   1.853   3.215   2.993  0.4116 -0.5541  0.0413
   88SLPC   H7X 8557   1.903   3.312   2.975 -1.2873  0.5178  0.8319
   88SLPC   H7Y 8558   1.926   3.136   2.967  0.0867 -0.8342 -0.0325
   88SLPC   C38 8559   1.802   3.193   3.134 -0.0829 -0.6301  0.2430
   88SLPC   H8X 8560   1.773   3.086   3.134 -2.2824 -0.1329 -1.9296
   88SLPC   H8Y 8561   1.710   3.255   3.137 -0.9294 -1.7512 -1.0628
   88SLPC   C39 8562   1.907   3.242   3.237  0.3165 -0.7058  0.2345
   88SLPC   H9X 8563   1.931   3.350   3.227 -2.5411  0.4920  4.1169
   88SLPC   H9Y 8564   2.002   3.188   3.216  0.1826 -0.2198 -1.8867
   88SLPC  C310 8565   1.862   3.191   3.371  0.2403  0.1046  0.7036
   88SLPC  H10X 8566   1.836   3.084   3.364 -0.5733  0.2285  1.5859
   88SLPC  H10Y 8567   1.765   3.237   3.401 -1.2991 -1.7369 -1.1763
   88SLPC  C311 8568   1.969   3.210   3.483  0.1413  0.5394  0.1788
   88SLPC  H11X 8569   2.018   3.309   3.470 -1.8113  1.3839 -1.2325
   88SLPC  H11Y 8570   2.052   3.143   3.453 -0.6543 -0.8032  0.8780
   88SLPC  C312 8571   1.908   3.192   3.623  0.3589  0.0953  0.4563
   88SLPC  H12X 8572   1.862   3.091   3.626  0.3348 -0.0320 -2.0418
   88SLPC  H12Y 8573   1.820   3.257   3.644  0.6614  0.6000  0.1866
   88SLPC  C313 8574   2.004   3.214   3.741 -0.3910  0.2590 -0.0693
   88SLPC  H13X 8575   2.039   3.318   3.758 -0.2135  0.1085  0.5105
   88SLPC  H13Y 8576   2.094   3.155   3.712  0.0898  1.0139 -0.1407
   88SLPC  C314 8577   1.948   3.146   3.866  0.0503  0.2209  0.6486
   88SLPC  H14X 8578   1.907   3.045   3.843  1.0769 -0.2882  1.0115
   88SLPC  H14Y 8579   1.861   3.204   3.902  1.4807  2.0846  1.2193
   88SLPC  C315 8580   2.046   3.133   3.979 -0.3576 -0.6247 -0.2260
   88SLPC  H15X 8581   2.103   3.226   3.999 -0.6157 -0.3906 -0.5657
   88SLPC  H15Y 8582   2.123   3.053   3.968  0.1658 -0.2872  0.9222
   88SLPC  C316 8583   1.962   3.102   4.109  0.1546  0.0318 -0.6531
   88SLPC  H16X 8584   1.914   3.194   4.150 -0.3718 -0.3406 -0.4271
   88SLPC  H16Y 8585   2.046   3.078   4.177 -0.7636  1.7432  1.2128
   88SLPC  C317 8586   1.860   2.981   4.101 -0.0441 -0.1458 -0.8755
   88SLPC  H17X 8587   1.906   2.896   4.045 -0.6959 -0.8053 -0.4231
   88SLPC  H17Y 8588   1.756   2.996   4.065 -0.4231 -2.5392 -0.9064
   88SLPC  C318 8589   1.832   2.924   4.239 -0.2290  0.1817  0.5288
   88SLPC  H18X 8590   1.930   2.898   4.284 -0.1545 -0.7441 -0.1207
   88SLPC  H18Y 8591   1.763   2.837   4.249 -0.6550  0.6941  2.3624
   88SLPC  H18Z 8592   1.772   2.995   4.299 -0.2773  0.1677  0.4978
   89SAPE     N 8593   0.290   3.222   6.764  0.2950 -0.0708  0.0125
   89SAPE   HN1 8594   0.242   3.135   6.797  1.0164 -1.1563 -1.7019
   89SAPE   HN2 8595   0.368   3.186   6.706 -1.5283 -2.6933 -1.0049
   89SAPE   HN3 8596   0.326   3.282   6.841  1.1192 -0.2268 -0.2482
   89SAPE   C12 8597   0.196   3.307   6.684 -0.9106 -0.2542  0.2114
   89SAPE  H12A 8598   0.247   3.406   6.684  1.7898 -1.5056  1.9838
   89SAPE  H12B 8599   0.099   3.315   6.738 -1.7327 -2.3642 -0.8610
   89SAPE   C11 8600   0.172   3.249   6.543  0.2564 -0.6053  0.1790
   89SAPE  H11A 8601   0.262   3.277   6.485 -1.2223 -0.5341 -2.2198
   89SAPE  H11B 8602   0.093   3.297   6.482  1.2742 -0.2928 -0.9272
   89SAPE     P 8603   0.047   3.018   6.567 -0.1098 -0.2281 -0.3365
   89SAPE   O13 8604  -0.004   3.036   6.702  0.0324 -0.1351 -0.3181
   89SAPE   O14 8605  -0.050   3.049   6.464  0.5578 -0.6334  0.8292
   89SAPE   O12 8606   0.167   3.110   6.543 -0.2323 -0.0023  0.3198
   89SAPE   O11 8607   0.114   2.877   6.551 -0.5084  1.1521  0.0999
   89SAPE    C1 8608   0.249   2.852   6.504  0.3149  0.0942 -0.5286
   89SAPE    HA 8609   0.319   2.936   6.524 -0.0183  1.2523 -3.6013
   89SAPE    HB 8610   0.271   2.754   6.552 -1.1493  0.4883  1.0473
   89SAPE    C2 8611   0.250   2.822   6.353  0.8645  0.6069 -0.0814
   89SAPE    HS 8612   0.351   2.792   6.319  0.8780 -0.2512  0.6673
   89SAPE   O21 8613   0.200   2.932   6.277 -0.2322  0.2620 -0.2305
   89SAPE   C21 8614   0.293   3.029   6.268 -0.3713 -0.7410 -0.0150
   89SAPE   O22 8615   0.409   3.024   6.299 -0.2130 -0.6620  0.1753
   89SAPE   C22 8616   0.237   3.161   6.204 -0.7880  0.4668 -0.2381
   89SAPE   H2R 8617   0.126   3.152   6.203 -0.6880 -0.9017 -1.6135
   89SAPE   H2S 8618   0.262   3.249   6.267  0.9552  0.7132 -1.2233
   89SAPE    C3 8619   0.151   2.696   6.335  0.0342 -0.3049 -0.3647
   89SAPE    HX 8620   0.053   2.735   6.369 -0.1799 -0.8404 -0.3595
   89SAPE    HY 8621   0.171   2.618   6.411 -0.9560 -0.3992 -0.1906
   89SAPE   O31 8622   0.134   2.641   6.207 -0.0934  0.7910  0.5894
   89SAPE   C31 8623   0.239   2.617   6.124  0.1803 -0.2485 -0.8049
   89SAPE   O32 8624   0.357   2.607   6.165  0.4123 -0.0610  0.6327
   89SAPE   C32 8625   0.187   2.602   5.983 -0.7097 -0.0378 -0.7244
   89SAPE   H2X 8626   0.142   2.700   5.956 -1.6852  0.2831  1.7684
   89SAPE   H2Y 8627   0.111   2.523   5.969 -0.0909 -0.3502 -2.5352
   89SAPE   C23 8628   0.298   3.184   6.058  0.2984 -0.3730 -0.1985
   89SAPE   H3R 8629   0.408   3.202   6.059  0.1151  1.4603 -3.2056
   89SAPE   H3S 8630   0.250   3.279   6.025  3.5802  2.1863  1.6983
   89SAPE   C24 8631   0.274   3.079   5.953  1.1503  0.8160 -0.1160
   89SAPE   H4R 8632   0.322   2.984   5.984 -0.8952 -0.2302  0.0371
   89SAPE   H4S 8633   0.317   3.108   5.856 -1.9712  2.6142 -1.1220
   89SAPE   C25 8634   0.128   3.035   5.943 -0.4865 -0.4446 -0.1881
   89SAPE   H5R 8635   0.067   3.046   6.034 -3.3442  1.7389 -2.1925
   89SAPE   C26 8636   0.077   2.982   5.833 -0.1128  0.5258 -0.3142
   89SAPE   H6R 8637  -0.021   2.932   5.842  1.0494 -1.4619  3.2710
   89SAPE   C27 8638   0.144   2.953   5.704 -0.1170 -0.7979  0.4344
   89SAPE   H7R 8639   0.081   2.885   5.642 -4.3301  0.5403  2.8538
   89SAPE   H7S 8640   0.235   2.895   5.730 -0.0776 -0.6065  0.7261
   89SAPE   C28 8641   0.180   3.075   5.620  0.3790 -0.0750 -0.3352
   89SAPE   H8R 8642   0.147   3.174   5.655  0.0833 -0.2622 -0.0699
   89SAPE   C29 8643   0.238   3.077   5.503 -0.2555 -0.2828 -0.3124
   89SAPE   H9R 8644   0.255   3.179   5.466 -1.4582  0.5475  1.3143
   89SAPE  C210 8645   0.263   2.965   5.412 -0.2675  0.6475  0.3645
   89SAPE  H10R 8646   0.291   2.877   5.473 -2.1588 -1.6210 -1.8085
   89SAPE  H10S 8647   0.340   2.994   5.338 -2.6057  2.1227 -1.6391
   89SAPE  C211 8648   0.133   2.938   5.332 -1.2423  0.2708  0.3346
   89SAPE  H11R 8649   0.041   2.911   5.386  0.3718 -3.5656  1.5231
   89SAPE  C212 8650   0.123   2.934   5.195 -0.1413 -0.1269  0.3069
   89SAPE  H12R 8651   0.021   2.919   5.158  0.1165 -2.6574  0.4569
   89SAPE  C213 8652   0.234   2.987   5.098  0.3695 -0.1235 -0.1834
   89SAPE  H13R 8653   0.331   2.939   5.121  1.3585  0.3833 -2.8439
   89SAPE  H13S 8654   0.247   3.096   5.118  0.7867 -0.5109  1.8891
   89SAPE  C214 8655   0.207   2.953   4.951 -0.6296  0.6471 -0.8026
   89SAPE  H14R 8656   0.146   2.861   4.945 -0.5909  0.5501  0.1109
   89SAPE  C215 8657   0.232   3.022   4.841 -0.0535 -0.2255 -0.4573
   89SAPE  H15R 8658   0.196   2.985   4.744 -1.4448  2.6165 -1.1244
   89SAPE  C216 8659   0.309   3.152   4.838  0.1547  0.1931 -0.4800
   89SAPE  H16R 8660   0.382   3.155   4.922  0.5663  2.1613 -0.8543
   89SAPE  H16S 8661   0.233   3.228   4.864  0.4856  1.0401 -1.8809
   89SAPE  C217 8662   0.364   3.187   4.699  0.0532  0.3034 -0.5729
   89SAPE  H17R 8663   0.406   3.290   4.700  0.6976  0.0885 -1.9497
   89SAPE  H17S 8664   0.283   3.187   4.623  0.8936  0.6795 -1.5033
   89SAPE  C218 8665   0.473   3.095   4.644 -0.2100  0.4405  0.0812
   89SAPE  H18R 8666   0.531   3.055   4.730  0.4061 -0.0051 -0.5358
   89SAPE  H18S 8667   0.543   3.156   4.583  0.0568 -1.3941 -1.5257
   89SAPE  C219 8668   0.418   2.979   4.556  1.0777 -0.1866 -0.0208
   89SAPE  H19R 8669   0.372   3.017   4.462  0.0524 -0.6156  0.2893
   89SAPE  H19S 8670   0.340   2.924   4.612 -0.0414  0.9682 -0.3840
   89SAPE  C220 8671   0.528   2.881   4.530 -0.3587 -0.1214 -0.2531
   89SAPE  H20R 8672   0.498   2.794   4.467  1.0397 -2.6256  2.3297
   89SAPE  H20S 8673   0.554   2.835   4.627  0.6328 -0.7898 -0.8241
   89SAPE  H20T 8674   0.612   2.938   4.485 -0.0817 -0.5088 -0.2317
   89SAPE   C33 8675   0.306   2.561   5.890  0.2805 -0.4078  0.1865
   89SAPE   H3X 8676   0.320   2.455   5.917  2.0042 -0.9953 -2.6590
   89SAPE   H3Y 8677   0.403   2.612   5.910 -0.2353  0.3158  0.9411
   89SAPE   C34 8678   0.262   2.573   5.738 -0.2279  0.8167 -0.1595
   89SAPE   H4X 8679   0.224   2.677   5.726 -1.0900  0.4475 -0.7685
   89SAPE   H4Y 8680   0.162   2.525   5.722 -0.4235  0.2256  2.2950
   89SAPE   C35 8681   0.364   2.524   5.635 -0.4327 -0.1270  0.8746
   89SAPE   H5X 8682   0.396   2.421   5.661 -0.3904 -0.1398  0.7756
   89SAPE   H5Y 8683   0.458   2.581   5.645  1.4458 -1.6304 -4.5172
   89SAPE   C36 8684   0.320   2.525   5.489  0.3300  0.0973  0.2828
   89SAPE   H6X 8685   0.284   2.627   5.464 -2.1489 -0.8473 -0.2875
   89SAPE   H6Y 8686   0.242   2.447   5.479 -1.3711  1.8561 -0.6869
   89SAPE   C37 8687   0.439   2.501   5.390  0.0494 -0.2085 -0.0946
   89SAPE   H7X 8688   0.498   2.410   5.418  1.6259  0.8493  0.1579
   89SAPE   H7Y 8689   0.507   2.588   5.393 -0.6097  0.3432 -0.7551
   89SAPE   C38 8690   0.391   2.471   5.249  0.0678  0.2431 -0.2547
   89SAPE   H8X 8691   0.304   2.539   5.230  0.1644 -0.1037 -2.1717
   89SAPE   H8Y 8692   0.344   2.371   5.258  0.2045 -0.1539 -2.9548
   89SAPE   C39 8693   0.500   2.495   5.148  0.6207  0.3577  0.1471
   89SAPE   H9X 8694   0.581   2.424   5.173 -0.3233 -0.4925  0.8731
   89SAPE   H9Y 8695   0.533   2.601   5.158 -1.6285  1.2577 -1.1920
   89SAPE  C310 8696   0.472   2.491   4.998  0.5553  0.3332  0.3410
   89SAPE  H10X 8697   0.384   2.555   4.971  2.1364  2.2232 -0.5982
   89SAPE  H10Y 8698   0.445   2.386   4.974  0.0360  0.8083 -1.2854
   89SAPE  C311 8699   0.593   2.537   4.915  0.1201  0.0699  0.3176
   89SAPE  H11X 8700   0.680   2.480   4.953  0.3870  0.5566  0.4432
   89SAPE  H11Y 8701   0.600   2.647   4.933  0.7170 -0.0286  0.6962
   89SAPE  C312 8702   0.581   2.522   4.765  0.1535  0.4597 -0.0115
   89SAPE  H12X 8703   0.656   2.592   4.721  0.6467  0.7171  1.2111
   89SAPE  H12Y 8704   0.487   2.575   4.739  0.1658 -0.1702 -1.4382
   89SAPE  C313 8705   0.574   2.372   4.725  0.2626  0.0384  0.5672
   89SAPE  H13X 8706   0.484   2.322   4.763  0.1462 -1.1049 -1.0994
   89SAPE  H13Y 8707   0.656   2.311   4.768 -0.1805 -0.2223  1.0442
   89SAPE  C314 8708   0.570   2.363   4.568  0.1999 -0.6654 -0.5092
   89SAPE  H14X 8709   0.476   2.402   4.525 -0.6536 -2.7556 -0.6442
   89SAPE  H14Y 8710   0.570   2.255   4.541  0.3019 -1.0498  0.9654
   89SAPE  C315 8711   0.692   2.425   4.499  0.6481  1.5072  0.0235
   89SAPE  H15X 8712   0.775   2.403   4.569  0.7359 -0.8395 -0.7299
   89SAPE  H15Y 8713   0.676   2.534   4.485  0.9111  1.6722  0.9788
   89SAPE  C316 8714   0.732   2.355   4.361  0.7049  0.3032  0.0446
   89SAPE  H16X 8715   0.730   2.244   4.368 -3.0658  0.1437 -1.2372
   89SAPE  H16Y 8716   0.835   2.394   4.342  0.9279 -0.3924 -0.2065
   89SAPE  C317 8717   0.626   2.388   4.240 -0.7357  0.7364  0.0511
   89SAPE  H17X 8718   0.566   2.296   4.225  1.3745 -0.8681  1.0077
   89SAPE  H17Y 8719   0.685   2.393   4.146  1.4667 -0.9147  1.2779
   89SAPE  C318 8720   0.566   2.528   4.260  0.3813  0.0761 -0.2149
   89SAPE  H18X 8721   0.644   2.604   4.284 -0.5285  0.3260  2.3167
   89SAPE  H18Y 8722   0.503   2.529   4.352  3.6512 -2.1926  2.2873
   89SAPE  H18Z 8723   0.504   2.550   4.171  0.1537 -0.6264 -0.2363
   90SAPE     N 8724   3.658   2.281   7.011  0.2768 -0.2954 -0.1313
   90SAPE   HN1 8725   3.739   2.308   7.071  0.0418 -3.5390  1.8344
   90SAPE   HN2 8726   3.605   2.367   6.983  2.9302  1.1228 -1.2281
   90SAPE   HN3 8727   3.592   2.231   7.073 -0.2705  1.4247  0.7452
   90SAPE   C12 8728   3.684   2.207   6.891  0.3665 -1.0997  0.5329
   90SAPE  H12A 8729   3.758   2.129   6.918  1.8853  0.4414  1.0010
   90SAPE  H12B 8730   3.732   2.273   6.815 -0.7308 -1.6296 -0.6517
   90SAPE   C11 8731   3.555   2.157   6.821  0.5829  0.0426  0.1621
   90SAPE  H11A 8732   3.586   2.101   6.731  0.8672 -0.5536  0.6241
   90SAPE  H11B 8733   3.491   2.239   6.782  0.8603 -0.3884 -1.2604
   90SAPE     P 8734   3.345   1.980   6.847 -0.0793  0.3454  0.0400
   90SAPE   O13 8735   3.281   1.931   6.975  0.1674  0.2202  0.0876
   90SAPE   O14 8736   3.272   2.064   6.750 -0.1152  0.5016  0.3419
   90SAPE   O12 8737   3.478   2.071   6.904  1.3481  0.0716  0.0376
   90SAPE   O11 8738   3.420   1.863   6.779  0.3965  0.3852  0.9129
   90SAPE    C1 8739   3.448   1.852   6.636  0.7570  0.2453 -0.2432
   90SAPE    HA 8740   3.436   1.947   6.580  0.0606  1.6845  2.2145
   90SAPE    HB 8741   3.554   1.820   6.623  0.7422 -0.5599  1.4225
   90SAPE    C2 8742   3.354   1.749   6.562 -0.5353 -0.2977  0.6114
   90SAPE    HS 8743   3.251   1.792   6.568  0.1404  1.2011  2.2471
   90SAPE   O21 8744   3.352   1.623   6.628  0.0549  0.7663  0.2895
   90SAPE   C21 8745   3.241   1.548   6.620  1.0467 -0.4280  0.0521
   90SAPE   O22 8746   3.136   1.595   6.576  0.2361  0.4910 -0.1716
   90SAPE   C22 8747   3.256   1.421   6.695 -0.3509 -0.6211  0.4355
   90SAPE   H2R 8748   3.354   1.410   6.745 -0.5436  0.5086  1.0913
   90SAPE   H2S 8749   3.174   1.425   6.771 -1.0871 -4.0489 -0.0131
   90SAPE    C3 8750   3.405   1.735   6.417 -0.2684 -0.4421  0.7962
   90SAPE    HX 8751   3.337   1.664   6.367 -0.1627  0.1045 -0.1529
   90SAPE    HY 8752   3.501   1.679   6.416 -1.0999 -2.1555  3.7681
   90SAPE   O31 8753   3.411   1.858   6.338 -0.2268  0.3987 -0.8248
   90SAPE   C31 8754   3.296   1.892   6.280 -0.1316 -0.8814 -0.3166
   90SAPE   O32 8755   3.188   1.838   6.304  0.0924 -0.5960  0.3134
   90SAPE   C32 8756   3.319   2.014   6.188 -0.4625 -0.8892 -0.3002
   90SAPE   H2X 8757   3.309   2.108   6.245 -2.0488 -1.1989 -0.0404
   90SAPE   H2Y 8758   3.229   2.006   6.124 -0.2657 -0.1978 -0.6648
   90SAPE   C23 8759   3.221   1.295   6.610 -0.0143  0.0288 -0.0763
   90SAPE   H3R 8760   3.126   1.300   6.553 -0.2148  3.3682  0.3251
   90SAPE   H3S 8761   3.208   1.218   6.688 -1.3585 -0.6845 -0.9552
   90SAPE   C24 8762   3.338   1.250   6.525  0.4852  0.4379 -0.1731
   90SAPE   H4R 8763   3.322   1.142   6.504 -0.2673  0.9665 -2.5971
   90SAPE   H4S 8764   3.430   1.269   6.584  1.3037 -1.0476 -0.9099
   90SAPE   C25 8765   3.360   1.314   6.389 -0.0626 -0.4793 -1.0876
   90SAPE   H5R 8766   3.409   1.412   6.384  0.4987 -0.5779  1.4034
   90SAPE   C26 8767   3.307   1.267   6.276  0.1721  0.1628  0.6275
   90SAPE   H6R 8768   3.322   1.328   6.186 -0.5692 -1.5484 -0.7126
   90SAPE   C27 8769   3.220   1.139   6.253  0.2987  0.0764 -0.2947
   90SAPE   H7R 8770   3.124   1.144   6.307  0.7538  0.8624  0.4511
   90SAPE   H7S 8771   3.280   1.069   6.315 -0.4849  0.5034  0.9716
   90SAPE   C28 8772   3.204   1.070   6.121 -0.1150  0.2376  0.2509
   90SAPE   H8R 8773   3.252   0.972   6.106 -2.8286 -1.5233  2.1799
   90SAPE   C29 8774   3.127   1.118   6.026 -0.3726  0.4798  0.3398
   90SAPE   H9R 8775   3.098   1.055   5.940  0.7112 -1.2169  1.1522
   90SAPE  C210 8776   3.051   1.249   6.034 -0.1492  0.3105 -0.6480
   90SAPE  H10R 8777   3.122   1.328   6.003 -0.8894  0.8770 -0.9433
   90SAPE  H10S 8778   3.024   1.269   6.140 -0.2011 -0.8290 -0.4328
   90SAPE  C211 8779   2.919   1.241   5.958  0.2571 -0.6816  0.8108
   90SAPE  H11R 8780   2.822   1.247   6.009  0.4075  1.5848  0.8953
   90SAPE  C212 8781   2.902   1.232   5.826  0.2431 -0.7132 -0.3637
   90SAPE  H12R 8782   2.801   1.222   5.784  0.7714 -2.6949 -1.2939
   90SAPE  C213 8783   3.012   1.254   5.720  0.1352 -0.0174 -0.2336
   90SAPE  H13R 8784   3.114   1.256   5.765  0.4679  2.7654 -0.9060
   90SAPE  H13S 8785   2.993   1.354   5.675 -1.0830 -1.1697 -2.4349
   90SAPE  C214 8786   2.999   1.155   5.606  0.0272 -0.8369  0.4988
   90SAPE  H14R 8787   3.013   1.048   5.629 -2.2426 -1.8585 -2.2809
   90SAPE  C215 8788   2.972   1.185   5.474 -0.5625  0.4036  0.0628
   90SAPE  H15R 8789   2.972   1.094   5.413  1.3013  0.4994 -0.1455
   90SAPE  C216 8790   2.933   1.315   5.414 -0.4246 -0.2536  0.3258
   90SAPE  H16R 8791   2.986   1.331   5.318  1.7330 -4.6327  0.5381
   90SAPE  H16S 8792   2.972   1.395   5.481  0.7419  0.8925 -1.6229
   90SAPE  C217 8793   2.779   1.322   5.392 -0.4688 -0.3975  1.0161
   90SAPE  H17R 8794   2.724   1.339   5.486 -0.9546 -1.8530  1.0154
   90SAPE  H17S 8795   2.743   1.226   5.349 -0.9938  1.1940 -2.4805
   90SAPE  C218 8796   2.725   1.428   5.295  0.4357  0.1883 -1.0248
   90SAPE  H18R 8797   2.773   1.519   5.338  1.9830 -1.1322  0.1539
   90SAPE  H18S 8798   2.614   1.433   5.300  0.4434  0.7425 -1.3591
   90SAPE  C219 8799   2.769   1.406   5.156  0.1194  1.1012  0.3600
   90SAPE  H19R 8800   2.721   1.312   5.121  0.8251  0.3444  1.3887
   90SAPE  H19S 8801   2.879   1.395   5.155  0.2254  1.9126 -2.0327
   90SAPE  C220 8802   2.731   1.525   5.074 -0.2909 -0.3452 -0.0076
   90SAPE  H20R 8803   2.622   1.544   5.073 -0.0864  1.5045  2.3352
   90SAPE  H20S 8804   2.757   1.506   4.967 -0.3849  2.6993 -0.6727
   90SAPE  H20T 8805   2.781   1.620   5.104  1.2066  0.1373 -3.5061
   90SAPE   C33 8806   3.457   2.024   6.109 -0.1938 -0.6365  0.4037
   90SAPE   H3X 8807   3.459   1.937   6.040 -3.0976  0.8971 -1.8311
   90SAPE   H3Y 8808   3.542   2.012   6.180  0.6394  1.6725 -0.1269
   90SAPE   C34 8809   3.463   2.167   6.048  1.2861  0.2266 -0.0056
   90SAPE   H4X 8810   3.566   2.184   6.009  0.7331 -2.0966 -2.8749
   90SAPE   H4Y 8811   3.440   2.237   6.131 -0.2055  0.0405 -0.2418
   90SAPE   C35 8812   3.379   2.184   5.921  0.3751 -0.6988 -0.2074
   90SAPE   H5X 8813   3.278   2.141   5.939  0.4893 -1.7310 -1.8449
   90SAPE   H5Y 8814   3.415   2.128   5.832 -1.5477  0.7673 -2.0160
   90SAPE   C36 8815   3.380   2.328   5.879  0.0906 -0.4307  0.1015
   90SAPE   H6X 8816   3.479   2.366   5.846 -0.8545  2.6122  0.3899
   90SAPE   H6Y 8817   3.352   2.396   5.962  0.5729  0.8379 -0.7288
   90SAPE   C37 8818   3.285   2.358   5.758 -0.4452  0.3964  0.6493
   90SAPE   H7X 8819   3.189   2.319   5.796 -0.3776 -0.7390 -0.2951
   90SAPE   H7Y 8820   3.313   2.301   5.667 -2.3832 -1.0392  0.8955
   90SAPE   C38 8821   3.293   2.512   5.732  1.0004 -0.6188  0.0835
   90SAPE   H8X 8822   3.398   2.545   5.716  2.0128 -1.1031  4.3986
   90SAPE   H8Y 8823   3.240   2.558   5.819  0.4298 -1.6961  0.3328
   90SAPE   C39 8824   3.198   2.545   5.614 -0.0158  0.5964 -0.0066
   90SAPE   H9X 8825   3.096   2.527   5.655  0.6259 -0.3121  1.2481
   90SAPE   H9Y 8826   3.204   2.467   5.536 -0.0190  2.4240 -1.9190
   90SAPE  C310 8827   3.229   2.678   5.548  0.4487 -0.6252  0.3283
   90SAPE  H10X 8828   3.338   2.683   5.529 -0.0349  3.2855 -3.0276
   90SAPE  H10Y 8829   3.214   2.766   5.615 -0.5160 -0.2580 -0.3440
   90SAPE  C311 8830   3.143   2.715   5.426  0.5082  0.5566 -0.4464
   90SAPE  H11X 8831   3.166   2.641   5.347 -0.2127  1.6740 -1.7524
   90SAPE  H11Y 8832   3.181   2.813   5.389  0.7095  0.9146  0.6668
   90SAPE  C312 8833   2.993   2.730   5.462  0.0381  0.0154  0.5546
   90SAPE  H12X 8834   2.948   2.645   5.517  0.4977  0.7362  2.0744
   90SAPE  H12Y 8835   2.933   2.737   5.368 -0.4415  2.4440  0.9797
   90SAPE  C313 8836   2.956   2.850   5.549 -0.0372  0.3746 -1.2607
   90SAPE  H13X 8837   3.025   2.850   5.636 -0.0978 -0.2418 -1.2108
   90SAPE  H13Y 8838   2.853   2.836   5.590  1.0460 -0.7193  1.2856
   90SAPE  C314 8839   2.962   2.986   5.479  0.1344  0.1890 -0.6311
   90SAPE  H14X 8840   3.045   2.979   5.406  2.0752  1.5162  1.3360
   90SAPE  H14Y 8841   2.994   3.067   5.549 -1.3136 -0.9540  1.4865
   90SAPE  C315 8842   2.823   3.036   5.447 -0.0757  0.0442 -0.5078
   90SAPE  H15X 8843   2.763   3.081   5.528  1.0335 -0.1093  0.4283
   90SAPE  H15Y 8844   2.769   2.943   5.418  4.2872 -2.3697 -1.8701
   90SAPE  C316 8845   2.823   3.128   5.326  0.1616  0.4460 -0.5425
   90SAPE  H16X 8846   2.892   3.209   5.360  0.3709 -0.5060  1.4233
   90SAPE  H16Y 8847   2.722   3.168   5.302 -0.1790 -0.5733 -0.8604
   90SAPE  C317 8848   2.862   3.053   5.197  0.4284  0.2462  0.5722
   90SAPE  H17X 8849   2.775   3.025   5.134  1.4310  0.9585 -1.1939
   90SAPE  H17Y 8850   2.899   2.951   5.222 -0.7930  0.3718  3.1325
   90SAPE  C318 8851   2.955   3.118   5.095  0.7179 -0.2451 -0.1487
   90SAPE  H18X 8852   2.933   3.067   4.998 -1.5769  0.7654 -0.2225
   90SAPE  H18Y 8853   3.062   3.123   5.122  0.4054  0.7975  0.9557
   90SAPE  H18Z 8854   2.928   3.224   5.078  0.0976 -0.2273  0.8760
   91SAPE     N 8855   6.535   4.562   6.099 -0.5847  0.2675 -0.9024
   91SAPE   HN1 8856   6.498   4.515   6.184  1.5407  1.2070  0.6285
   91SAPE   HN2 8857   6.527   4.657   6.141  0.5987 -0.3313  0.8138
   91SAPE   HN3 8858   6.471   4.547   6.019 -0.0110 -1.7335 -1.0373
   91SAPE   C12 8859   6.671   4.525   6.072  0.8078 -0.4609  0.4004
   91SAPE  H12A 8860   6.675   4.417   6.047  2.7847 -0.1993 -0.5679
   91SAPE  H12B 8861   6.733   4.535   6.164 -0.3689  3.4301  0.9370
   91SAPE   C11 8862   6.738   4.605   5.967  0.0640 -0.2048  0.7195
   91SAPE  H11A 8863   6.674   4.597   5.877 -0.1053 -1.9984  0.9606
   91SAPE  H11B 8864   6.839   4.563   5.950 -0.7140 -1.3349 -1.4903
   91SAPE     P 8865   6.823   4.813   6.100  0.0844  0.1152  0.0907
   91SAPE   O13 8866   6.816   4.960   6.093  0.0945 -0.0267  0.4333
   91SAPE   O14 8867   6.818   4.752   6.233 -0.0155 -0.6377  0.4345
   91SAPE   O12 8868   6.739   4.740   5.994  0.2519  0.2151 -0.3509
   91SAPE   O11 8869   6.963   4.774   6.037  0.2580 -0.0252  0.1115
   91SAPE    C1 8870   7.002   4.794   5.898 -0.4058  0.6089  0.2689
   91SAPE    HA 8871   7.086   4.726   5.874 -1.4091 -0.8291  0.7192
   91SAPE    HB 8872   6.918   4.794   5.825  1.5343  1.5096 -2.0856
   91SAPE    C2 8873   7.047   4.942   5.870  0.0039  0.1285  0.4289
   91SAPE    HS 8874   6.970   5.019   5.892  1.5401  1.4512  1.3958
   91SAPE   O21 8875   7.096   4.947   5.733  0.1750  0.3611  0.2854
   91SAPE   C21 8876   7.059   5.055   5.661 -0.6781  0.9454  0.1417
   91SAPE   O22 8877   6.982   5.138   5.697 -0.4305 -0.6534 -0.4995
   91SAPE   C22 8878   7.136   5.053   5.531  0.0457  0.5395  0.3061
   91SAPE   H2R 8879   7.241   5.025   5.557 -0.0035 -1.7727 -1.6246
   91SAPE   H2S 8880   7.108   4.969   5.463  2.1218 -2.2386  2.5976
   91SAPE    C3 8881   7.165   4.973   5.958  0.1170 -0.8042  0.0860
   91SAPE    HX 8882   7.234   4.887   5.956 -0.6067 -1.3990  0.2541
   91SAPE    HY 8883   7.126   4.983   6.061 -2.0572  0.1612 -0.7569
   91SAPE   O31 8884   7.239   5.092   5.912 -0.0776 -1.0136  0.0094
   91SAPE   C31 8885   7.178   5.206   5.943 -0.2817  0.8912  0.2957
   91SAPE   O32 8886   7.070   5.215   6.000 -0.0877  0.1869 -0.4187
   91SAPE   C32 8887   7.266   5.323   5.901 -0.7397 -0.2346  0.0140
   91SAPE   H2X 8888   7.372   5.298   5.920 -0.3255  0.1635 -1.6283
   91SAPE   H2Y 8889   7.238   5.411   5.963  0.7390 -1.0403  1.9155
   91SAPE   C23 8890   7.117   5.176   5.444 -0.1288  1.3463  0.0193
   91SAPE   H3R 8891   7.161   5.271   5.482 -0.4271  1.6197 -0.3060
   91SAPE   H3S 8892   7.008   5.187   5.428 -0.4547 -0.6660  0.7184
   91SAPE   C24 8893   7.176   5.153   5.305 -0.0912 -0.2119 -0.1313
   91SAPE   H4R 8894   7.125   5.066   5.259 -0.4738  0.2223 -0.5318
   91SAPE   H4S 8895   7.278   5.111   5.325 -0.5613 -1.1349  0.4042
   91SAPE   C25 8896   7.157   5.279   5.223  0.4269  0.2949  0.2245
   91SAPE   H5R 8897   7.193   5.367   5.279  1.5413 -0.8492  1.3888
   91SAPE   C26 8898   7.089   5.282   5.107 -0.1159 -0.4276 -0.2249
   91SAPE   H6R 8899   7.074   5.384   5.068  1.0902  0.1858  0.8284
   91SAPE   C27 8900   7.019   5.165   5.045 -0.7617 -0.0470 -0.0438
   91SAPE   H7R 8901   6.944   5.209   4.976  1.0694 -0.2605 -2.2766
   91SAPE   H7S 8902   6.969   5.107   5.126 -1.7378 -2.7909 -2.4182
   91SAPE   C28 8903   7.096   5.074   4.953 -0.9196 -0.9184 -0.4832
   91SAPE   H8R 8904   7.162   4.997   4.997  2.4090  2.8790  1.8439
   91SAPE   C29 8905   7.088   5.064   4.823 -0.6379 -0.3212 -0.8392
   91SAPE   H9R 8906   7.158   4.992   4.777  0.1335 -0.1581  0.0483
   91SAPE  C210 8907   6.992   5.126   4.728  0.5210 -0.4157  0.2816
   91SAPE  H10R 8908   6.998   5.236   4.710 -0.3814 -0.6340 -1.6402
   91SAPE  H10S 8909   6.890   5.106   4.767 -0.4598  1.2009 -1.2933
   91SAPE  C211 8910   7.026   5.059   4.593  0.3338  0.5242  0.5326
   91SAPE  H11R 8911   7.058   5.135   4.521  0.2503 -0.8237 -0.9608
   91SAPE  C212 8912   6.997   4.933   4.555  0.3639 -0.5268  0.2947
   91SAPE  H12R 8913   7.006   4.906   4.449 -1.2633  3.4067 -1.0218
   91SAPE  C213 8914   6.920   4.838   4.645  0.0081  0.0703  0.1207
   91SAPE  H13R 8915   6.837   4.893   4.694  0.9758 -0.4463  2.4481
   91SAPE  H13S 8916   6.986   4.806   4.728 -1.8608 -1.5379  1.0468
   91SAPE  C214 8917   6.861   4.716   4.576 -0.5486 -0.0918  0.2362
   91SAPE  H14R 8918   6.919   4.623   4.569  0.2051  0.5023 -2.5521
   91SAPE  C215 8919   6.744   4.718   4.513 -0.1711 -0.3318  0.4508
   91SAPE  H15R 8920   6.714   4.624   4.464 -0.2651  0.2177 -0.5801
   91SAPE  C216 8921   6.637   4.830   4.504 -0.6760 -0.3381  0.2227
   91SAPE  H16R 8922   6.690   4.923   4.536 -0.2161 -0.9835  1.4100
   91SAPE  H16S 8923   6.554   4.813   4.577 -0.7017  0.6289  0.4359
   91SAPE  C217 8924   6.568   4.847   4.366 -1.2609  0.1318  0.2159
   91SAPE  H17R 8925   6.472   4.900   4.384 -1.3041 -0.3119  1.3804
   91SAPE  H17S 8926   6.530   4.748   4.334  0.3988 -0.5999  0.3846
   91SAPE  C218 8927   6.658   4.901   4.264 -0.2815 -0.3374 -0.0375
   91SAPE  H18R 8928   6.738   4.825   4.251 -1.2190 -1.7416  1.9179
   91SAPE  H18S 8929   6.708   4.995   4.295 -0.6570 -0.5430  1.2682
   91SAPE  C219 8930   6.603   4.904   4.123 -0.0503 -0.4399 -0.0333
   91SAPE  H19R 8931   6.536   4.818   4.101 -0.7736 -0.3172  1.5382
   91SAPE  H19S 8932   6.690   4.900   4.054  0.4866 -1.3878  0.6642
   91SAPE  C220 8933   6.522   5.029   4.101  0.4852 -0.3169 -0.4087
   91SAPE  H20R 8934   6.559   5.118   4.155 -1.0865  0.1538 -0.0545
   91SAPE  H20S 8935   6.417   5.002   4.127  0.5271 -1.2337 -1.1169
   91SAPE  H20T 8936   6.530   5.056   3.994 -0.0433  2.1573  0.1293
   91SAPE   C33 8937   7.274   5.352   5.751 -0.0522 -0.6480  0.3440
   91SAPE   H3X 8938   7.168   5.374   5.726  0.2263  1.9332  1.1629
   91SAPE   H3Y 8939   7.308   5.261   5.697  1.2031  1.0465 -1.8906
   91SAPE   C34 8940   7.361   5.473   5.730  0.4178  1.2013 -0.1393
   91SAPE   H4X 8941   7.462   5.453   5.771  0.0181 -0.9343 -0.1043
   91SAPE   H4Y 8942   7.318   5.552   5.795 -3.2062  1.2042 -2.2507
   91SAPE   C35 8943   7.368   5.502   5.586  0.6452 -0.3582  0.6474
   91SAPE   H5X 8944   7.432   5.593   5.584  1.2399 -0.7796 -0.7741
   91SAPE   H5Y 8945   7.269   5.531   5.544  1.1455  1.2100  0.4910
   91SAPE   C36 8946   7.440   5.392   5.493  0.0295  0.0739  0.7752
   91SAPE   H6X 8947   7.373   5.304   5.493 -1.9779  1.5420  0.8337
   91SAPE   H6Y 8948   7.543   5.384   5.534  0.5509  2.4003  0.0818
   91SAPE   C37 8949   7.456   5.441   5.350 -0.2122  0.2653 -0.0399
   91SAPE   H7X 8950   7.521   5.531   5.350 -0.1053  0.1896 -0.4516
   91SAPE   H7Y 8951   7.357   5.466   5.307 -1.0373  1.6535  2.4956
   91SAPE   C38 8952   7.524   5.334   5.257  0.0764  0.7803 -0.5813
   91SAPE   H8X 8953   7.448   5.255   5.240 -0.6496  1.2485  0.4242
   91SAPE   H8Y 8954   7.621   5.296   5.294 -1.3861 -1.2880  1.3528
   91SAPE   C39 8955   7.550   5.413   5.125 -0.3885  0.1601 -0.4448
   91SAPE   H9X 8956   7.612   5.340   5.067 -0.9260  0.2110 -1.0913
   91SAPE   H9Y 8957   7.612   5.503   5.146  1.6318 -1.3128  0.1994
   91SAPE  C310 8958   7.426   5.444   5.033  0.3904  0.1251  0.3729
   91SAPE  H10X 8959   7.365   5.516   5.091 -1.5987  0.3790 -1.8603
   91SAPE  H10Y 8960   7.363   5.353   5.018 -1.1215  1.2789 -0.6715
   91SAPE  C311 8961   7.465   5.507   4.894 -0.1017 -0.1347 -0.6458
   91SAPE  H11X 8962   7.536   5.590   4.910 -2.2940  1.4275  1.6301
   91SAPE  H11Y 8963   7.376   5.551   4.843  0.2129  0.8909 -0.3314
   91SAPE  C312 8964   7.527   5.403   4.798 -0.3490 -0.4643 -0.2845
   91SAPE  H12X 8965   7.537   5.300   4.838 -1.3934 -0.3594  0.2676
   91SAPE  H12Y 8966   7.625   5.435   4.756  0.1180 -1.8437 -0.2865
   91SAPE  C313 8967   7.427   5.375   4.679  0.3399  0.0406  0.9012
   91SAPE  H13X 8968   7.437   5.459   4.608  1.7302 -0.6860  0.1977
   91SAPE  H13Y 8969   7.323   5.350   4.710 -0.2340 -0.2530 -1.1255
   91SAPE  C314 8970   7.481   5.260   4.582  0.1371  0.1817 -0.6145
   91SAPE  H14X 8971   7.477   5.169   4.645  2.4573 -0.0487 -0.7474
   91SAPE  H14Y 8972   7.586   5.283   4.554  0.4042 -0.7004 -0.3693
   91SAPE  C315 8973   7.390   5.243   4.455 -0.3576 -0.4509 -0.6650
   91SAPE  H15X 8974   7.358   5.340   4.409 -1.8336 -0.2207  0.7777
   91SAPE  H15Y 8975   7.295   5.199   4.491 -0.6078  0.8014  0.2846
   91SAPE  C316 8976   7.459   5.142   4.362  0.0863 -0.6732  0.7518
   91SAPE  H16X 8977   7.561   5.117   4.396  1.0037 -0.0926 -1.3784
   91SAPE  H16Y 8978   7.474   5.192   4.264  0.9756 -1.4589  0.4731
   91SAPE  C317 8979   7.368   5.018   4.341  0.2612 -0.2835  0.7527
   91SAPE  H17X 8980   7.266   5.048   4.307  0.0071  1.4173  2.7909
   91SAPE  H17Y 8981   7.354   4.982   4.445  1.1556  1.1205  1.3974
   91SAPE  C318 8982   7.430   4.919   4.240  0.5156  0.1372  0.5362
   91SAPE  H18X 8983   7.429   4.948   4.133  0.8322 -2.0278 -0.0985
   91SAPE  H18Y 8984   7.396   4.814   4.238  0.6709  0.0639  1.3304
   91SAPE  H18Z 8985   7.535   4.900   4.273  0.6058 -2.0782 -0.8389
   92SAPE     N 8986   6.681   4.391   6.564  0.2793 -0.4975 -0.0179
   92SAPE   HN1 8987   6.644   4.473   6.616  1.2573  0.0837 -0.2127
   92SAPE   HN2 8988   6.784   4.396   6.554  0.2246  0.7430 -0.0656
   92SAPE   HN3 8989   6.632   4.372   6.474  1.4987  0.2511 -0.8608
   92SAPE   C12 8990   6.624   4.279   6.651  0.1809 -0.0634 -0.0008
   92SAPE  H12A 8991   6.523   4.303   6.690 -0.3968 -0.3666 -1.2420
   92SAPE  H12B 8992   6.705   4.270   6.726  2.2572 -0.7654 -2.1907
   92SAPE   C11 8993   6.606   4.155   6.569  0.1442 -0.2040 -0.6450
   92SAPE  H11A 8994   6.566   4.081   6.643  3.5498 -0.1220  1.5053
   92SAPE  H11B 8995   6.703   4.113   6.536  0.3451 -0.7659  0.6131
   92SAPE     P 8996   6.458   4.069   6.368 -0.6176  0.0046  0.3642
   92SAPE   O13 8997   6.417   3.952   6.445  0.1893  0.4509  0.5416
   92SAPE   O14 8998   6.349   4.130   6.289  0.0846 -0.1519 -0.3837
   92SAPE   O12 8999   6.512   4.175   6.469 -0.0930 -0.2272  0.3307
   92SAPE   O11 9000   6.575   4.039   6.272 -0.2374 -0.1253  0.1389
   92SAPE    C1 9001   6.618   3.907   6.235  0.9170 -0.1060 -0.3963
   92SAPE    HA 9002   6.609   3.833   6.317 -2.9210  0.1463 -0.4367
   92SAPE    HB 9003   6.555   3.880   6.149 -0.3206  1.1652  0.0686
   92SAPE    C2 9004   6.765   3.912   6.198 -0.2143  0.0958  0.4467
   92SAPE    HS 9005   6.805   3.984   6.272 -2.6781 -0.2996  2.2850
   92SAPE   O21 9006   6.782   3.959   6.061 -0.4485 -0.2060  0.4537
   92SAPE   C21 9007   6.860   4.071   6.035 -0.5477 -0.0091 -0.6401
   92SAPE   O22 9008   6.905   4.140   6.129  0.1653  0.1827  0.2455
   92SAPE   C22 9009   6.876   4.085   5.881 -0.2906 -0.3966 -1.1313
   92SAPE   H2R 9010   6.983   4.060   5.868 -0.2672 -0.5790 -0.6097
   92SAPE   H2S 9011   6.805   4.018   5.829 -1.2040  0.1659 -0.6367
   92SAPE    C3 9012   6.852   3.782   6.210  0.4349  0.4089 -0.4219
   92SAPE    HX 9013   6.868   3.779   6.320  0.3636  1.5102 -0.3677
   92SAPE    HY 9014   6.949   3.796   6.158 -0.3895 -1.9049 -2.8069
   92SAPE   O31 9015   6.790   3.668   6.155 -0.2846  0.2700  0.8697
   92SAPE   C31 9016   6.865   3.566   6.130  0.3593 -0.4592 -0.6031
   92SAPE   O32 9017   6.982   3.550   6.161  0.1477 -0.3886  0.0220
   92SAPE   C32 9018   6.775   3.452   6.069 -0.4666 -0.6927  0.4739
   92SAPE   H2X 9019   6.690   3.507   6.025  1.0180  3.0588  1.8990
   92SAPE   H2Y 9020   6.743   3.392   6.157  0.1555  0.3860  1.4641
   92SAPE   C23 9021   6.863   4.227   5.825  0.9905  0.2658  0.0078
   92SAPE   H3R 9022   6.955   4.280   5.860  0.5792  1.1648 -0.2541
   92SAPE   H3S 9023   6.774   4.277   5.868  1.0779  1.2671 -0.9211
   92SAPE   C24 9024   6.868   4.237   5.673  0.0587 -0.5163  0.3094
   92SAPE   H4R 9025   6.798   4.161   5.632  0.5657  0.1030 -1.7984
   92SAPE   H4S 9026   6.968   4.206   5.638  1.2601 -0.5403  3.4225
   92SAPE   C25 9027   6.832   4.389   5.653  0.0220  0.2715 -0.9110
   92SAPE   H5R 9028   6.733   4.422   5.687 -0.3781 -0.2101 -1.5920
   92SAPE   C26 9029   6.910   4.486   5.603  0.2688  0.5457 -0.4604
   92SAPE   H6R 9030   6.874   4.590   5.610 -0.4840  0.2827 -0.2771
   92SAPE   C27 9031   7.053   4.468   5.550 -0.7075 -0.0507  0.1998
   92SAPE   H7R 9032   7.038   4.461   5.440  0.2893 -0.9636  0.1108
   92SAPE   H7S 9033   7.109   4.375   5.572 -0.4102  0.0614 -0.0688
   92SAPE   C28 9034   7.136   4.578   5.598  0.6708 -0.1775  0.2106
   92SAPE   H8R 9035   7.143   4.587   5.708  0.9643 -1.1172  0.2800
   92SAPE   C29 9036   7.199   4.668   5.524 -0.1602 -0.2514 -0.3290
   92SAPE   H9R 9037   7.261   4.742   5.577  1.1476 -1.8391  0.4349
   92SAPE  C210 9038   7.192   4.663   5.377  0.5774 -0.0773 -0.2030
   92SAPE  H10R 9039   7.086   4.678   5.347  1.1544  1.2482 -1.7029
   92SAPE  H10S 9040   7.223   4.562   5.341 -1.2242 -1.6279  2.2270
   92SAPE  C211 9041   7.277   4.774   5.306 -1.3039  0.2975  0.1295
   92SAPE  H11R 9042   7.270   4.871   5.357 -1.0646 -0.0018  0.7501
   92SAPE  C212 9043   7.334   4.775   5.185 -1.0116  0.4086 -0.2802
   92SAPE  H12R 9044   7.399   4.860   5.164 -1.4262  0.7387 -0.2488
   92SAPE  C213 9045   7.332   4.647   5.092  0.7197 -0.0956  0.3120
   92SAPE  H13R 9046   7.242   4.673   5.031  1.5138 -0.4591 -1.0616
   92SAPE  H13S 9047   7.298   4.558   5.148  0.6459 -0.2234  0.0652
   92SAPE  C214 9048   7.468   4.617   5.024  0.2773  0.2057  0.3242
   92SAPE  H14R 9049   7.553   4.627   5.092  0.4308  0.8000  0.0486
   92SAPE  C215 9050   7.489   4.593   4.894  0.1263  0.3660  0.1628
   92SAPE  H15R 9051   7.591   4.563   4.865  0.3091  1.8428 -0.7985
   92SAPE  C216 9052   7.378   4.568   4.796  0.5847  0.5798  0.1477
   92SAPE  H16R 9053   7.381   4.651   4.722 -0.0539 -0.7607 -1.4354
   92SAPE  H16S 9054   7.278   4.578   4.843  0.5167  1.4881 -0.1729
   92SAPE  C217 9055   7.374   4.423   4.742 -0.1960 -0.0930 -0.4232
   92SAPE  H17R 9056   7.270   4.405   4.707 -0.2439 -1.0210  0.1733
   92SAPE  H17S 9057   7.385   4.349   4.824  0.3446 -1.8685 -2.0326
   92SAPE  C218 9058   7.478   4.393   4.635  0.5161  0.1321  0.0206
   92SAPE  H18R 9059   7.459   4.290   4.597 -0.5223 -0.5535  2.2208
   92SAPE  H18S 9060   7.566   4.385   4.702 -0.7152  0.5481  1.7843
   92SAPE  C219 9061   7.497   4.489   4.521 -0.0290 -0.1549 -0.2276
   92SAPE  H19R 9062   7.479   4.597   4.543  1.7231  0.1945 -0.3241
   92SAPE  H19S 9063   7.432   4.462   4.435  2.3202 -0.3845 -2.0402
   92SAPE  C220 9064   7.633   4.480   4.455 -0.2140 -0.5164  0.0205
   92SAPE  H20R 9065   7.671   4.584   4.443  3.9244 -1.5555  2.1395
   92SAPE  H20S 9066   7.629   4.430   4.356 -0.3458  1.3733 -0.9933
   92SAPE  H20T 9067   7.704   4.434   4.527 -1.2669  0.2291  1.5939
   92SAPE   C33 9068   6.867   3.381   5.969  0.0593 -0.8107  0.2403
   92SAPE   H3X 9069   6.815   3.290   5.932 -1.7859 -0.0414  0.8304
   92SAPE   H3Y 9070   6.960   3.351   6.023  0.4021  2.3822  1.6305
   92SAPE   C34 9071   6.895   3.471   5.844 -0.2938  0.3374 -0.1416
   92SAPE   H4X 9072   6.961   3.556   5.873 -2.0716  2.8700 -3.0144
   92SAPE   H4Y 9073   6.801   3.511   5.802 -0.4313  0.0019 -0.1578
   92SAPE   C35 9074   6.954   3.405   5.721  0.6083  0.6535  0.3010
   92SAPE   H5X 9075   6.902   3.312   5.690  0.4568  0.9416 -0.3135
   92SAPE   H5Y 9076   7.060   3.376   5.742  0.8331  0.4793 -1.0277
   92SAPE   C36 9077   6.958   3.499   5.605 -0.3055 -0.6612 -0.0769
   92SAPE   H6X 9078   7.022   3.586   5.633  0.1681  0.0512 -3.0389
   92SAPE   H6Y 9079   6.856   3.532   5.575 -0.1988 -0.9947 -0.8399
   92SAPE   C37 9080   7.030   3.448   5.478  0.1268  0.2370 -0.0121
   92SAPE   H7X 9081   6.992   3.347   5.455  2.0812 -0.6109  0.3243
   92SAPE   H7Y 9082   7.135   3.430   5.509  0.2015  2.7725  1.5382
   92SAPE   C38 9083   7.031   3.554   5.367  0.2696 -0.1974  0.1548
   92SAPE   H8X 9084   7.116   3.622   5.387  1.1320 -0.5064 -2.1354
   92SAPE   H8Y 9085   6.936   3.612   5.366  0.0205 -0.5985 -0.4962
   92SAPE   C39 9086   7.056   3.489   5.234  0.4570 -1.1013  0.3086
   92SAPE   H9X 9087   6.971   3.423   5.208 -1.2681  0.7309  1.0587
   92SAPE   H9Y 9088   7.137   3.413   5.242 -1.4178 -3.1789  0.3971
   92SAPE  C310 9089   7.087   3.591   5.118 -0.0983 -0.5207 -0.2110
   92SAPE  H10X 9090   7.077   3.540   5.020  2.1720  1.0102 -1.3297
   92SAPE  H10Y 9091   7.189   3.634   5.128  0.0710  0.0363 -3.2792
   92SAPE  C311 9092   6.989   3.709   5.120  0.9861  0.1198  0.6838
   92SAPE  H11X 9093   6.991   3.786   5.201 -1.0830  0.3998  0.5446
   92SAPE  H11Y 9094   6.889   3.665   5.143  0.6985 -0.5367 -1.5575
   92SAPE  C312 9095   6.988   3.786   4.984  0.2946 -0.1211 -0.1028
   92SAPE  H12X 9096   6.909   3.863   4.976  0.7760  0.5981  1.6724
   92SAPE  H12Y 9097   6.969   3.712   4.904 -0.5379  0.2858 -0.2947
   92SAPE  C313 9098   7.119   3.856   4.966  0.6290 -0.5428 -0.1041
   92SAPE  H13X 9099   7.202   3.789   4.936  0.3049 -0.6988 -0.6744
   92SAPE  H13Y 9100   7.151   3.892   5.066  0.6986 -0.8633 -0.0133
   92SAPE  C314 9101   7.109   3.981   4.875 -0.5597 -0.8628  0.0103
   92SAPE  H14X 9102   7.139   4.053   4.954 -3.4101  1.2604 -0.6781
   92SAPE  H14Y 9103   7.004   4.002   4.843 -0.3716 -0.0493 -0.0798
   92SAPE  C315 9104   7.206   3.991   4.759 -0.3346 -0.2276  0.4746
   92SAPE  H15X 9105   7.312   3.980   4.790  0.3851  0.1296 -1.7077
   92SAPE  H15Y 9106   7.182   4.097   4.736  1.0361  0.3452  1.5158
   92SAPE  C316 9107   7.164   3.895   4.647  0.2391  0.1706 -0.3218
   92SAPE  H16X 9108   7.055   3.912   4.634 -0.7572 -3.9184  1.0195
   92SAPE  H16Y 9109   7.177   3.791   4.682  0.0039  0.0919 -0.4654
   92SAPE  C317 9110   7.236   3.922   4.508 -0.9920 -0.1285  0.4187
   92SAPE  H17X 9111   7.174   3.870   4.432  1.8809 -1.8309 -0.9105
   92SAPE  H17Y 9112   7.323   3.855   4.496 -0.1911  1.3551 -3.6997
   92SAPE  C318 9113   7.279   4.062   4.467  0.0801  0.6931 -0.1355
   92SAPE  H18X 9114   7.335   4.054   4.371 -0.5690 -0.3991 -0.4386
   92SAPE  H18Y 9115   7.334   4.117   4.546 -0.0123  1.4697 -0.5983
   92SAPE  H18Z 9116   7.186   4.120   4.450  0.4411  0.9773 -1.2727
   93SAPE     N 9117   4.577   3.429   6.545 -0.8718 -0.3535 -0.2224
   93SAPE   HN1 9118   4.671   3.456   6.579  0.1989 -2.3143 -1.4590
   93SAPE   HN2 9119   4.596   3.404   6.446  0.0426 -0.1610 -0.1019
   93SAPE   HN3 9120   4.507   3.505   6.543 -2.8656 -2.0910 -1.0878
   93SAPE   C12 9121   4.516   3.310   6.614 -0.2549 -1.1129 -0.4152
   93SAPE  H12A 9122   4.437   3.266   6.551  1.6201 -0.7445 -3.2125
   93SAPE  H12B 9123   4.480   3.352   6.710  1.5339  2.5396 -1.1396
   93SAPE   C11 9124   4.621   3.200   6.638 -0.0432  0.0266 -0.4628
   93SAPE  H11A 9125   4.559   3.123   6.689 -0.4623  0.7105  0.0897
   93SAPE  H11B 9126   4.685   3.247   6.715 -0.0358 -1.8902  0.7530
   93SAPE     P 9127   4.673   3.003   6.477  0.2420 -0.1376  0.3375
   93SAPE   O13 9128   4.759   2.967   6.365  0.1835  0.7983  0.7414
   93SAPE   O14 9129   4.676   2.919   6.596 -0.1697 -0.6787 -0.4189
   93SAPE   O12 9130   4.689   3.160   6.519 -0.5273  0.0828  0.0682
   93SAPE   O11 9131   4.524   3.012   6.425 -0.3695  0.2309  0.4109
   93SAPE    C1 9132   4.478   3.102   6.332 -0.1445 -0.0806  0.0465
   93SAPE    HA 9133   4.377   3.142   6.355 -0.2750 -1.3410  1.8562
   93SAPE    HB 9134   4.540   3.194   6.339  0.5290 -0.5032 -0.2210
   93SAPE    C2 9135   4.452   3.032   6.191  0.1762  0.1825 -0.2889
   93SAPE    HS 9136   4.370   2.962   6.217 -0.2227  0.2282 -1.3686
   93SAPE   O21 9137   4.570   2.963   6.148 -0.1841 -0.3839  0.0582
   93SAPE   C21 9138   4.537   2.863   6.070 -1.0316  0.1351  0.9057
   93SAPE   O22 9139   4.426   2.810   6.064 -0.1474 -0.1079  0.0317
   93SAPE   C22 9140   4.659   2.811   5.999 -0.3221  0.4888  0.6966
   93SAPE   H2R 9141   4.717   2.896   5.956  0.2617 -0.6095 -0.8083
   93SAPE   H2S 9142   4.715   2.747   6.070  0.2876  1.5973  1.2346
   93SAPE    C3 9143   4.420   3.140   6.091  0.5480  0.0696 -0.5523
   93SAPE    HX 9144   4.508   3.198   6.057  0.6638 -0.6562 -1.5551
   93SAPE    HY 9145   4.349   3.209   6.140 -1.4348 -1.0123 -1.7491
   93SAPE   O31 9146   4.366   3.094   5.966  0.2977 -0.0247  0.3921
   93SAPE   C31 9147   4.236   3.066   5.967 -0.5261  0.1644  0.0635
   93SAPE   O32 9148   4.166   3.051   6.066  0.0921 -0.1003 -0.0772
   93SAPE   C32 9149   4.176   3.067   5.828 -0.8254 -0.1545  0.0445
   93SAPE   H2X 9150   4.254   3.022   5.762 -0.3420  0.4037  0.2332
   93SAPE   H2Y 9151   4.169   3.176   5.807  0.6752  0.2086  1.2960
   93SAPE   C23 9152   4.630   2.720   5.877  0.5835  0.2313  0.7427
   93SAPE   H3R 9153   4.528   2.740   5.837  1.6167  1.2471 -1.5982
   93SAPE   H3S 9154   4.624   2.613   5.908  0.4611  0.3191  1.0204
   93SAPE   C24 9155   4.732   2.734   5.764  0.6851  0.1128 -0.7184
   93SAPE   H4R 9156   4.731   2.839   5.726  2.8026  0.5924  0.3894
   93SAPE   H4S 9157   4.697   2.671   5.681 -0.9909 -0.7464  0.5714
   93SAPE   C25 9158   4.876   2.698   5.796 -0.1745  0.4091  0.1438
   93SAPE   H5R 9159   4.901   2.717   5.902 -0.5829 -0.8893  0.4976
   93SAPE   C26 9160   4.978   2.669   5.707 -0.1535 -0.3106  0.3174
   93SAPE   H6R 9161   5.081   2.643   5.737  0.0234 -0.3006 -0.2723
   93SAPE   C27 9162   4.952   2.641   5.559 -0.7563  0.1972 -0.6843
   93SAPE   H7R 9163   4.865   2.573   5.543 -0.5249 -0.2059 -0.2487
   93SAPE   H7S 9164   5.041   2.584   5.525 -0.4305  0.1311  0.2322
   93SAPE   C28 9165   4.925   2.767   5.476  0.1169 -0.1127  0.0137
   93SAPE   H8R 9166   4.844   2.829   5.516 -0.1672 -1.3299  1.4069
   93SAPE   C29 9167   4.983   2.795   5.355 -0.4451 -0.7925 -0.7139
   93SAPE   H9R 9168   4.958   2.895   5.317  1.8240 -0.0639 -0.4552
   93SAPE  C210 9169   5.093   2.726   5.279 -0.2468  0.3919  0.2405
   93SAPE  H10R 9170   5.139   2.640   5.333  0.0984 -0.7758 -1.8136
   93SAPE  H10S 9171   5.172   2.802   5.264 -0.5153  0.4830 -0.7564
   93SAPE  C211 9172   5.035   2.668   5.152  0.1512 -0.2471 -0.5436
   93SAPE  H11R 9173   4.938   2.621   5.173  0.0882  0.0688 -0.1137
   93SAPE  C212 9174   5.098   2.663   5.032 -0.6929 -0.8695 -0.3326
   93SAPE  H12R 9175   5.038   2.618   4.951 -2.4664  0.6674  0.0579
   93SAPE  C213 9176   5.235   2.703   4.993  0.2415  0.3537  0.3068
   93SAPE  H13R 9177   5.273   2.611   4.944 -0.7893  0.4844 -0.7959
   93SAPE  H13S 9178   5.296   2.707   5.085  2.2055 -3.9888 -0.5154
   93SAPE  C214 9179   5.229   2.832   4.917  0.4255 -0.3382  0.2891
   93SAPE  H14R 9180   5.201   2.925   4.968  0.1861  0.8101 -1.8249
   93SAPE  C215 9181   5.255   2.841   4.785 -0.6283 -0.3935 -0.6339
   93SAPE  H15R 9182   5.231   2.935   4.733 -0.9795  0.3718  0.8342
   93SAPE  C216 9183   5.302   2.721   4.700 -0.1064  0.1803  0.3709
   93SAPE  H16R 9184   5.218   2.655   4.671  0.2973 -0.0550 -0.2926
   93SAPE  H16S 9185   5.380   2.653   4.741  0.2593 -0.3054 -1.0476
   93SAPE  C217 9186   5.371   2.768   4.574  0.2803 -0.2669 -0.3284
   93SAPE  H17R 9187   5.441   2.852   4.596  0.8824 -1.0834  0.9837
   93SAPE  H17S 9188   5.300   2.811   4.500  0.9677 -1.2752 -1.6146
   93SAPE  C218 9189   5.434   2.658   4.489 -0.1607  0.0495 -0.1764
   93SAPE  H18R 9190   5.355   2.581   4.477  0.2757 -0.5673  0.6891
   93SAPE  H18S 9191   5.522   2.617   4.544 -0.6983 -1.5110 -0.4318
   93SAPE  C219 9192   5.488   2.715   4.358 -0.2938  0.6197  0.3455
   93SAPE  H19R 9193   5.561   2.793   4.389  2.8872 -2.9682  2.8284
   93SAPE  H19S 9194   5.404   2.771   4.313  2.1483  2.2986 -2.5280
   93SAPE  C220 9195   5.549   2.624   4.251 -0.6129  0.6825 -0.1812
   93SAPE  H20R 9196   5.646   2.579   4.280 -0.1580  2.5747  1.4674
   93SAPE  H20S 9197   5.563   2.672   4.152 -2.1531 -0.8732 -1.2077
   93SAPE  H20T 9198   5.479   2.541   4.232  1.8663 -1.6199  0.1448
   93SAPE   C33 9199   4.045   2.986   5.819 -0.5005 -0.0991  0.4377
   93SAPE   H3X 9200   3.965   3.012   5.892  0.8154 -1.7962  2.6191
   93SAPE   H3Y 9201   4.060   2.878   5.837  0.8625  0.1046  0.6339
   93SAPE   C34 9202   3.987   2.980   5.677  0.2812 -0.3149 -0.0243
   93SAPE   H4X 9203   3.995   3.076   5.621 -4.5351  0.5229  0.2943
   93SAPE   H4Y 9204   3.878   2.961   5.689 -0.3921  1.6247 -2.1795
   93SAPE   C35 9205   4.047   2.874   5.588 -0.1235 -0.0938  0.6231
   93SAPE   H5X 9206   4.044   2.775   5.637  1.8439 -0.1592  0.6916
   93SAPE   H5Y 9207   4.156   2.889   5.572 -0.1336 -0.1581  0.4959
   93SAPE   C36 9208   3.980   2.870   5.454 -0.2417  0.4846  0.0570
   93SAPE   H6X 9209   4.031   2.946   5.390  1.5111 -1.6876 -1.2580
   93SAPE   H6Y 9210   3.872   2.892   5.464  0.0715  2.9624 -1.2296
   93SAPE   C37 9211   3.997   2.737   5.389  0.7127 -0.1017 -0.0479
   93SAPE   H7X 9212   3.972   2.655   5.459  0.3405  1.1504  1.3380
   93SAPE   H7Y 9213   4.102   2.719   5.360 -0.0931 -1.3566 -2.4582
   93SAPE   C38 9214   3.916   2.726   5.261  0.3422  0.0477  0.6168
   93SAPE   H8X 9215   3.945   2.812   5.198 -1.2176 -0.1161 -0.3612
   93SAPE   H8Y 9216   3.807   2.742   5.271  0.3183  1.5068 -1.4512
   93SAPE   C39 9217   3.948   2.589   5.191  0.5965 -0.4037 -0.0300
   93SAPE   H9X 9218   3.912   2.500   5.246  0.8973 -0.4901  0.0260
   93SAPE   H9Y 9219   4.057   2.585   5.175  0.4118  0.5728 -1.8414
   93SAPE  C310 9220   3.877   2.578   5.061  0.0558 -0.4698  0.3139
   93SAPE  H10X 9221   3.893   2.667   4.995  0.6333  0.4569  1.6604
   93SAPE  H10Y 9222   3.770   2.570   5.089  0.3938 -3.8282  1.0431
   93SAPE  C311 9223   3.906   2.454   4.977 -0.9050 -0.2773  0.1148
   93SAPE  H11X 9224   3.836   2.455   4.891 -0.9001  0.3577  0.1150
   93SAPE  H11Y 9225   3.881   2.368   5.044  1.2003 -1.1129 -0.1020
   93SAPE  C312 9226   4.058   2.446   4.933 -0.4943 -0.2782 -0.1135
   93SAPE  H12X 9227   4.125   2.490   5.010 -1.1388 -1.4657  1.1798
   93SAPE  H12Y 9228   4.056   2.528   4.859 -2.3372 -0.7122 -0.5997
   93SAPE  C313 9229   4.103   2.313   4.875 -0.0067  0.0271  0.1098
   93SAPE  H13X 9230   4.146   2.245   4.952 -0.5177  1.8129  2.0625
   93SAPE  H13Y 9231   4.189   2.339   4.810 -1.5916  0.2165 -2.0280
   93SAPE  C314 9232   3.996   2.246   4.786 -0.0782 -0.4483  0.3551
   93SAPE  H14X 9233   3.944   2.326   4.729  1.9089  0.5976 -0.0570
   93SAPE  H14Y 9234   3.920   2.199   4.852  0.6238  0.0272  1.5199
   93SAPE  C315 9235   4.050   2.143   4.691  0.3891 -0.4198 -0.2034
   93SAPE  H15X 9236   3.982   2.057   4.675 -0.8208  0.3488  0.6298
   93SAPE  H15Y 9237   4.135   2.098   4.746  1.5251  0.2065 -1.3773
   93SAPE  C316 9238   4.093   2.207   4.557  0.3877  0.0685 -0.2051
   93SAPE  H16X 9239   4.182   2.271   4.573  1.7208 -1.1856 -2.1160
   93SAPE  H16Y 9240   4.019   2.268   4.502  1.3993  0.9514 -0.6352
   93SAPE  C317 9241   4.123   2.104   4.446 -0.7849 -0.2013  0.2493
   93SAPE  H17X 9242   4.031   2.042   4.436 -1.6990  0.0125  5.0633
   93SAPE  H17Y 9243   4.203   2.035   4.482 -0.9341 -0.6066 -0.1760
   93SAPE  C318 9244   4.164   2.170   4.313  0.3100  0.4064  0.5348
   93SAPE  H18X 9245   4.198   2.097   4.236  1.8458  1.4432  0.1740
   93SAPE  H18Y 9246   4.241   2.245   4.344  0.5000 -0.0549  1.2002
   93SAPE  H18Z 9247   4.076   2.215   4.263  0.5321 -2.3675 -2.6691
   94SAPE     N 9248   2.229   6.043   6.754 -0.1587  0.0460 -0.2532
   94SAPE   HN1 9249   2.294   5.973   6.794 -0.5999 -0.5409 -0.5355
   94SAPE   HN2 9250   2.273   6.137   6.762  3.0544 -1.2335 -1.1621
   94SAPE   HN3 9251   2.157   6.045   6.829  0.3616 -0.0064  0.2538
   94SAPE   C12 9252   2.180   5.996   6.616 -0.0846  0.1309  0.2480
   94SAPE  H12A 9253   2.269   5.988   6.549 -0.9730  0.7014 -1.0427
   94SAPE  H12B 9254   2.103   6.061   6.569 -1.0430 -2.9870 -2.9436
   94SAPE   C11 9255   2.115   5.853   6.626 -0.4780 -0.6619 -0.1300
   94SAPE  H11A 9256   2.089   5.816   6.525 -1.9117  1.5015 -0.6093
   94SAPE  H11B 9257   2.029   5.861   6.696  0.8181  1.1072  1.3607
   94SAPE     P 9258   2.167   5.630   6.734 -0.4339 -0.3671 -0.0136
   94SAPE   O13 9259   2.289   5.565   6.785  0.6336  0.0155  0.5497
   94SAPE   O14 9260   2.062   5.650   6.831  1.0665  0.3430 -0.0273
   94SAPE   O12 9261   2.214   5.768   6.684 -0.0559 -0.4966 -0.2726
   94SAPE   O11 9262   2.118   5.542   6.615 -0.8325  0.3753 -0.0714
   94SAPE    C1 9263   2.204   5.471   6.517  0.2738 -0.9936 -0.0252
   94SAPE    HA 9264   2.305   5.446   6.557  1.0071  1.6540  0.0049
   94SAPE    HB 9265   2.151   5.382   6.479 -1.3993 -0.6904  1.4710
   94SAPE    C2 9266   2.234   5.556   6.388 -0.2569 -0.1345  1.3185
   94SAPE    HS 9267   2.281   5.651   6.424  1.1887  0.0714 -0.9007
   94SAPE   O21 9268   2.099   5.569   6.329 -0.0079  0.1939  0.5371
   94SAPE   C21 9269   2.083   5.681   6.255 -0.0272  0.9095 -0.2749
   94SAPE   O22 9270   2.175   5.761   6.243 -0.1162 -0.4829  0.3055
   94SAPE   C22 9271   1.949   5.679   6.185  0.2696  0.4736 -0.4581
   94SAPE   H2R 9272   1.913   5.576   6.163 -2.4078  1.0661  0.8153
   94SAPE   H2S 9273   1.874   5.734   6.245  1.6819  0.2442  1.6230
   94SAPE    C3 9274   2.331   5.489   6.290  0.2502  0.4518 -0.4425
   94SAPE    HX 9275   2.430   5.479   6.339  0.6696  0.3845 -1.2973
   94SAPE    HY 9276   2.350   5.547   6.197  0.7022 -2.7628 -2.4804
   94SAPE   O31 9277   2.282   5.361   6.246  0.2624 -0.5645 -0.3694
   94SAPE   C31 9278   2.344   5.304   6.152 -0.2368  0.0659 -0.3248
   94SAPE   O32 9279   2.444   5.353   6.098 -0.1086  0.1592  0.1734
   94SAPE   C32 9280   2.265   5.183   6.111 -0.1523  0.1638  0.1472
   94SAPE   H2X 9281   2.155   5.194   6.124 -0.3739 -1.7994  0.1956
   94SAPE   H2Y 9282   2.298   5.108   6.186  2.5307  2.7952  1.8118
   94SAPE   C23 9283   1.958   5.745   6.045 -0.4821 -0.1750  0.3897
   94SAPE   H3R 9284   1.986   5.852   6.062 -2.6809  0.8019 -1.5814
   94SAPE   H3S 9285   1.857   5.757   6.001 -0.6850  1.4926  1.1977
   94SAPE   C24 9286   2.056   5.668   5.945 -0.2121 -0.4285 -0.5516
   94SAPE   H4R 9287   2.150   5.642   5.997 -1.4877  0.2707  2.3207
   94SAPE   H4S 9288   2.069   5.739   5.860 -0.2285 -0.7480 -0.8232
   94SAPE   C25 9289   1.996   5.542   5.893 -0.2294  0.3275  0.4557
   94SAPE   H5R 9290   1.902   5.497   5.930 -1.7795  0.2783 -3.1772
   94SAPE   C26 9291   2.060   5.474   5.797 -0.3136  0.2778 -0.2743
   94SAPE   H6R 9292   2.009   5.385   5.758 -1.3754 -0.2525  2.1343
   94SAPE   C27 9293   2.193   5.512   5.734 -0.8430  0.1647 -0.0029
   94SAPE   H7R 9294   2.273   5.527   5.809 -1.1422  2.3821 -0.0437
   94SAPE   H7S 9295   2.199   5.611   5.683  1.8499  1.1601  2.0552
   94SAPE   C28 9296   2.237   5.418   5.634  0.2483  0.5809  0.5094
   94SAPE   H8R 9297   2.249   5.316   5.675 -0.9177 -0.5782 -1.8342
   94SAPE   C29 9298   2.255   5.432   5.503  0.9062 -0.4419 -0.6232
   94SAPE   H9R 9299   2.293   5.344   5.449  1.6120 -3.0009  3.5609
   94SAPE  C210 9300   2.231   5.556   5.420  0.7261  0.1424  0.2464
   94SAPE  H10R 9301   2.317   5.576   5.352  0.8363  1.9483  0.8631
   94SAPE  H10S 9302   2.221   5.655   5.470  0.3799 -0.3992  1.2596
   94SAPE  C211 9303   2.108   5.530   5.341  0.6396  0.4217  1.4186
   94SAPE  H11R 9304   2.015   5.523   5.401  0.5058 -0.2382  1.1347
   94SAPE  C212 9305   2.098   5.515   5.207  0.2341  0.1359 -0.8494
   94SAPE  H12R 9306   1.997   5.494   5.171  0.4176  1.4016 -2.1964
   94SAPE  C213 9307   2.216   5.514   5.115  0.0771 -0.1304  0.7266
   94SAPE  H13R 9308   2.316   5.508   5.163  0.9578  1.6153 -0.7627
   94SAPE  H13S 9309   2.217   5.616   5.072 -1.5584 -1.2151 -2.1607
   94SAPE  C214 9310   2.198   5.397   5.025 -0.0706  0.0789  0.2924
   94SAPE  H14R 9311   2.201   5.305   5.084 -0.1464 -0.4405 -0.5012
   94SAPE  C215 9312   2.192   5.400   4.895 -0.2422  0.3472  1.5833
   94SAPE  H15R 9313   2.202   5.303   4.845 -0.7894  2.2501 -2.6587
   94SAPE  C216 9314   2.203   5.518   4.803 -0.2383 -0.0055  0.2200
   94SAPE  H16R 9315   2.238   5.607   4.860 -0.0165 -0.2202  0.4261
   94SAPE  H16S 9316   2.106   5.549   4.759 -0.6236  1.5760  2.0388
   94SAPE  C217 9317   2.308   5.505   4.689 -0.9471  0.2219  0.4496
   94SAPE  H17R 9318   2.291   5.409   4.635 -0.2816  1.0401 -1.2888
   94SAPE  H17S 9319   2.407   5.518   4.738  0.1097 -0.0858 -1.5196
   94SAPE  C218 9320   2.288   5.620   4.592 -0.3231 -0.2530  0.3945
   94SAPE  H18R 9321   2.325   5.717   4.631  1.0897  0.5165 -2.5676
   94SAPE  H18S 9322   2.181   5.640   4.567  0.1473  1.8880 -0.1051
   94SAPE  C219 9323   2.366   5.597   4.465  0.0941  0.3734 -0.0059
   94SAPE  H19R 9324   2.327   5.505   4.418 -1.5389  0.5104  0.9913
   94SAPE  H19S 9325   2.470   5.561   4.483  0.6568  1.3291 -1.1978
   94SAPE  C220 9326   2.366   5.716   4.365 -0.3932 -0.1574 -0.0280
   94SAPE  H20R 9327   2.264   5.733   4.324  0.3715  1.8558 -1.2689
   94SAPE  H20S 9328   2.432   5.687   4.281 -0.1410 -0.2380  0.1974
   94SAPE  H20T 9329   2.402   5.813   4.405  0.5217 -0.9920  1.2264
   94SAPE   C33 9330   2.302   5.135   5.971 -0.6127 -0.0840 -0.1195
   94SAPE   H3X 9331   2.406   5.096   5.962 -0.4489  0.8847 -4.2519
   94SAPE   H3Y 9332   2.290   5.211   5.891 -0.6885 -0.4660 -0.4775
   94SAPE   C34 9333   2.209   5.016   5.933  0.2420 -0.1546 -0.2544
   94SAPE   H4X 9334   2.107   5.057   5.942 -1.3636 -3.5328 -1.3755
   94SAPE   H4Y 9335   2.220   4.939   6.012  0.8223 -0.0501 -0.2236
   94SAPE   C35 9336   2.227   4.965   5.790 -0.4605  0.1889  0.2827
   94SAPE   H5X 9337   2.208   4.856   5.778 -0.4614  0.1618  0.5290
   94SAPE   H5Y 9338   2.333   4.967   5.755 -0.4792 -3.3459 -0.4170
   94SAPE   C36 9339   2.133   5.032   5.685  0.0766  0.4848 -0.4749
   94SAPE   H6X 9340   2.173   5.135   5.673  0.8630  0.0195 -2.1705
   94SAPE   H6Y 9341   2.032   5.049   5.729  0.0570  0.2984 -0.4423
   94SAPE   C37 9342   2.126   4.957   5.555  0.1978 -0.2163  0.4847
   94SAPE   H7X 9343   2.095   4.853   5.579  1.3553 -0.8152 -0.4666
   94SAPE   H7Y 9344   2.231   4.958   5.516  0.1483 -0.5359  0.3409
   94SAPE   C38 9345   2.037   5.023   5.454  0.8452 -0.1615  0.0276
   94SAPE   H8X 9346   2.055   5.131   5.468  4.1015 -0.3198 -1.8561
   94SAPE   H8Y 9347   1.931   5.007   5.481  0.8136  1.6762  1.1395
   94SAPE   C39 9348   2.059   4.987   5.301  0.1497 -0.3836 -0.3163
   94SAPE   H9X 9349   2.049   4.877   5.294  2.0179 -0.6390  0.3439
   94SAPE   H9Y 9350   2.163   5.011   5.269  0.8237  0.1910  2.0792
   94SAPE  C310 9351   1.955   5.049   5.206 -0.1621 -0.2490 -0.8367
   94SAPE  H10X 9352   1.953   5.158   5.226 -2.2031 -0.6145  1.5225
   94SAPE  H10Y 9353   1.856   5.014   5.244 -0.3063  1.2473  0.2457
   94SAPE  C311 9354   1.989   5.027   5.057 -0.2536  0.4267  0.5632
   94SAPE  H11X 9355   1.971   4.919   5.036  1.5660  0.3817 -1.1044
   94SAPE  H11Y 9356   2.094   5.062   5.045  0.2512  0.6384  4.4292
   94SAPE  C312 9357   1.906   5.125   4.973 -0.4681  0.4105  0.6172
   94SAPE  H12X 9358   1.927   5.230   5.002 -0.4855  0.5140  0.2544
   94SAPE  H12Y 9359   1.802   5.091   4.994 -0.3148 -0.4796 -0.0200
   94SAPE  C313 9360   1.947   5.108   4.826  0.3445  0.5079  1.1913
   94SAPE  H13X 9361   1.927   5.003   4.793 -2.1728  1.0065  0.8742
   94SAPE  H13Y 9362   2.057   5.119   4.822  0.3139  0.4376 -1.0030
   94SAPE  C314 9363   1.877   5.210   4.733  0.1502  0.2154 -0.4087
   94SAPE  H14X 9364   1.907   5.200   4.626 -0.5028  3.8937 -1.0740
   94SAPE  H14Y 9365   1.903   5.316   4.754  1.4787  0.1781 -1.6979
   94SAPE  C315 9366   1.720   5.197   4.731 -0.6245 -0.7027  0.2369
   94SAPE  H15X 9367   1.688   5.204   4.837  2.3726  0.6249  1.1640
   94SAPE  H15Y 9368   1.693   5.094   4.700 -2.6084  0.2058 -1.3021
   94SAPE  C316 9369   1.645   5.290   4.628 -0.4714  1.0450  0.0376
   94SAPE  H16X 9370   1.541   5.258   4.653  0.6299 -0.6110  3.0421
   94SAPE  H16Y 9371   1.677   5.258   4.527 -0.3844  1.3017 -0.0176
   94SAPE  C317 9372   1.685   5.448   4.628  0.4987  0.4218  0.8781
   94SAPE  H17X 9373   1.787   5.468   4.590 -0.8195  1.4817 -2.3950
   94SAPE  H17Y 9374   1.678   5.481   4.734  2.0294  3.5035  0.1346
   94SAPE  C318 9375   1.591   5.534   4.553  0.4625 -0.0921 -0.8032
   94SAPE  H18X 9376   1.622   5.641   4.545 -2.8684  0.8842 -2.4725
   94SAPE  H18Y 9377   1.493   5.521   4.603  1.1547 -3.6500 -0.1071
   94SAPE  H18Z 9378   1.579   5.495   4.449 -0.9388 -1.0473 -0.3206
   95SAPE     N 9379   5.305   6.256   6.484 -0.3452 -0.0738  0.5671
   95SAPE   HN1 9380   5.320   6.159   6.521  1.2600  0.2681  0.8875
   95SAPE   HN2 9381   5.341   6.318   6.559 -1.2432 -0.1073  1.0427
   95SAPE   HN3 9382   5.209   6.290   6.464 -1.1125 -2.0635  0.6204
   95SAPE   C12 9383   5.402   6.285   6.364  0.8446  0.0414 -0.1847
   95SAPE  H12A 9384   5.499   6.307   6.415  0.6809  1.4295 -0.4322
   95SAPE  H12B 9385   5.365   6.374   6.310 -1.7021 -0.4591  0.6203
   95SAPE   C11 9386   5.414   6.168   6.271 -0.2051  1.1018 -0.8059
   95SAPE  H11A 9387   5.487   6.197   6.193  1.0881  2.6260  0.8826
   95SAPE  H11B 9388   5.313   6.163   6.224 -0.1688  0.5158 -0.8308
   95SAPE     P 9389   5.532   5.932   6.253 -0.0070 -0.0150  0.3079
   95SAPE   O13 9390   5.624   5.869   6.352 -0.7325  0.1074 -0.3165
   95SAPE   O14 9391   5.441   5.834   6.186  0.2968  0.8115 -0.1724
   95SAPE   O12 9392   5.453   6.042   6.337  0.1081 -0.2632  0.2982
   95SAPE   O11 9393   5.610   6.008   6.138  0.3996 -0.1061 -0.0695
   95SAPE    C1 9394   5.581   5.973   6.001 -0.4040 -0.3031  0.1696
   95SAPE    HA 9395   5.604   5.868   5.976 -0.2518 -0.1030 -0.5257
   95SAPE    HB 9396   5.471   5.977   5.983 -0.1336 -0.9636 -1.8057
   95SAPE    C2 9397   5.651   6.072   5.912  0.6322  0.5469  0.3108
   95SAPE    HS 9398   5.761   6.062   5.920  0.5471  0.2583  1.2115
   95SAPE   O21 9399   5.613   6.210   5.946  0.8569 -0.2179 -0.1886
   95SAPE   C21 9400   5.702   6.282   6.000 -0.9180 -0.1711  0.2510
   95SAPE   O22 9401   5.815   6.243   6.035  0.5140 -0.3185  0.6029
   95SAPE   C22 9402   5.657   6.429   6.010  0.3359 -0.5392 -0.0402
   95SAPE   H2R 9403   5.586   6.454   5.927 -0.4319  1.7731  1.2034
   95SAPE   H2S 9404   5.607   6.432   6.109 -3.1275 -0.1408 -1.6175
   95SAPE    C3 9405   5.602   6.046   5.763 -0.0069 -0.0192 -0.0781
   95SAPE    HX 9406   5.661   6.099   5.686 -2.0429  3.5365  0.5776
   95SAPE    HY 9407   5.498   6.084   5.752 -0.0442 -0.5467 -1.7322
   95SAPE   O31 9408   5.594   5.905   5.733  0.0506  0.1180  0.0416
   95SAPE   C31 9409   5.712   5.847   5.713  0.0019 -0.0127  0.5476
   95SAPE   O32 9410   5.821   5.889   5.741 -0.4402 -0.3162  0.3709
   95SAPE   C32 9411   5.708   5.721   5.630  0.0251  0.5992 -0.3819
   95SAPE   H2X 9412   5.722   5.639   5.704 -0.0202 -0.3927 -1.4605
   95SAPE   H2Y 9413   5.796   5.717   5.563  0.5473 -1.4506  0.3342
   95SAPE   C23 9414   5.770   6.535   6.007 -0.2825 -0.2684 -0.2663
   95SAPE   H3R 9415   5.836   6.513   6.094 -2.5810  2.6845  2.4369
   95SAPE   H3S 9416   5.717   6.625   6.042  1.3335  0.6232 -0.0182
   95SAPE   C24 9417   5.850   6.562   5.875  0.6421 -0.2243 -0.2881
   95SAPE   H4R 9418   5.908   6.473   5.842 -0.3885 -0.9063 -0.2815
   95SAPE   H4S 9419   5.933   6.636   5.884 -0.0274  0.7135 -1.5123
   95SAPE   C25 9420   5.753   6.608   5.770 -0.1597  0.2651  0.4938
   95SAPE   H5R 9421   5.709   6.706   5.794  0.6724  1.0193 -0.9447
   95SAPE   C26 9422   5.728   6.556   5.652  0.4276  0.1661 -0.2451
   95SAPE   H6R 9423   5.643   6.591   5.592  0.2191  1.0837  0.5629
   95SAPE   C27 9424   5.784   6.433   5.585  0.4749  0.1542 -0.5694
   95SAPE   H7R 9425   5.706   6.357   5.606  0.4944  0.1347 -0.5681
   95SAPE   H7S 9426   5.876   6.401   5.637  1.0357 -0.3732 -1.8416
   95SAPE   C28 9427   5.821   6.452   5.438  0.6045 -0.5426 -0.9078
   95SAPE   H8R 9428   5.852   6.554   5.410  0.6302 -0.9978 -2.7153
   95SAPE   C29 9429   5.848   6.355   5.347 -0.0130 -0.2666  0.0938
   95SAPE   H9R 9430   5.887   6.386   5.249  1.2393  2.2329  1.2860
   95SAPE  C210 9431   5.856   6.207   5.379  0.3332 -0.3902 -0.8874
   95SAPE  H10R 9432   5.918   6.200   5.471 -0.8371 -0.8935 -0.1080
   95SAPE  H10S 9433   5.927   6.153   5.313  1.2080  0.5472 -0.7344
   95SAPE  C211 9434   5.729   6.134   5.388 -0.0169  0.0785  0.1305
   95SAPE  H11R 9435   5.678   6.142   5.485 -0.0629 -1.2848  0.2430
   95SAPE  C212 9436   5.660   6.060   5.297 -0.3624 -0.0887  0.3969
   95SAPE  H12R 9437   5.562   6.024   5.330 -0.2120  0.1302  1.1118
   95SAPE  C213 9438   5.700   6.026   5.151  0.4702 -0.0306  0.0914
   95SAPE  H13R 9439   5.788   6.090   5.132  1.0072 -0.0680  2.2440
   95SAPE  H13S 9440   5.620   6.057   5.079  0.3931 -0.2222  0.0932
   95SAPE  C214 9441   5.734   5.878   5.142  0.1963  0.0142  0.6684
   95SAPE  H14R 9442   5.719   5.825   5.237 -0.9838  0.8214  0.9644
   95SAPE  C215 9443   5.757   5.813   5.028  0.2779 -0.9008  0.0691
   95SAPE  H15R 9444   5.806   5.715   5.023  1.3680 -0.3118 -1.9183
   95SAPE  C216 9445   5.780   5.891   4.891 -0.4467 -0.0413 -0.2981
   95SAPE  H16R 9446   5.869   5.841   4.846 -0.9614 -2.2316  0.9403
   95SAPE  H16S 9447   5.815   5.995   4.908  2.2584 -0.9314  0.0327
   95SAPE  C217 9448   5.671   5.880   4.787 -0.2721  0.6152 -0.1172
   95SAPE  H17R 9449   5.711   5.925   4.694  1.1526  1.6458  0.9476
   95SAPE  H17S 9450   5.580   5.937   4.816 -0.2955  2.3785 -3.2608
   95SAPE  C218 9451   5.633   5.739   4.761  0.4356 -0.1019 -0.8203
   95SAPE  H18R 9452   5.587   5.698   4.854 -0.7104 -0.2643 -1.4372
   95SAPE  H18S 9453   5.721   5.679   4.732  0.9883  0.5564 -0.5427
   95SAPE  C219 9454   5.525   5.745   4.651 -0.0106 -0.2532  0.3931
   95SAPE  H19R 9455   5.551   5.809   4.565  0.9466 -3.7279 -2.1290
   95SAPE  H19S 9456   5.432   5.799   4.681 -1.3461 -1.8204 -0.7205
   95SAPE  C220 9457   5.473   5.604   4.611  0.0372  0.1883 -0.2751
   95SAPE  H20R 9458   5.549   5.524   4.597  1.0748  1.1303 -0.1269
   95SAPE  H20S 9459   5.407   5.597   4.522 -1.7730 -1.1796  1.0865
   95SAPE  H20T 9460   5.403   5.577   4.693 -0.0978  1.8979  0.1981
   95SAPE   C33 9461   5.575   5.706   5.549 -0.3287  0.1243  0.1611
   95SAPE   H3X 9462   5.541   5.803   5.507  0.0757  0.4741  0.6359
   95SAPE   H3Y 9463   5.493   5.668   5.613  0.9575  0.0423  1.8344
   95SAPE   C34 9464   5.593   5.622   5.420 -0.2582 -0.0159  0.4364
   95SAPE   H4X 9465   5.584   5.515   5.450 -1.8090 -0.2289 -0.7010
   95SAPE   H4Y 9466   5.697   5.642   5.386 -0.1585  0.2889  0.9038
   95SAPE   C35 9467   5.479   5.626   5.322  0.6217  0.7244 -0.1447
   95SAPE   H5X 9468   5.469   5.723   5.269 -2.5802  1.5717  1.7729
   95SAPE   H5Y 9469   5.387   5.626   5.384 -0.3699 -1.0923 -1.5122
   95SAPE   C36 9470   5.471   5.514   5.221  0.1148 -0.0578 -0.5351
   95SAPE   H6X 9471   5.464   5.422   5.284 -0.6158  2.9844  4.3392
   95SAPE   H6Y 9472   5.555   5.509   5.148 -0.4330  0.4520 -1.2149
   95SAPE   C37 9473   5.342   5.508   5.137 -0.0499 -0.4542 -0.3003
   95SAPE   H7X 9474   5.331   5.593   5.066  0.5668 -0.9167 -0.9669
   95SAPE   H7Y 9475   5.261   5.510   5.213  1.1260  0.3931  0.9646
   95SAPE   C38 9476   5.321   5.374   5.066 -0.3062 -0.3604 -0.5087
   95SAPE   H8X 9477   5.229   5.379   5.004 -0.6633  3.1173  0.1247
   95SAPE   H8Y 9478   5.304   5.286   5.132  0.4234  0.8942  1.4430
   95SAPE   C39 9479   5.426   5.338   4.957 -0.8586 -0.1516  0.0717
   95SAPE   H9X 9480   5.514   5.292   5.006  0.7874  1.5195 -1.1419
   95SAPE   H9Y 9481   5.479   5.428   4.917  2.0971 -2.2133 -1.0143
   95SAPE  C310 9482   5.361   5.248   4.857 -0.3688  0.5658  0.2929
   95SAPE  H10X 9483   5.280   5.291   4.795  1.2852  2.1927 -0.8597
   95SAPE  H10Y 9484   5.326   5.149   4.891 -1.5207  1.0263  0.4720
   95SAPE  C311 9485   5.466   5.226   4.743 -0.0818  0.5652 -0.0881
   95SAPE  H11X 9486   5.557   5.191   4.795  3.0987  1.6432 -4.3554
   95SAPE  H11Y 9487   5.499   5.328   4.712  1.2707  0.4692  0.9694
   95SAPE  C312 9488   5.430   5.130   4.626  0.3917 -0.1903  0.1073
   95SAPE  H12X 9489   5.341   5.166   4.571 -0.1957 -0.7756  0.6611
   95SAPE  H12Y 9490   5.397   5.039   4.680 -0.3108  0.3081  0.5469
   95SAPE  C313 9491   5.538   5.107   4.523 -0.5992 -0.0225  0.1042
   95SAPE  H13X 9492   5.631   5.074   4.573  1.9314  0.2216 -3.9493
   95SAPE  H13Y 9493   5.558   5.206   4.476  1.1997 -0.0585  0.7290
   95SAPE  C314 9494   5.483   5.008   4.417  0.1698  0.0062  0.6443
   95SAPE  H14X 9495   5.419   4.936   4.473  1.3088 -1.2182  0.4403
   95SAPE  H14Y 9496   5.564   4.953   4.364 -0.3195 -3.7691  3.3243
   95SAPE  C315 9497   5.391   5.072   4.317 -0.0985 -0.7378 -0.2156
   95SAPE  H15X 9498   5.447   5.164   4.288 -0.3350 -0.2591  0.8001
   95SAPE  H15Y 9499   5.294   5.106   4.358 -0.9055 -1.3003 -1.5820
   95SAPE  C316 9500   5.368   4.981   4.201 -0.4969  0.0827  0.3036
   95SAPE  H16X 9501   5.282   5.020   4.142 -1.4026 -1.1585  0.7382
   95SAPE  H16Y 9502   5.346   4.875   4.228 -0.9439  0.4291  1.3840
   95SAPE  C317 9503   5.482   4.973   4.100  0.6486 -0.1199  0.3438
   95SAPE  H17X 9504   5.574   4.932   4.148  1.8421  0.8834 -0.9719
   95SAPE  H17Y 9505   5.509   5.079   4.077 -1.1513  0.9717  2.7645
   95SAPE  C318 9506   5.454   4.902   3.970 -0.1401  0.3305  0.1606
   95SAPE  H18X 9507   5.537   4.933   3.902  0.4588 -0.4588  0.5119
   95SAPE  H18Y 9508   5.357   4.931   3.926 -0.7370 -1.3040  0.3330
   95SAPE  H18Z 9509   5.451   4.792   3.986 -1.0930  0.2052 -0.7979
   96SAPE     N 9510   3.020   4.880   6.555  0.2806  0.0427 -0.0728
   96SAPE   HN1 9511   3.009   4.819   6.639 -2.1253  2.1089  1.2773
   96SAPE   HN2 9512   3.109   4.932   6.569  0.1124  0.6088 -1.0619
   96SAPE   HN3 9513   2.933   4.935   6.570 -0.6388 -1.2394 -0.5521
   96SAPE   C12 9514   3.003   4.808   6.427 -0.3038  0.2134 -0.5880
   96SAPE  H12A 9515   2.982   4.882   6.346 -0.5511  0.1913 -0.5466
   96SAPE  H12B 9516   2.912   4.744   6.431  0.2864 -0.6275 -0.2946
   96SAPE   C11 9517   3.123   4.719   6.395 -0.2466  0.1969 -0.5431
   96SAPE  H11A 9518   3.081   4.642   6.328 -2.3794 -1.8562  2.8713
   96SAPE  H11B 9519   3.156   4.662   6.484 -2.2469 -3.4091 -1.9130
   96SAPE     P 9520   3.353   4.719   6.279 -0.0540 -0.3872  0.3564
   96SAPE   O13 9521   3.455   4.815   6.246  0.3042  0.0587  0.1318
   96SAPE   O14 9522   3.394   4.604   6.371  0.2018  0.2273  0.3126
   96SAPE   O12 9523   3.229   4.795   6.344  0.1969  1.1072 -0.2233
   96SAPE   O11 9524   3.299   4.647   6.148  0.1262 -0.2959 -0.2933
   96SAPE    C1 9525   3.211   4.720   6.061  0.0433 -0.2950  0.3391
   96SAPE    HA 9526   3.128   4.752   6.127  0.0308  0.0647  0.1504
   96SAPE    HB 9527   3.259   4.813   6.024  0.0936 -0.5770 -0.3237
   96SAPE    C2 9528   3.165   4.640   5.943 -0.3240 -0.2996  0.5613
   96SAPE    HS 9529   3.117   4.547   5.980  0.4090 -0.5191  0.9818
   96SAPE   O21 9530   3.273   4.614   5.855 -0.4005 -0.3263 -0.1886
   96SAPE   C21 9531   3.356   4.510   5.881 -0.0430 -0.9471 -0.5434
   96SAPE   O22 9532   3.332   4.421   5.958  0.0815  0.5466  0.2738
   96SAPE   C22 9533   3.472   4.522   5.791  0.7566 -0.6518  0.4413
   96SAPE   H2R 9534   3.447   4.580   5.699  0.7628  0.7182  1.2708
   96SAPE   H2S 9535   3.548   4.580   5.848  2.6199 -1.5085 -1.0485
   96SAPE    C3 9536   3.054   4.715   5.863  0.0838 -0.3490 -0.9283
   96SAPE    HX 9537   2.964   4.742   5.922 -0.5600 -0.9765 -1.6152
   96SAPE    HY 9538   3.036   4.641   5.782  1.0586 -1.2722 -0.3276
   96SAPE   O31 9539   3.112   4.831   5.801 -0.5423  1.1043  0.1804
   96SAPE   C31 9540   3.022   4.913   5.748  0.2545  0.5488 -0.1003
   96SAPE   O32 9541   2.908   4.888   5.710 -0.1781  0.2879  0.1610
   96SAPE   C32 9542   3.089   5.044   5.722 -0.5496  0.4054 -0.4142
   96SAPE   H2X 9543   3.198   5.025   5.716 -0.6590 -0.1200 -0.7374
   96SAPE   H2Y 9544   3.077   5.084   5.825 -1.6331 -3.8006  1.3023
   96SAPE   C23 9545   3.519   4.377   5.754  0.2564 -1.0520 -0.3323
   96SAPE   H3R 9546   3.440   4.316   5.705  0.4823 -0.9218 -0.8580
   96SAPE   H3S 9547   3.548   4.328   5.850 -0.7944 -1.1437 -0.0470
   96SAPE   C24 9548   3.635   4.373   5.662 -0.4030  0.3427 -0.1154
   96SAPE   H4R 9549   3.658   4.264   5.658 -0.7420  0.2671 -0.0736
   96SAPE   H4S 9550   3.720   4.432   5.704 -0.1787  0.5547 -0.8535
   96SAPE   C25 9551   3.601   4.432   5.528  0.5828  1.0255 -0.2119
   96SAPE   H5R 9552   3.559   4.533   5.539 -1.8396  0.0151  0.4545
   96SAPE   C26 9553   3.600   4.381   5.402 -0.1702  0.0633  0.2116
   96SAPE   H6R 9554   3.590   4.454   5.320  3.1853  0.6660  0.2100
   96SAPE   C27 9555   3.635   4.239   5.359 -0.0045  0.1532 -0.2939
   96SAPE   H7R 9556   3.548   4.184   5.318 -0.0202  0.0341 -0.1012
   96SAPE   H7S 9557   3.660   4.184   5.452  1.1281 -1.0067 -1.2214
   96SAPE   C28 9558   3.750   4.239   5.256  0.4846  0.3172  0.0603
   96SAPE   H8R 9559   3.851   4.253   5.296  0.4734 -2.3751  1.2202
   96SAPE   C29 9560   3.737   4.224   5.119  0.0283 -0.8120  0.1454
   96SAPE   H9R 9561   3.827   4.223   5.055 -0.6707 -0.4109 -0.8652
   96SAPE  C210 9562   3.602   4.228   5.057  0.0764 -0.0415  0.6012
   96SAPE  H10R 9563   3.607   4.300   4.973 -2.6472 -1.0709 -0.5735
   96SAPE  H10S 9564   3.523   4.274   5.120 -2.0649 -3.2079  0.4646
   96SAPE  C211 9565   3.553   4.096   5.006 -0.2118 -0.0417  0.9215
   96SAPE  H11R 9566   3.529   4.030   5.091  2.5987 -1.7019  0.5343
   96SAPE  C212 9567   3.547   4.054   4.879 -0.0991 -0.6434 -0.9776
   96SAPE  H12R 9568   3.512   3.950   4.869 -2.5254  0.1441 -1.1949
   96SAPE  C213 9569   3.571   4.123   4.755 -0.0994  0.1927  0.0868
   96SAPE  H13R 9570   3.640   4.062   4.693 -0.5774 -1.2900  0.9812
   96SAPE  H13S 9571   3.626   4.218   4.775  1.1184  0.1079 -2.4418
   96SAPE  C214 9572   3.441   4.169   4.683  0.0178 -0.1454 -0.0206
   96SAPE  H14R 9573   3.425   4.277   4.700 -1.2538 -0.3309  0.0140
   96SAPE  C215 9574   3.349   4.102   4.610  0.6597  0.0869  0.8544
   96SAPE  H15R 9575   3.263   4.154   4.565  0.8129 -1.0262 -0.7897
   96SAPE  C216 9576   3.352   3.951   4.593  1.0287  0.1510 -0.1430
   96SAPE  H16R 9577   3.451   3.918   4.634  1.8395  1.5195 -0.9273
   96SAPE  H16S 9578   3.356   3.925   4.485 -1.8896  1.4977 -0.6663
   96SAPE  C217 9579   3.245   3.870   4.674 -0.0953  1.0608  0.5782
   96SAPE  H17R 9580   3.264   3.883   4.783 -0.1114 -0.6701  0.8120
   96SAPE  H17S 9581   3.272   3.764   4.653 -4.0601  0.0712 -0.2932
   96SAPE  C218 9582   3.099   3.908   4.640  0.1965 -0.3865 -0.3698
   96SAPE  H18R 9583   3.090   3.898   4.530  1.6189 -0.2774 -0.5169
   96SAPE  H18S 9584   3.076   4.013   4.670  0.0529 -1.0318  1.9561
   96SAPE  C219 9585   2.988   3.826   4.699 -0.3755  0.0328 -0.1859
   96SAPE  H19R 9586   3.011   3.806   4.805 -1.2075 -1.3589 -0.2377
   96SAPE  H19S 9587   2.998   3.731   4.641 -0.8887  0.5831 -1.2157
   96SAPE  C220 9588   2.852   3.893   4.672  0.0197 -0.2217 -0.3005
   96SAPE  H20R 9589   2.761   3.848   4.718 -0.4766  0.2034 -0.8460
   96SAPE  H20S 9590   2.829   3.915   4.566  0.3420  1.7883  0.0119
   96SAPE  H20T 9591   2.848   3.990   4.725 -2.0358 -1.2777  1.6873
   96SAPE   C33 9592   3.014   5.134   5.630 -0.0812  0.4312  0.1151
   96SAPE   H3X 9593   3.059   5.234   5.648  2.1413 -0.2488 -1.3492
   96SAPE   H3Y 9594   2.905   5.132   5.655  0.3143 -1.7812  1.9987
   96SAPE   C34 9595   3.031   5.116   5.478 -0.2535 -0.4715 -0.2192
   96SAPE   H4X 9596   3.134   5.137   5.444 -0.5456  1.9006  0.2036
   96SAPE   H4Y 9597   2.977   5.200   5.430 -1.2900 -1.6512 -1.1805
   96SAPE   C35 9598   2.985   4.980   5.431  0.5440 -0.1950 -0.1259
   96SAPE   H5X 9599   2.881   4.957   5.464  0.6051 -1.5126 -0.8146
   96SAPE   H5Y 9600   3.052   4.898   5.463  0.2914  0.0777  1.1282
   96SAPE   C36 9601   2.983   4.976   5.278 -0.3067  0.1149  0.1400
   96SAPE   H6X 9602   3.085   5.006   5.246  0.1128 -0.2691  1.0883
   96SAPE   H6Y 9603   2.919   5.058   5.238 -1.5702 -0.1270  1.5619
   96SAPE   C37 9604   2.954   4.838   5.221 -0.5596 -0.4083 -1.6524
   96SAPE   H7X 9605   2.870   4.780   5.265  0.1465 -0.0591  0.2714
   96SAPE   H7Y 9606   3.028   4.759   5.248 -2.1016 -0.4733  3.4175
   96SAPE   C38 9607   2.923   4.842   5.075 -0.3228  0.2125 -0.7854
   96SAPE   H8X 9608   2.819   4.878   5.062 -0.2199  0.6019 -0.5254
   96SAPE   H8Y 9609   2.932   4.739   5.032  2.2886 -0.7011  1.6672
   96SAPE   C39 9610   3.014   4.925   4.988 -0.3044 -0.4134 -0.5037
   96SAPE   H9X 9611   3.104   4.865   4.963 -0.5149 -1.3579  0.8928
   96SAPE   H9Y 9612   3.040   5.013   5.050 -2.1145  0.6080 -1.1191
   96SAPE  C310 9613   2.954   4.984   4.858  0.3789  0.3781  0.3100
   96SAPE  H10X 9614   3.018   5.063   4.813 -1.2102  1.1219 -0.6990
   96SAPE  H10Y 9615   2.864   5.036   4.898 -0.6096 -0.2293 -1.0650
   96SAPE  C311 9616   2.904   4.900   4.745 -0.2667 -0.0858 -0.2642
   96SAPE  H11X 9617   2.824   4.944   4.681  0.1123  1.8336  0.4998
   96SAPE  H11Y 9618   2.850   4.816   4.794 -0.8402 -0.6116 -1.7443
   96SAPE  C312 9619   3.017   4.860   4.651 -0.2552  0.3791  0.1276
   96SAPE  H12X 9620   3.080   4.782   4.698 -0.6924 -0.0514  0.0096
   96SAPE  H12Y 9621   3.082   4.943   4.617  0.3408  0.3560  1.1766
   96SAPE  C313 9622   2.970   4.795   4.523  0.3825  0.1892  0.6519
   96SAPE  H13X 9623   3.056   4.803   4.453 -0.4598  0.6605 -0.3642
   96SAPE  H13Y 9624   2.890   4.851   4.469  2.5581  1.2031 -1.7571
   96SAPE  C314 9625   2.941   4.643   4.545 -0.1282  0.8823 -0.1537
   96SAPE  H14X 9626   2.894   4.606   4.451  1.2557 -1.5549  0.0379
   96SAPE  H14Y 9627   2.867   4.632   4.627 -0.8701  5.6657  0.0848
   96SAPE  C315 9628   3.071   4.554   4.564  0.3690 -0.1785  0.0036
   96SAPE  H15X 9629   3.118   4.589   4.658 -2.5648  0.4555  1.3418
   96SAPE  H15Y 9630   3.138   4.587   4.482  0.7095  0.8482  0.6769
   96SAPE  C316 9631   3.035   4.409   4.564  0.1646  0.3127  1.0210
   96SAPE  H16X 9632   2.969   4.378   4.648  1.9412 -0.3737  2.2388
   96SAPE  H16Y 9633   3.131   4.359   4.590  0.6101  0.9064  0.5415
   96SAPE  C317 9634   2.988   4.354   4.429 -0.0280 -0.1653  0.2947
   96SAPE  H17X 9635   3.077   4.376   4.367  0.9239  0.9003  1.9619
   96SAPE  H17Y 9636   2.891   4.394   4.390  0.1066 -0.1894 -0.0682
   96SAPE  C318 9637   2.969   4.200   4.422  0.0583  0.3407  0.3862
   96SAPE  H18X 9638   3.071   4.161   4.443  1.8831  4.5651  0.3121
   96SAPE  H18Y 9639   2.946   4.166   4.319 -0.2163 -2.6544  1.3280
   96SAPE  H18Z 9640   2.889   4.170   4.493  0.1584  0.5110  0.5729
   97SAPE     N 9641   1.565   1.617   6.545 -0.0955  0.1864 -0.1525
   97SAPE   HN1 9642   1.636   1.543   6.564 -0.8314 -0.5319 -0.1473
   97SAPE   HN2 9643   1.487   1.595   6.610  1.9085 -1.7742  1.8009
   97SAPE   HN3 9644   1.532   1.610   6.447  2.4122 -1.1586 -0.9922
   97SAPE   C12 9645   1.634   1.741   6.587  0.3952 -0.6592 -0.8265
   97SAPE  H12A 9646   1.565   1.826   6.566  3.3461  1.6056 -2.2061
   97SAPE  H12B 9647   1.726   1.752   6.526  0.0477 -0.7848 -1.3812
   97SAPE   C11 9648   1.670   1.735   6.741  0.9247 -0.2772  0.3477
   97SAPE  H11A 9649   1.585   1.685   6.792  0.9360 -1.3525 -0.6234
   97SAPE  H11B 9650   1.691   1.840   6.770  1.2926 -0.8903  2.5077
   97SAPE     P 9651   1.812   1.517   6.791 -0.2805  0.3777 -0.6864
   97SAPE   O13 9652   1.958   1.502   6.779 -0.2638  0.0730  0.3801
   97SAPE   O14 9653   1.758   1.497   6.927  0.2207 -0.4496 -0.2116
   97SAPE   O12 9654   1.780   1.662   6.757  0.6594  0.3409 -0.0217
   97SAPE   O11 9655   1.734   1.437   6.679 -0.2856 -0.2738 -0.0410
   97SAPE    C1 9656   1.766   1.302   6.642 -0.1445 -0.5309 -0.2484
   97SAPE    HA 9657   1.812   1.242   6.724  0.9048 -0.5046 -0.8005
   97SAPE    HB 9658   1.668   1.257   6.618 -0.0582 -0.9998  0.2564
   97SAPE    C2 9659   1.848   1.297   6.516  0.3122 -0.3907 -0.1494
   97SAPE    HS 9660   1.945   1.335   6.556 -0.3336  2.0337 -0.6987
   97SAPE   O21 9661   1.794   1.384   6.417  0.1101 -0.0620  0.2021
   97SAPE   C21 9662   1.891   1.441   6.342  0.0243  0.6577  0.1773
   97SAPE   O22 9663   2.009   1.422   6.358 -0.0475 -0.3511  0.0624
   97SAPE   C22 9664   1.831   1.528   6.223 -0.0516  0.0510 -0.1632
   97SAPE   H2R 9665   1.747   1.581   6.272  1.7430  0.0725  3.1801
   97SAPE   H2S 9666   1.900   1.609   6.188  1.4008 -0.6006  1.0756
   97SAPE    C3 9667   1.850   1.156   6.461  0.8439  0.1857 -0.5707
   97SAPE    HX 9668   1.754   1.127   6.415 -0.5000  3.4974 -0.1585
   97SAPE    HY 9669   1.863   1.087   6.547  2.9185  0.0828 -0.9041
   97SAPE   O31 9670   1.962   1.140   6.371  0.1474 -0.1278 -0.2592
   97SAPE   C31 9671   1.952   1.029   6.293 -0.0262  1.4604  0.2089
   97SAPE   O32 9672   1.879   0.933   6.319  0.1361 -0.5114 -0.3627
   97SAPE   C32 9673   2.055   1.040   6.180 -0.2643  0.3621 -1.3683
   97SAPE   H2X 9674   2.150   1.043   6.238 -1.8711  0.3260  1.4205
   97SAPE   H2Y 9675   2.038   1.137   6.128 -1.9969  1.0845  0.4242
   97SAPE   C23 9676   1.798   1.432   6.101 -0.8912 -0.6593 -0.2140
   97SAPE   H3R 9677   1.718   1.491   6.051 -1.0784  0.6719  1.5511
   97SAPE   H3S 9678   1.752   1.337   6.136  1.3280 -2.0035 -0.7249
   97SAPE   C24 9679   1.911   1.416   5.995 -0.1913  0.2068  0.1510
   97SAPE   H4R 9680   1.999   1.403   6.061  0.5431  1.2733 -0.5890
   97SAPE   H4S 9681   1.930   1.495   5.919  0.1513  1.3380  1.3712
   97SAPE   C25 9682   1.900   1.282   5.929  0.2864 -0.5230 -0.5110
   97SAPE   H5R 9683   1.909   1.204   6.006 -0.4507  2.3849  2.8000
   97SAPE   C26 9684   1.880   1.240   5.803 -0.2007  0.3608  0.4362
   97SAPE   H6R 9685   1.881   1.132   5.779 -1.1570  1.0632 -3.5670
   97SAPE   C27 9686   1.853   1.325   5.673 -1.0318 -0.4943  0.2769
   97SAPE   H7R 9687   1.938   1.295   5.608 -0.6079  0.7229  0.2380
   97SAPE   H7S 9688   1.870   1.434   5.690  1.0978 -0.9673  1.5548
   97SAPE   C28 9689   1.723   1.301   5.605  0.2014 -0.2884  0.2650
   97SAPE   H8R 9690   1.639   1.317   5.674  0.1556  0.8909 -0.0352
   97SAPE   C29 9691   1.705   1.256   5.479 -0.5219  0.6716 -0.3876
   97SAPE   H9R 9692   1.599   1.241   5.453 -1.2937  0.2005  2.6684
   97SAPE  C210 9693   1.819   1.234   5.378  1.0256 -0.4977 -0.0421
   97SAPE  H10R 9694   1.828   1.123   5.371 -1.5041 -0.8381  0.6539
   97SAPE  H10S 9695   1.914   1.281   5.409  1.4531  0.1150 -2.1244
   97SAPE  C211 9696   1.768   1.278   5.239 -0.5684 -0.5179 -0.4838
   97SAPE  H11R 9697   1.671   1.243   5.201 -1.1628 -0.0137  0.5341
   97SAPE  C212 9698   1.835   1.351   5.150 -0.8595  0.1219  0.2922
   97SAPE  H12R 9699   1.805   1.355   5.044  0.3299  2.4352 -0.0156
   97SAPE  C213 9700   1.971   1.414   5.170 -0.3233  0.2334 -0.9953
   97SAPE  H13R 9701   2.034   1.366   5.092 -0.0380 -1.3463  0.1595
   97SAPE  H13S 9702   2.014   1.394   5.270 -0.5443 -1.7773 -1.2468
   97SAPE  C214 9703   1.964   1.555   5.131  1.0322 -0.2745 -0.3443
   97SAPE  H14R 9704   1.867   1.599   5.157  1.6083  1.7322 -1.4324
   97SAPE  C215 9705   2.054   1.639   5.083 -0.3335 -0.4209 -0.1384
   97SAPE  H15R 9706   2.023   1.743   5.065  3.2654  0.8428  0.0436
   97SAPE  C216 9707   2.199   1.608   5.044 -0.2776 -0.0819  0.3452
   97SAPE  H16R 9708   2.238   1.518   5.095  0.5171  0.6477  1.0471
   97SAPE  H16S 9709   2.269   1.693   5.057  0.3537 -0.0640 -2.3923
   97SAPE  C217 9710   2.203   1.578   4.894  0.5926 -0.0002  0.1958
   97SAPE  H17R 9711   2.154   1.664   4.843  3.2024  0.3256 -2.0454
   97SAPE  H17S 9712   2.141   1.488   4.877  1.5844 -0.9369  1.3544
   97SAPE  C218 9713   2.337   1.556   4.829 -0.1245  0.0895 -0.3114
   97SAPE  H18R 9714   2.394   1.487   4.895  1.2472  0.4047 -1.1270
   97SAPE  H18S 9715   2.392   1.652   4.828  0.8902 -0.4839 -0.1003
   97SAPE  C219 9716   2.332   1.492   4.692  0.1505 -0.0113 -0.2115
   97SAPE  H19R 9717   2.249   1.528   4.626  1.1346  0.8968 -0.9845
   97SAPE  H19S 9718   2.321   1.382   4.706 -3.4364  0.4265  1.6804
   97SAPE  C220 9719   2.456   1.514   4.603 -0.5826  0.2821 -0.3502
   97SAPE  H20R 9720   2.461   1.437   4.524  0.2490  2.1430 -2.1972
   97SAPE  H20S 9721   2.550   1.515   4.663 -0.2229 -1.7298 -0.8187
   97SAPE  H20T 9722   2.431   1.601   4.539 -1.7914 -0.1834 -0.5394
   97SAPE   C33 9723   2.048   0.931   6.071 -0.0083 -0.1011 -0.4350
   97SAPE   H3X 9724   1.952   0.937   6.015 -1.4139  2.1366  2.0004
   97SAPE   H3Y 9725   2.055   0.829   6.115  0.3562 -0.1131 -0.5195
   97SAPE   C34 9726   2.167   0.939   5.968 -0.7992 -0.0054 -0.0993
   97SAPE   H4X 9727   2.256   0.907   6.026 -0.6222  0.3833 -0.1571
   97SAPE   H4Y 9728   2.169   1.047   5.942  1.7082  0.4160  1.4910
   97SAPE   C35 9729   2.146   0.852   5.842 -0.2324  1.1388  0.4926
   97SAPE   H5X 9730   2.114   0.750   5.871  1.5868  0.7894  1.4134
   97SAPE   H5Y 9731   2.247   0.851   5.794 -1.7460 -0.8492 -3.0549
   97SAPE   C36 9732   2.067   0.918   5.729  0.2635 -0.2481  0.7849
   97SAPE   H6X 9733   2.078   1.029   5.728  2.0926 -0.3891  1.1810
   97SAPE   H6Y 9734   1.959   0.893   5.741  0.7596 -2.5860  0.8090
   97SAPE   C37 9735   2.097   0.861   5.590 -0.7743  0.2515  0.6423
   97SAPE   H7X 9736   2.104   0.751   5.597  1.1388  0.0434 -2.3873
   97SAPE   H7Y 9737   2.192   0.901   5.547 -1.7750  0.8018 -1.2017
   97SAPE   C38 9738   1.994   0.888   5.475  0.5000 -0.2344  0.2290
   97SAPE   H8X 9739   1.970   0.996   5.479 -2.2599 -0.6595 -1.8353
   97SAPE   H8Y 9740   1.903   0.825   5.487  0.3539 -0.2826 -1.0572
   97SAPE   C39 9741   2.052   0.853   5.337 -1.0053  0.3520  0.4318
   97SAPE   H9X 9742   2.060   0.742   5.325  1.1266  0.6335 -1.5803
   97SAPE   H9Y 9743   2.155   0.895   5.332 -0.9017 -0.0634 -2.7140
   97SAPE  C310 9744   1.959   0.917   5.230 -0.4307  0.1248 -0.1555
   97SAPE  H10X 9745   1.967   1.028   5.234 -0.3623  0.2734 -2.7191
   97SAPE  H10Y 9746   1.852   0.896   5.248 -0.6078  1.0395 -0.0762
   97SAPE  C311 9747   1.994   0.901   5.086 -0.0699 -0.5118 -0.5872
   97SAPE  H11X 9748   2.090   0.947   5.055 -0.2007 -0.1901 -0.5173
   97SAPE  H11Y 9749   1.919   0.959   5.029  0.0938 -1.3813 -1.7341
   97SAPE  C312 9750   1.997   0.754   5.037  1.4521 -0.1127 -1.1004
   97SAPE  H12X 9751   1.913   0.701   5.085  2.9013 -0.5701  1.0842
   97SAPE  H12Y 9752   2.082   0.704   5.087  0.4624  0.1944  0.9777
   97SAPE  C313 9753   1.985   0.737   4.886  0.4243 -0.4230 -0.2433
   97SAPE  H13X 9754   1.904   0.808   4.861 -0.0421 -0.9914 -0.3720
   97SAPE  H13Y 9755   1.951   0.636   4.855  2.1082 -1.7407  1.8434
   97SAPE  C314 9756   2.114   0.766   4.808 -0.2804 -0.5450  0.0721
   97SAPE  H14X 9757   2.199   0.719   4.863  0.1748  2.5442  2.3177
   97SAPE  H14Y 9758   2.147   0.872   4.817 -1.0245 -0.2735 -0.3843
   97SAPE  C315 9759   2.097   0.717   4.662  0.3493 -0.1021  0.1513
   97SAPE  H15X 9760   2.001   0.761   4.627  0.7576  0.7118  0.0634
   97SAPE  H15Y 9761   2.114   0.608   4.646  3.4691  0.5214 -1.4211
   97SAPE  C316 9762   2.225   0.767   4.581  0.0874  0.4725  0.6011
   97SAPE  H16X 9763   2.319   0.765   4.640  0.2150 -3.3377  0.4897
   97SAPE  H16Y 9764   2.203   0.873   4.556 -0.5780  0.1687 -0.1394
   97SAPE  C317 9765   2.236   0.696   4.450 -0.4594  0.3259  0.0069
   97SAPE  H17X 9766   2.137   0.699   4.399  0.1437 -0.4685 -1.2545
   97SAPE  H17Y 9767   2.259   0.587   4.455 -0.8585  0.1949 -0.8376
   97SAPE  C318 9768   2.339   0.758   4.349 -0.6027  0.2976 -0.2661
   97SAPE  H18X 9769   2.438   0.726   4.389 -0.4143  1.2440  0.0403
   97SAPE  H18Y 9770   2.336   0.869   4.346  2.0007  0.4523  0.2600
   97SAPE  H18Z 9771   2.330   0.735   4.241  1.2994 -0.1768 -0.3711
   98SAPE     N 9772   1.953   6.824   6.568 -0.6000  0.4246 -0.1637
   98SAPE   HN1 9773   1.943   6.720   6.576 -1.4330  0.4934 -0.1944
   98SAPE   HN2 9774   1.859   6.869   6.574 -1.3644 -0.8404 -1.7247
   98SAPE   HN3 9775   2.010   6.850   6.485 -0.5231  0.5072 -0.0834
   98SAPE   C12 9776   2.026   6.867   6.691  0.1215 -0.0221  0.0893
   98SAPE  H12A 9777   2.081   6.777   6.725  0.7830  0.8165  1.3168
   98SAPE  H12B 9778   1.950   6.889   6.770 -0.9150 -1.5112 -0.4382
   98SAPE   C11 9779   2.117   6.987   6.672 -0.0949  0.0210  0.1869
   98SAPE  H11A 9780   2.204   6.966   6.607 -0.6985  1.4159 -1.1381
   98SAPE  H11B 9781   2.151   7.019   6.773  0.7621  0.7695 -0.3333
   98SAPE     P 9782   2.099   7.234   6.603 -0.2003  0.1102 -0.3292
   98SAPE   O13 9783   2.007   7.307   6.517 -0.2083 -0.4183 -0.0606
   98SAPE   O14 9784   2.105   7.276   6.744 -0.5457  0.5063  0.1616
   98SAPE   O12 9785   2.042   7.088   6.612 -0.5246 -0.4900  0.4292
   98SAPE   O11 9786   2.244   7.220   6.531  0.2373 -0.4054 -0.0608
   98SAPE    C1 9787   2.286   7.305   6.420  0.2730 -0.0605 -0.1465
   98SAPE    HA 9788   2.236   7.404   6.417 -0.4388 -0.4104 -0.1238
   98SAPE    HB 9789   2.395   7.316   6.436  0.5320 -1.6414 -0.5996
   98SAPE    C2 9790   2.282   7.237   6.276 -0.8974  0.3214  0.1807
   98SAPE    HS 9791   2.348   7.288   6.203 -0.4886  0.8942  0.9407
   98SAPE   O21 9792   2.149   7.232   6.217 -0.2231  0.1664 -0.4615
   98SAPE   C21 9793   2.100   7.348   6.177  0.2477  0.1753  0.1200
   98SAPE   O22 9794   2.157   7.454   6.180  0.0073  0.9435 -0.0201
   98SAPE   C22 9795   1.954   7.337   6.125  0.4917  0.5799 -0.9769
   98SAPE   H2R 9796   1.893   7.305   6.212  1.7376 -0.5290 -0.4752
   98SAPE   H2S 9797   1.917   7.441   6.110  0.0029  0.4937 -0.3902
   98SAPE    C3 9798   2.337   7.100   6.293 -0.6674  0.2492  0.4907
   98SAPE    HX 9799   2.272   7.039   6.359  1.2214 -1.1383  1.1657
   98SAPE    HY 9800   2.432   7.116   6.349  1.1134  0.6856 -2.4006
   98SAPE   O31 9801   2.374   7.039   6.176  0.0895  0.0511 -0.1382
   98SAPE   C31 9802   2.277   6.970   6.108  0.6942 -0.1260  0.0719
   98SAPE   O32 9803   2.162   6.954   6.142  0.1195  0.4283  0.4039
   98SAPE   C32 9804   2.340   6.888   5.985 -0.4500 -0.1877 -0.2634
   98SAPE   H2X 9805   2.415   6.828   6.041  0.4013  0.3754 -0.7752
   98SAPE   H2Y 9806   2.395   6.962   5.923  0.6503 -1.3413 -0.7161
   98SAPE   C23 9807   1.925   7.248   6.003  0.1927  0.2621 -0.1107
   98SAPE   H3R 9808   1.818   7.223   6.015  0.3294  0.2698  1.3694
   98SAPE   H3S 9809   1.977   7.151   6.019  0.1915  0.6524  2.9835
   98SAPE   C24 9810   1.956   7.320   5.874  0.1831 -1.1713  0.0652
   98SAPE   H4R 9811   2.044   7.385   5.888  1.4431 -2.4802 -1.3195
   98SAPE   H4S 9812   1.876   7.384   5.832 -0.3888 -2.3056 -0.6498
   98SAPE   C25 9813   1.994   7.218   5.774 -0.4633 -0.0290  0.0183
   98SAPE   H5R 9814   2.008   7.118   5.819  0.2657 -0.9774 -2.1580
   98SAPE   C26 9815   2.001   7.229   5.638 -0.8578 -0.4347 -0.7821
   98SAPE   H6R 9816   2.032   7.147   5.572  0.9845  2.6549 -4.1318
   98SAPE   C27 9817   1.971   7.359   5.565  0.1926 -0.1016  0.8700
   98SAPE   H7R 9818   2.028   7.362   5.470 -1.3925 -0.3782 -0.1370
   98SAPE   H7S 9819   2.018   7.447   5.613 -0.4643  2.0720 -2.1867
   98SAPE   C28 9820   1.824   7.395   5.538  0.1047  0.3032  0.3495
   98SAPE   H8R 9821   1.760   7.418   5.625 -0.4167 -2.1550  0.6963
   98SAPE   C29 9822   1.771   7.393   5.411  0.2041  0.8211  0.1722
   98SAPE   H9R 9823   1.662   7.411   5.405  0.1306  0.1112 -0.8505
   98SAPE  C210 9824   1.836   7.373   5.272  0.0331 -0.2561  0.0428
   98SAPE  H10R 9825   1.926   7.311   5.288  3.8060  4.7238  0.6619
   98SAPE  H10S 9826   1.870   7.476   5.249  0.0724  0.1888  1.9242
   98SAPE  C211 9827   1.739   7.320   5.173  0.3878  0.0172 -0.4071
   98SAPE  H11R 9828   1.634   7.308   5.202  0.8179 -0.5966  0.9486
   98SAPE  C212 9829   1.757   7.282   5.045 -0.1176  0.2005  0.0478
   98SAPE  H12R 9830   1.673   7.247   4.984  0.1685 -1.6940  0.6689
   98SAPE  C213 9831   1.894   7.281   4.980  0.1589  0.0718 -0.2561
   98SAPE  H13R 9832   1.960   7.359   5.024  0.3573 -0.8750  1.1803
   98SAPE  H13S 9833   1.883   7.299   4.871  0.4800 -0.3843 -0.3638
   98SAPE  C214 9834   1.959   7.145   4.997 -0.3865  0.0583 -0.0120
   98SAPE  H14R 9835   1.894   7.057   5.002 -0.6659  0.2637  0.0156
   98SAPE  C215 9836   2.092   7.123   4.998  0.4304  0.4746 -0.4186
   98SAPE  H15R 9837   2.117   7.016   5.002  1.3754  0.7079  0.3058
   98SAPE  C216 9838   2.200   7.226   4.977  0.0211 -0.0883 -0.3702
   98SAPE  H16R 9839   2.300   7.193   5.011 -0.2005 -0.4256 -0.0285
   98SAPE  H16S 9840   2.167   7.313   5.038 -0.1163  0.8074 -1.6804
   98SAPE  C217 9841   2.205   7.268   4.833 -0.4590  0.2279  0.3798
   98SAPE  H17R 9842   2.227   7.377   4.832  2.6584 -0.3050 -0.3218
   98SAPE  H17S 9843   2.120   7.239   4.767  0.6954 -1.0909 -0.5909
   98SAPE  C218 9844   2.327   7.206   4.758  0.1383 -0.2997  0.2336
   98SAPE  H18R 9845   2.418   7.233   4.816 -0.0961 -2.5166  1.7801
   98SAPE  H18S 9846   2.331   7.253   4.658 -0.9268  0.4172  0.5024
   98SAPE  C219 9847   2.315   7.054   4.739 -0.3905 -0.3301  0.4199
   98SAPE  H19R 9848   2.230   7.054   4.666  1.1561  0.9300 -1.4684
   98SAPE  H19S 9849   2.301   7.010   4.840 -0.9323 -1.6818 -0.2073
   98SAPE  C220 9850   2.437   6.994   4.677  0.1516 -0.0541 -0.1310
   98SAPE  H20R 9851   2.445   7.015   4.568  0.1932 -0.2132 -0.1577
   98SAPE  H20S 9852   2.430   6.884   4.680  2.2584 -0.2833 -1.6815
   98SAPE  H20T 9853   2.527   7.033   4.730  0.1114 -0.4304  0.2170
   98SAPE   C33 9854   2.244   6.791   5.910 -0.1223 -0.4041  0.3085
   98SAPE   H3X 9855   2.174   6.742   5.981 -0.9268  0.7434  0.3353
   98SAPE   H3Y 9856   2.316   6.715   5.874  1.0356  0.7206  0.1608
   98SAPE   C34 9857   2.179   6.849   5.787  0.2974 -0.1851 -0.0140
   98SAPE   H4X 9858   2.264   6.892   5.728  1.6657 -2.7359 -0.0364
   98SAPE   H4Y 9859   2.090   6.911   5.811  0.1486 -0.7612  0.9543
   98SAPE   C35 9860   2.127   6.742   5.691  0.0474 -0.4241 -1.0199
   98SAPE   H5X 9861   2.037   6.687   5.726 -1.1250  1.5962 -0.6814
   98SAPE   H5Y 9862   2.212   6.681   5.655  1.1977  1.3624 -1.5036
   98SAPE   C36 9863   2.072   6.797   5.555 -0.1671  0.5218 -0.1820
   98SAPE   H6X 9864   1.998   6.879   5.565 -0.7374  0.1947 -1.5944
   98SAPE   H6Y 9865   2.017   6.714   5.506  0.0688 -0.6978  1.5250
   98SAPE   C37 9866   2.174   6.847   5.457 -0.0791  0.2797 -0.0616
   98SAPE   H7X 9867   2.236   6.764   5.417 -0.2738  0.0705  0.0715
   98SAPE   H7Y 9868   2.232   6.921   5.515  1.1877  0.2608 -1.2329
   98SAPE   C38 9869   2.099   6.917   5.338  0.3739 -0.1409 -0.0530
   98SAPE   H8X 9870   2.171   6.965   5.269  0.5850 -1.1253 -0.5326
   98SAPE   H8Y 9871   2.032   6.996   5.379  1.0320 -0.1004  0.9996
   98SAPE   C39 9872   2.016   6.821   5.245 -0.1761 -0.1743  0.4588
   98SAPE   H9X 9873   1.982   6.894   5.168  0.2073  1.8379  2.0889
   98SAPE   H9Y 9874   1.931   6.773   5.297 -0.1625  0.0661  0.7072
   98SAPE  C310 9875   2.095   6.716   5.165 -0.1016 -0.8893 -0.1727
   98SAPE  H10X 9876   2.023   6.648   5.114 -0.2695 -1.2183  0.4874
   98SAPE  H10Y 9877   2.139   6.653   5.245 -0.4387  1.0392  1.6304
   98SAPE  C311 9878   2.199   6.765   5.068  0.0034 -0.4407  0.0950
   98SAPE  H11X 9879   2.258   6.844   5.119  0.8070 -0.5118 -0.6916
   98SAPE  H11Y 9880   2.136   6.817   4.993 -1.2519  0.9554  2.0314
   98SAPE  C312 9881   2.273   6.648   5.005 -0.3960 -0.5968 -0.3008
   98SAPE  H12X 9882   2.325   6.591   5.086 -1.6582 -1.5536 -0.1396
   98SAPE  H12Y 9883   2.351   6.687   4.935 -1.3736 -0.5883 -1.4123
   98SAPE  C313 9884   2.191   6.552   4.920 -0.2326 -0.2200  0.5880
   98SAPE  H13X 9885   2.144   6.610   4.838  0.0301 -0.5134  0.2212
   98SAPE  H13Y 9886   2.117   6.505   4.989 -0.2199 -0.4111  0.4732
   98SAPE  C314 9887   2.268   6.444   4.847 -0.2651 -0.1753  0.0158
   98SAPE  H14X 9888   2.312   6.366   4.912 -0.7448 -1.8862 -1.6310
   98SAPE  H14Y 9889   2.350   6.496   4.792  2.2069 -2.2892  1.4427
   98SAPE  C315 9890   2.170   6.386   4.748  0.3138  0.6444  0.1877
   98SAPE  H15X 9891   2.140   6.464   4.676 -0.0019  0.5312  0.1976
   98SAPE  H15Y 9892   2.085   6.350   4.809  0.6471  2.7123  2.0161
   98SAPE  C316 9893   2.216   6.264   4.668  0.0974 -0.2788 -0.1450
   98SAPE  H16X 9894   2.317   6.289   4.629 -0.3510  2.3729  0.2250
   98SAPE  H16Y 9895   2.155   6.252   4.576 -0.9168  0.0742  0.4648
   98SAPE  C317 9896   2.225   6.137   4.748  0.5131  1.1078 -0.5729
   98SAPE  H17X 9897   2.128   6.131   4.802  1.3007  0.2920  0.7905
   98SAPE  H17Y 9898   2.317   6.149   4.809  0.2890 -2.0208  0.5266
   98SAPE  C318 9899   2.230   6.018   4.662  0.3321 -0.2356  0.4168
   98SAPE  H18X 9900   2.252   5.921   4.712  2.1388 -0.4069 -0.6400
   98SAPE  H18Y 9901   2.312   6.029   4.588  0.7826 -0.8028  0.8171
   98SAPE  H18Z 9902   2.131   5.998   4.616 -0.1261  0.0621  1.2350
   99SAPE     N 9903   1.562   0.440   6.756 -0.1876 -0.3840  0.6080
   99SAPE   HN1 9904   1.490   0.374   6.719 -0.5246  0.2187  0.1752
   99SAPE   HN2 9905   1.511   0.530   6.764  0.3749  0.4037 -2.9432
   99SAPE   HN3 9906   1.629   0.443   6.676  0.4897 -1.1088  1.1233
   99SAPE   C12 9907   1.628   0.386   6.877  0.5848  0.1358  0.3308
   99SAPE  H12A 9908   1.547   0.388   6.954  0.5525  1.8700  0.2738
   99SAPE  H12B 9909   1.698   0.468   6.904  1.9133 -0.5023 -1.0359
   99SAPE   C11 9910   1.690   0.245   6.862  0.3530 -0.2159  0.1842
   99SAPE  H11A 9911   1.740   0.210   6.955  0.2225  1.6570  1.0157
   99SAPE  H11B 9912   1.772   0.245   6.787  0.1415 -1.9210 -0.0803
   99SAPE     P 9913   1.640   0.005   6.787 -0.0186 -0.1785 -0.1200
   99SAPE   O13 9914   1.749  -0.035   6.882  0.0418 -0.0517  0.2976
   99SAPE   O14 9915   1.519  -0.090   6.793 -0.4835  0.0798  0.5178
   99SAPE   O12 9916   1.594   0.154   6.815  0.1837  0.0732 -0.6086
   99SAPE   O11 9917   1.698   0.011   6.640  0.0748  0.8020 -0.0170
   99SAPE    C1 9918   1.675   0.121   6.552 -0.4429 -0.0208 -0.6606
   99SAPE    HA 9919   1.598   0.190   6.592  0.4557  1.5245 -1.5351
   99SAPE    HB 9920   1.768   0.177   6.530 -1.0327  0.8936 -0.8432
   99SAPE    C2 9921   1.618   0.065   6.416 -0.6067  0.0891  0.6350
   99SAPE    HS 9922   1.526   0.010   6.447  0.4769 -1.3053  1.5165
   99SAPE   O21 9923   1.717  -0.031   6.369  0.4633  0.2160  0.1663
   99SAPE   C21 9924   1.671  -0.137   6.302  0.0295 -0.4880 -0.2336
   99SAPE   O22 9925   1.554  -0.162   6.266  0.4197 -0.1660  0.2072
   99SAPE   C22 9926   1.791  -0.224   6.257 -0.4071 -0.4553 -0.1535
   99SAPE   H2R 9927   1.886  -0.184   6.297 -0.1127 -2.3486  1.1665
   99SAPE   H2S 9928   1.774  -0.316   6.317 -2.1677  0.5789  1.0684
   99SAPE    C3 9929   1.595   0.180   6.308 -0.4769 -0.6113 -0.1294
   99SAPE    HX 9930   1.695   0.226   6.291 -1.0308  0.2163 -1.2447
   99SAPE    HY 9931   1.524   0.250   6.358 -0.6194 -1.0005  0.2173
   99SAPE   O31 9932   1.539   0.123   6.183  0.2323  0.0618 -0.1217
   99SAPE   C31 9933   1.405   0.096   6.180 -0.6981 -0.5282  0.6682
   99SAPE   O32 9934   1.327   0.114   6.275 -0.3871  0.2977  0.7947
   99SAPE   C32 9935   1.371   0.075   6.034 -0.0661 -0.3739  0.3903
   99SAPE   H2X 9936   1.439  -0.003   5.993 -0.7026  0.2052 -1.9387
   99SAPE   H2Y 9937   1.391   0.172   5.984 -1.5651  1.1800  2.6675
   99SAPE   C23 9938   1.798  -0.261   6.109 -0.5401  0.2709  0.0240
   99SAPE   H3R 9939   1.701  -0.310   6.089 -1.2971  1.2785  1.0946
   99SAPE   H3S 9940   1.873  -0.343   6.102 -1.1271 -0.3184  0.6107
   99SAPE   C24 9941   1.839  -0.156   6.002  0.0492  0.1980  0.0795
   99SAPE   H4R 9942   1.870  -0.212   5.911  2.0105  0.9808  0.2142
   99SAPE   H4S 9943   1.940  -0.127   6.040 -0.0110  0.9447 -0.3057
   99SAPE   C25 9944   1.746  -0.036   5.988  0.0223 -0.3919 -0.2690
   99SAPE   H5R 9945   1.760   0.049   6.056 -0.8022  1.2836 -2.0866
   99SAPE   C26 9946   1.667  -0.018   5.880  0.3256  0.9430 -0.2729
   99SAPE   H6R 9947   1.594   0.063   5.868 -0.3730  0.3622 -0.0425
   99SAPE   C27 9948   1.641  -0.128   5.766 -0.8004  0.0151 -0.3535
   99SAPE   H7R 9949   1.537  -0.112   5.731 -1.2523  0.9522  1.3182
   99SAPE   H7S 9950   1.653  -0.234   5.797  0.9908 -0.1239 -1.3641
   99SAPE   C28 9951   1.746  -0.113   5.657  0.2874 -0.1210 -0.5806
   99SAPE   H8R 9952   1.849  -0.130   5.692  1.4411  0.7022 -3.2750
   99SAPE   C29 9953   1.719  -0.085   5.527  0.2244  0.6907 -0.6363
   99SAPE   H9R 9954   1.800  -0.093   5.452  0.8407 -0.6750  0.1368
   99SAPE  C210 9955   1.585  -0.036   5.469 -0.2226 -0.0967  0.6708
   99SAPE  H10R 9956   1.527   0.021   5.544 -1.9307 -1.2593  0.3161
   99SAPE  H10S 9957   1.517  -0.122   5.449 -3.3730  2.5728 -1.1406
   99SAPE  C211 9958   1.612   0.047   5.346  0.2448 -0.2940 -0.0073
   99SAPE  H11R 9959   1.642   0.152   5.356 -0.8611 -0.0778  1.4505
   99SAPE  C212 9960   1.606   0.009   5.218  0.0023 -0.2669 -0.7182
   99SAPE  H12R 9961   1.635   0.081   5.140 -1.2691 -1.6351 -2.5482
   99SAPE  C213 9962   1.574  -0.122   5.151  0.0674 -0.1518 -0.4309
   99SAPE  H13R 9963   1.504  -0.104   5.066  0.6156  0.1820 -0.8211
   99SAPE  H13S 9964   1.508  -0.177   5.221  0.5178  0.6661  0.6501
   99SAPE  C214 9965   1.695  -0.203   5.129  0.1160  0.6319 -0.3542
   99SAPE  H14R 9966   1.792  -0.158   5.156  0.8717 -0.3062 -1.3817
   99SAPE  C215 9967   1.696  -0.335   5.090  0.0662  0.0450  0.9718
   99SAPE  H15R 9968   1.793  -0.385   5.101 -0.2985 -0.5606  1.5148
   99SAPE  C216 9969   1.587  -0.434   5.055 -0.1846 -0.5550 -0.0539
   99SAPE  H16R 9970   1.485  -0.391   5.050  0.1571  0.3430  0.4302
   99SAPE  H16S 9971   1.584  -0.507   5.139 -1.7888  2.4097  2.7032
   99SAPE  C217 9972   1.604  -0.496   4.918 -0.4002 -0.5133  0.5990
   99SAPE  H17R 9973   1.598  -0.419   4.838  1.0214  0.6394  1.5569
   99SAPE  H17S 9974   1.517  -0.565   4.906 -0.2731 -0.4364 -1.0744
   99SAPE  C218 9975   1.731  -0.588   4.903 -0.2382  0.5595  0.1673
   99SAPE  H18R 9976   1.743  -0.648   4.996  2.2768 -0.1383 -0.5287
   99SAPE  H18S 9977   1.818  -0.520   4.900 -0.0179  0.2535 -0.3729
   99SAPE  C219 9978   1.743  -0.658   4.765 -0.1427  0.0558  0.3314
   99SAPE  H19R 9979   1.664  -0.736   4.755 -0.8789  0.9720 -1.3406
   99SAPE  H19S 9980   1.840  -0.712   4.769 -0.7276 -1.3339 -1.9781
   99SAPE  C220 9981   1.732  -0.568   4.638  0.5579  0.1692 -0.0630
   99SAPE  H20R 9982   1.808  -0.487   4.642 -0.9296  1.6071 -0.0840
   99SAPE  H20S 9983   1.632  -0.519   4.641  0.6974  0.5349 -1.0361
   99SAPE  H20T 9984   1.739  -0.624   4.542  0.3816 -1.8063  1.0366
   99SAPE   C33 9985   1.221   0.035   6.020 -1.0455 -0.2173 -0.2684
   99SAPE   H3X 9986   1.160   0.128   6.009 -0.6032  0.2285  0.8483
   99SAPE   H3Y 9987   1.187  -0.015   6.113  1.9985  0.4550  1.3298
   99SAPE   C34 9988   1.190  -0.058   5.898 -0.2318  0.5171  0.1074
   99SAPE   H4X 9989   1.093  -0.111   5.903  1.2395 -2.3259  0.9065
   99SAPE   H4Y 9990   1.259  -0.145   5.903 -0.1178  0.5756 -0.3996
   99SAPE   C35 9991   1.224   0.001   5.767 -0.2603 -0.0517 -0.3607
   99SAPE   H5X 9992   1.332   0.022   5.758 -0.1646 -0.7809 -0.9745
   99SAPE   H5Y 9993   1.166   0.095   5.777 -1.8252 -1.0518  0.4823
   99SAPE   C36 9994   1.189  -0.096   5.647 -0.6392 -0.3823  0.4721
   99SAPE   H6X 9995   1.080  -0.118   5.640 -1.5873  3.7194 -0.2843
   99SAPE   H6Y 9996   1.245  -0.192   5.656 -0.7461 -0.4478  0.4474
   99SAPE   C37 9997   1.213  -0.035   5.504 -0.4395  0.1631  0.6852
   99SAPE   H7X 9998   1.322  -0.018   5.497 -0.0326 -1.4055  2.2492
   99SAPE   H7Y 9999   1.166   0.066   5.500 -1.2175 -0.1320  1.7676
   99SAPE   C3810000   1.170  -0.140   5.402  0.7661  0.2931  0.7143
   99SAPE   H8X10001   1.060  -0.141   5.423  0.7849  1.0430  0.8772
   99SAPE   H8Y10002   1.209  -0.243   5.415 -1.6780 -0.4909  2.8214
   99SAPE   C3910003   1.195  -0.087   5.267 -0.0493 -0.2161  0.2157
   99SAPE   H9X10004   1.301  -0.104   5.239 -0.3592  0.0423 -1.2009
   99SAPE   H9Y10005   1.170   0.021   5.259  0.6103 -0.0611  0.1824
   99SAPE  C31010006   1.124  -0.173   5.154  0.0415 -0.0504 -0.4657
   99SAPE  H10X10007   1.013  -0.166   5.150 -0.1990 -2.5932  0.3891
   99SAPE  H10Y10008   1.152  -0.278   5.176  0.3586  0.1036 -0.1250
   99SAPE  C31110009   1.182  -0.143   5.013 -0.6407  0.2055 -0.1300
   99SAPE  H11X10010   1.293  -0.141   5.014 -0.5844 -1.5908  0.3770
   99SAPE  H11Y10011   1.158  -0.036   4.995 -1.3950  0.1840  0.7145
   99SAPE  C31210012   1.115  -0.226   4.900 -0.5655  0.0403 -0.0296
   99SAPE  H12X10013   1.007  -0.204   4.915 -0.6702 -0.5755  0.1417
   99SAPE  H12Y10014   1.135  -0.335   4.906 -0.2231  0.0726 -0.5056
   99SAPE  C31310015   1.151  -0.171   4.760  0.2031  0.4036  0.5454
   99SAPE  H13X10016   1.128  -0.062   4.755 -2.1808 -0.0136  1.1164
   99SAPE  H13Y10017   1.085  -0.220   4.685  2.1927  0.4406 -1.3444
   99SAPE  C31410018   1.293  -0.214   4.722 -0.4214  0.0982  0.2999
   99SAPE  H14X10019   1.304  -0.324   4.738  2.0999  0.0649 -1.1218
   99SAPE  H14Y10020   1.365  -0.164   4.790  0.7748 -2.5196  1.0991
   99SAPE  C31510021   1.318  -0.202   4.573  0.7385  0.4976  1.2643
   99SAPE  H15X10022   1.328  -0.093   4.553  0.9909  0.4307  1.0080
   99SAPE  H15Y10023   1.227  -0.241   4.524  1.8145  1.0312 -1.3339
   99SAPE  C31610024   1.445  -0.278   4.521 -0.4473 -0.0858 -0.0399
   99SAPE  H16X10025   1.440  -0.383   4.557  1.2887  1.1572  4.7057
   99SAPE  H16Y10026   1.524  -0.227   4.580 -1.5251  2.0935 -0.4008
   99SAPE  C31710027   1.473  -0.257   4.375  0.2701  0.0831  1.0494
   99SAPE  H17X10028   1.574  -0.293   4.348  0.1426 -0.2513  1.0130
   99SAPE  H17Y10029   1.469  -0.147   4.360  0.7708 -0.2109 -1.8688
   99SAPE  C31810030   1.377  -0.323   4.273 -0.2890 -0.1252  0.3130
   99SAPE  H18X10031   1.405  -0.304   4.168 -3.7930  2.5676 -0.3267
   99SAPE  H18Y10032   1.269  -0.298   4.284 -0.1666  1.1163 -0.9821
   99SAPE  H18Z10033   1.378  -0.434   4.266 -0.3585 -0.0074 -2.6420
  100SAPE     N10034   3.577   5.482   6.959  0.4590 -0.2771 -0.3761
  100SAPE   HN110035   3.667   5.505   6.912  2.1511 -3.5403  0.9619
  100SAPE   HN210036   3.555   5.544   7.040 -1.3565  1.9573 -2.4022
  100SAPE   HN310037   3.585   5.388   7.003  1.0475  1.0549  2.6419
  100SAPE   C1210038   3.462   5.481   6.858 -0.4104  0.6703  0.6406
  100SAPE  H12A10039   3.363   5.484   6.909 -1.4672  0.5450 -1.3061
  100SAPE  H12B10040   3.463   5.386   6.801 -0.5915  1.8604 -1.4535
  100SAPE   C1110041   3.483   5.588   6.754  0.4263 -0.1660 -0.0874
  100SAPE  H11A10042   3.465   5.690   6.794 -1.1749 -1.2881  2.2378
  100SAPE  H11B10043   3.410   5.558   6.676  1.9782 -1.6895 -1.0225
  100SAPE     P10044   3.648   5.659   6.571 -0.3028 -0.6283 -0.0512
  100SAPE   O1310045   3.632   5.799   6.612  0.1558  0.5145 -0.5817
  100SAPE   O1410046   3.781   5.618   6.528 -0.0720  0.4756 -0.2891
  100SAPE   O1210047   3.616   5.578   6.698 -0.0158  0.3167  0.3926
  100SAPE   O1110048   3.538   5.629   6.462 -0.0783  0.8609 -0.2509
  100SAPE    C110049   3.519   5.502   6.397  0.0185 -0.7127  0.4996
  100SAPE    HA10050   3.541   5.423   6.472  1.7078 -0.5438  0.2177
  100SAPE    HB10051   3.409   5.490   6.381  0.0896  0.4997 -1.1599
  100SAPE    C210052   3.597   5.485   6.265 -0.5036 -0.1577 -0.5959
  100SAPE    HS10053   3.704   5.512   6.271 -0.5186  0.2147 -1.7708
  100SAPE   O2110054   3.515   5.549   6.161 -0.5137  0.1087  0.3081
  100SAPE   C2110055   3.552   5.670   6.148 -0.3384 -0.3258 -0.3922
  100SAPE   O2210056   3.667   5.716   6.153  0.3888 -0.4826  0.1080
  100SAPE   C2210057   3.426   5.750   6.134 -0.0533 -0.3855 -0.3271
  100SAPE   H2R10058   3.361   5.709   6.214  1.1515 -2.0859 -0.1628
  100SAPE   H2S10059   3.439   5.856   6.165  0.4902 -0.4343 -0.3706
  100SAPE    C310060   3.607   5.326   6.232  0.3736  0.4760  0.1844
  100SAPE    HX10061   3.504   5.287   6.248  0.8163 -2.3296 -2.8621
  100SAPE    HY10062   3.674   5.287   6.312  0.5150 -3.4945 -1.6550
  100SAPE   O3110063   3.641   5.307   6.095  0.7888 -0.1138  0.3779
  100SAPE   C3110064   3.759   5.250   6.078  0.0113 -0.3904  0.0924
  100SAPE   O3210065   3.844   5.223   6.160  0.1662 -0.4016  0.0387
  100SAPE   C3210066   3.786   5.235   5.929 -0.1282 -0.1494 -0.5169
  100SAPE   H2X10067   3.748   5.324   5.874 -1.4983 -1.1296 -1.2150
  100SAPE   H2Y10068   3.736   5.139   5.906  0.0246 -0.5694  0.8419
  100SAPE   C2310069   3.347   5.736   5.998  0.5424 -0.0601 -0.4726
  100SAPE   H3R10070   3.248   5.770   6.035  0.7275  0.1767 -0.1866
  100SAPE   H3S10071   3.339   5.630   5.969 -1.9028 -0.1153  0.2457
  100SAPE   C2410072   3.383   5.825   5.884 -0.3620 -0.7361 -0.7650
  100SAPE   H4R10073   3.403   5.929   5.918  1.5950 -0.9227 -1.2287
  100SAPE   H4S10074   3.299   5.830   5.811  0.3648  1.7413 -1.5451
  100SAPE   C2510075   3.505   5.772   5.814  0.4752  0.7276  0.2929
  100SAPE   H5R10076   3.601   5.798   5.862  0.0682  0.2101  1.4206
  100SAPE   C2610077   3.506   5.700   5.698 -0.3231 -0.5918 -0.4858
  100SAPE   H6R10078   3.604   5.672   5.657 -0.0312  2.3285 -2.0540
  100SAPE   C2710079   3.391   5.640   5.616  0.2439  0.2030  0.0953
  100SAPE   H7R10080   3.309   5.600   5.680  0.6424  0.5280  0.8209
  100SAPE   H7S10081   3.418   5.546   5.563 -0.7155 -1.3564  2.1629
  100SAPE   C2810082   3.354   5.741   5.518  1.0289  0.0605 -0.2313
  100SAPE   H8R10083   3.291   5.820   5.561  0.1970  0.8987 -2.8084
  100SAPE   C2910084   3.378   5.747   5.388 -0.1857 -0.0994  0.3663
  100SAPE   H9R10085   3.319   5.825   5.338  1.1213  1.0975  0.6479
  100SAPE  C21010086   3.452   5.648   5.302 -0.1594  0.6177  0.9525
  100SAPE  H10R10087   3.429   5.669   5.195  1.6273 -0.4504  0.3113
  100SAPE  H10S10088   3.417   5.545   5.324 -0.8822  1.1070  2.2054
  100SAPE  C21110089   3.603   5.657   5.321  0.2287 -0.5174  0.6738
  100SAPE  H11R10090   3.625   5.658   5.429 -0.9656  1.4029  0.9564
  100SAPE  C21210091   3.696   5.682   5.228 -0.0926  0.5753 -0.7729
  100SAPE  H12R10092   3.801   5.685   5.261 -0.7719 -0.9497  1.7498
  100SAPE  C21310093   3.671   5.695   5.079  0.6249  0.0795  0.7251
  100SAPE  H13R10094   3.615   5.603   5.052  1.9984 -0.0961 -1.8646
  100SAPE  H13S10095   3.769   5.682   5.027  0.7127  1.6727  0.4498
  100SAPE  C21410096   3.586   5.817   5.031  0.1190 -0.3104  0.1677
  100SAPE  H14R10097   3.520   5.859   5.108 -0.5029 -0.0693 -0.4835
  100SAPE  C21510098   3.580   5.864   4.907 -0.7257  0.6434 -0.1236
  100SAPE  H15R10099   3.524   5.956   4.886 -1.8633  0.1277  0.5366
  100SAPE  C21610100   3.647   5.805   4.785  0.1093 -0.0719 -0.1807
  100SAPE  H16R10101   3.734   5.740   4.811 -0.4881 -0.6037  0.4971
  100SAPE  H16S10102   3.694   5.886   4.724  3.6921 -1.2092  0.7809
  100SAPE  C21710103   3.554   5.719   4.694 -0.7012 -0.2176  0.1022
  100SAPE  H17R10104   3.506   5.786   4.620 -1.8981  0.8598  1.8100
  100SAPE  H17S10105   3.478   5.669   4.757 -1.1921 -1.9763 -1.7831
  100SAPE  C21810106   3.618   5.602   4.627  0.6897 -0.3800  0.2134
  100SAPE  H18R10107   3.717   5.635   4.588  1.5324 -1.6570  1.1908
  100SAPE  H18S10108   3.551   5.580   4.541 -1.4457 -0.3695  1.8082
  100SAPE  C21910109   3.643   5.478   4.712  0.9521 -0.3595  0.5417
  100SAPE  H19R10110   3.553   5.454   4.772  0.4391  1.9489  0.7870
  100SAPE  H19S10111   3.723   5.493   4.788  0.9530  4.1304 -0.0531
  100SAPE  C22010112   3.669   5.360   4.619 -0.4979  0.6189 -0.4072
  100SAPE  H20R10113   3.610   5.367   4.525 -2.4904 -2.7114  0.4529
  100SAPE  H20S10114   3.643   5.266   4.672  0.4285 -0.0782 -1.1564
  100SAPE  H20T10115   3.779   5.359   4.602 -0.1011  2.1451  1.6397
  100SAPE   C3310116   3.930   5.216   5.876  0.9614  0.2350 -0.1012
  100SAPE   H3X10117   3.975   5.130   5.930  0.6049  0.3436  0.3677
  100SAPE   H3Y10118   3.983   5.314   5.884 -1.0278  1.3735 -0.3046
  100SAPE   C3410119   3.946   5.177   5.724 -0.4697 -0.3693 -0.4040
  100SAPE   H4X10120   3.900   5.078   5.705 -0.8070 -0.3619  0.3357
  100SAPE   H4Y10121   4.056   5.171   5.707  0.0238 -2.6009  2.8508
  100SAPE   C3510122   3.900   5.278   5.613 -0.2000  0.5977 -0.1571
  100SAPE   H5X10123   3.929   5.384   5.628 -1.2440  0.9386 -0.4695
  100SAPE   H5Y10124   3.789   5.269   5.615 -0.0350 -2.3567  0.9114
  100SAPE   C3610125   3.932   5.224   5.473  0.6672  0.0318  0.2629
  100SAPE   H6X10126   3.975   5.123   5.488 -1.7796 -0.8843  1.7466
  100SAPE   H6Y10127   4.009   5.294   5.434  2.2617 -1.4813  0.5781
  100SAPE   C3710128   3.823   5.208   5.367  0.0245 -0.0192 -0.4602
  100SAPE   H7X10129   3.755   5.296   5.363 -0.1295 -0.1650 -3.6228
  100SAPE   H7Y10130   3.751   5.125   5.386  1.1651 -1.1235 -0.8126
  100SAPE   C3810131   3.887   5.186   5.236 -0.1064 -0.6310  0.5289
  100SAPE   H8X10132   3.927   5.083   5.225  4.1118  0.9676 -1.1820
  100SAPE   H8Y10133   3.972   5.257   5.235  1.7593 -2.7545 -0.5488
  100SAPE   C3910134   3.791   5.206   5.116 -0.4366  0.0110  0.0339
  100SAPE   H9X10135   3.739   5.304   5.113  1.1193  0.9146  1.0348
  100SAPE   H9Y10136   3.714   5.128   5.131 -0.9574  0.3618 -0.7843
  100SAPE  C31010137   3.848   5.183   4.974 -0.3822 -0.2548 -0.7671
  100SAPE  H10X10138   3.938   5.247   4.973  2.0374 -3.3455 -3.1578
  100SAPE  H10Y10139   3.776   5.226   4.902  2.0513  1.7309 -2.1624
  100SAPE  C31110140   3.906   5.042   4.947 -0.2797  0.1123  0.3991
  100SAPE  H11X10141   3.831   4.962   4.930 -0.4308  0.7728 -2.5592
  100SAPE  H11Y10142   3.978   5.012   5.026 -0.3049 -0.0928  0.3453
  100SAPE  C31210143   3.995   5.033   4.816  0.2242 -0.7676 -0.3405
  100SAPE  H12X10144   4.061   4.945   4.830  1.8534  0.5735  0.9273
  100SAPE  H12Y10145   4.048   5.131   4.817 -1.2346  0.0596 -0.0423
  100SAPE  C31310146   3.910   5.017   4.688 -0.0213 -0.6706  0.0459
  100SAPE  H13X10147   3.884   5.116   4.645 -4.1651 -0.3587  2.6694
  100SAPE  H13Y10148   3.814   4.961   4.692 -0.1116 -0.5792 -0.7280
  100SAPE  C31410149   4.013   4.953   4.589 -0.1348  0.2376 -0.5101
  100SAPE  H14X10150   4.039   4.849   4.617 -1.3765  0.5120  2.0147
  100SAPE  H14Y10151   4.104   5.014   4.608  0.1581 -0.6681  1.2682
  100SAPE  C31510152   3.988   4.970   4.438 -0.1876  0.5666  0.6062
  100SAPE  H15X10153   3.974   5.079   4.426  1.5594  1.1977  3.4103
  100SAPE  H15Y10154   3.898   4.924   4.392  0.7074  0.3222 -0.9669
  100SAPE  C31610155   4.109   4.923   4.362  0.0030 -0.3247  0.3075
  100SAPE  H16X10156   4.120   4.815   4.382 -1.8020 -0.7080 -0.6279
  100SAPE  H16Y10157   4.198   4.984   4.390 -2.5278  3.5257  0.6658
  100SAPE  C31710158   4.089   4.930   4.212 -0.3611  0.6020  0.5309
  100SAPE  H17X10159   4.083   5.033   4.172  2.3138  1.4333  2.0370
  100SAPE  H17Y10160   4.000   4.866   4.192 -0.8625  0.9021  1.6809
  100SAPE  C31810161   4.200   4.852   4.150 -0.0767 -0.0415 -0.1286
  100SAPE  H18X10162   4.200   4.849   4.039  2.1454 -1.7287 -0.1507
  100SAPE  H18Y10163   4.186   4.744   4.171 -2.2011 -0.1565 -1.7636
  100SAPE  H18Z10164   4.301   4.882   4.185  0.1191 -0.6060 -0.2118
  101SAPE     N10165   4.304   6.716   6.422 -0.4119  0.4200 -0.3692
  101SAPE   HN110166   4.213   6.759   6.396 -0.4190  0.6441  0.0235
  101SAPE   HN210167   4.282   6.615   6.435 -2.3368  0.9153  0.5073
  101SAPE   HN310168   4.328   6.748   6.518 -0.3711  0.6992 -0.4733
  101SAPE   C1210169   4.420   6.736   6.323 -0.3603  1.0364 -0.0780
  101SAPE  H12A10170   4.457   6.633   6.304 -3.5998 -0.6188  1.5281
  101SAPE  H12B10171   4.503   6.782   6.380 -1.4558  1.0387  1.5947
  101SAPE   C1110172   4.388   6.818   6.201  0.4136  0.2092 -0.2742
  101SAPE  H11A10173   4.300   6.770   6.152  0.1205 -1.8077  1.9951
  101SAPE  H11B10174   4.467   6.810   6.124  1.4030  0.6621  0.6584
  101SAPE     P10175   4.492   7.055   6.210  0.0786  0.1358  0.3220
  101SAPE   O1310176   4.489   7.173   6.299  0.4789 -0.3461  0.3053
  101SAPE   O1410177   4.611   6.965   6.208 -0.0685  0.3437 -0.1862
  101SAPE   O1210178   4.372   6.958   6.243 -0.0253  0.2942  0.2396
  101SAPE   O1110179   4.476   7.112   6.058 -0.1904  0.3638 -0.4721
  101SAPE    C110180   4.365   7.198   6.036 -0.2971 -0.4089 -0.0550
  101SAPE    HA10181   4.358   7.285   6.105 -2.1565 -2.1513  2.1104
  101SAPE    HB10182   4.367   7.245   5.936  1.9280  0.1329  0.1916
  101SAPE    C210183   4.226   7.135   6.051 -0.0334 -0.1187 -0.2966
  101SAPE    HS10184   4.210   7.099   6.155 -0.3253 -0.0255 -0.3086
  101SAPE   O2110185   4.213   7.022   5.965 -0.1255  0.0333 -0.2432
  101SAPE   C2110186   4.100   6.949   5.982  0.5692  0.2316 -0.6452
  101SAPE   O2210187   4.018   6.967   6.071 -0.6395 -0.4505  0.4968
  101SAPE   C2210188   4.105   6.828   5.897  0.2343 -0.1916  0.7506
  101SAPE   H2R10189   4.112   6.744   5.969  2.4604 -2.7044 -2.0944
  101SAPE   H2S10190   4.006   6.820   5.848 -0.1248  0.2824  1.3873
  101SAPE    C310191   4.117   7.241   6.014  0.2906  0.2873 -0.2399
  101SAPE    HX10192   4.150   7.336   6.062 -4.0013  2.7220 -1.6145
  101SAPE    HY10193   4.022   7.209   6.062  0.2263 -0.8763 -1.0847
  101SAPE   O3110194   4.093   7.249   5.871 -0.6804  0.4645  0.5658
  101SAPE   C3110195   4.125   7.347   5.800 -0.0717  0.1691 -0.2091
  101SAPE   O3210196   4.168   7.454   5.842  0.7494  0.5472  0.1165
  101SAPE   C3210197   4.109   7.313   5.652 -0.5441 -0.0596  0.0297
  101SAPE   H2X10198   4.034   7.233   5.635  3.5679 -4.2138 -0.4227
  101SAPE   H2Y10199   4.208   7.271   5.624 -0.2212  1.4998 -1.3943
  101SAPE   C2310200   4.223   6.821   5.800  0.2177 -0.6041  0.1562
  101SAPE   H3R10201   4.217   6.722   5.750 -0.8078 -0.2485 -0.4526
  101SAPE   H3S10202   4.327   6.830   5.839  0.7757  0.9141 -1.5560
  101SAPE   C2410203   4.223   6.920   5.678  0.0103 -0.4453  0.4699
  101SAPE   H4R10204   4.322   6.901   5.630  0.6035 -0.4610  1.6759
  101SAPE   H4S10205   4.236   7.022   5.719 -1.5815  0.0284 -0.1456
  101SAPE   C2510206   4.110   6.907   5.583  0.2428 -1.2336  0.0623
  101SAPE   H5R10207   4.041   6.991   5.598  0.7999 -1.0046  1.5702
  101SAPE   C2610208   4.097   6.821   5.479  0.6942  0.6981 -0.3342
  101SAPE   H6R10209   4.007   6.814   5.416 -0.5867 -1.3792  1.5448
  101SAPE   C2710210   4.202   6.717   5.444  0.0454  0.5052 -0.1566
  101SAPE   H7R10211   4.221   6.646   5.528  2.0611  0.0157 -0.9721
  101SAPE   H7S10212   4.297   6.769   5.417  0.3590  0.1462  0.2366
  101SAPE   C2810213   4.170   6.637   5.317  0.8797  0.3826 -0.0712
  101SAPE   H8R10214   4.100   6.555   5.340 -0.9725  2.1153  0.8211
  101SAPE   C2910215   4.199   6.670   5.195 -0.3750 -0.2019 -0.3770
  101SAPE   H9R10216   4.149   6.605   5.121  0.0254 -0.2848 -0.5752
  101SAPE  C21010217   4.281   6.786   5.144  0.0229 -0.1156 -0.4602
  101SAPE  H10R10218   4.311   6.848   5.231 -3.6761 -0.9631  1.6707
  101SAPE  H10S10219   4.215   6.846   5.077 -3.5066 -2.0255  1.0558
  101SAPE  C21110220   4.404   6.723   5.073  0.1680  0.0164 -0.4819
  101SAPE  H11R10221   4.481   6.704   5.150 -0.6075  2.0388  0.8744
  101SAPE  C21210222   4.413   6.688   4.945 -0.0753 -0.1479 -0.2499
  101SAPE  H12R10223   4.502   6.636   4.905  0.4750  1.9231 -1.9195
  101SAPE  C21310224   4.308   6.710   4.844  0.7094  0.3808  0.3441
  101SAPE  H13R10225   4.243   6.796   4.873 -1.1278  0.5293 -3.5455
  101SAPE  H13S10226   4.235   6.626   4.851 -1.7610  2.2203 -1.7456
  101SAPE  C21410227   4.369   6.725   4.706 -0.0526 -0.1034  0.2284
  101SAPE  H14R10228   4.476   6.749   4.708  0.0114 -0.2168 -0.9837
  101SAPE  C21510229   4.321   6.703   4.582 -0.1517  0.4508  0.0256
  101SAPE  H15R10230   4.387   6.705   4.494  0.0336  0.6574  0.1698
  101SAPE  C21610231   4.176   6.672   4.543  0.1991 -0.1234  0.2527
  101SAPE  H16R10232   4.121   6.638   4.634  0.9156  1.5919  1.3760
  101SAPE  H16S10233   4.164   6.590   4.469 -0.4182 -0.9274  1.2078
  101SAPE  C21710234   4.097   6.797   4.496  0.0257 -0.2692  0.0269
  101SAPE  H17R10235   4.131   6.844   4.402 -1.6774  1.0172 -0.0058
  101SAPE  H17S10236   4.084   6.874   4.576  0.0342  0.4279 -0.6271
  101SAPE  C21810237   3.944   6.742   4.478 -0.9610 -0.5880 -0.1897
  101SAPE  H18R10238   3.916   6.702   4.577 -0.7275  0.3630  0.2744
  101SAPE  H18S10239   3.947   6.666   4.396  1.4814 -0.7760  0.0124
  101SAPE  C21910240   3.850   6.859   4.437 -0.0216  0.5864 -0.2790
  101SAPE  H19R10241   3.823   6.927   4.520 -2.2351 -0.0205 -0.4395
  101SAPE  H19S10242   3.747   6.818   4.440 -0.0614  0.7179  0.3902
  101SAPE  C22010243   3.881   6.937   4.314 -0.0728 -0.0608  0.7735
  101SAPE  H20R10244   3.813   7.025   4.310  0.2207  0.1458  0.2179
  101SAPE  H20S10245   3.872   6.876   4.222 -4.1280  2.6934 -0.9211
  101SAPE  H20T10246   3.988   6.968   4.315 -0.4187  1.2069  0.2162
  101SAPE   C3310247   4.082   7.448   5.579  0.8022  0.6467 -0.6612
  101SAPE   H3X10248   4.152   7.529   5.612  1.7337 -0.8863  1.3607
  101SAPE   H3Y10249   3.980   7.482   5.609  1.7309 -0.3852  4.8390
  101SAPE   C3410250   4.087   7.431   5.427  0.7309 -0.8967  0.2122
  101SAPE   H4X10251   4.021   7.344   5.406 -1.3999  0.1598  2.1790
  101SAPE   H4Y10252   4.196   7.414   5.413  1.6629  1.0139  3.9679
  101SAPE   C3510253   4.049   7.553   5.349 -0.4094 -0.3303  0.4974
  101SAPE   H5X10254   4.094   7.645   5.392  0.2267 -0.9644  1.2349
  101SAPE   H5Y10255   3.939   7.562   5.337 -0.2841 -0.8350 -1.3550
  101SAPE   C3610256   4.111   7.535   5.212 -0.6428  0.3364  0.8040
  101SAPE   H6X10257   4.094   7.434   5.170 -0.3056 -0.1373  1.7678
  101SAPE   H6Y10258   4.221   7.536   5.230 -0.5330  2.2284  0.2138
  101SAPE   C3710259   4.072   7.643   5.112  0.2374  0.4601 -0.5026
  101SAPE   H7X10260   4.148   7.722   5.129  0.0169  0.6619 -0.4519
  101SAPE   H7Y10261   3.969   7.683   5.126  0.5090  0.7227  0.8294
  101SAPE   C3810262   4.112   7.595   4.963 -0.2656  0.0514  0.8312
  101SAPE   H8X10263   4.145   7.489   4.951 -1.2737 -0.1721 -0.2667
  101SAPE   H8Y10264   4.203   7.651   4.933  0.3544 -0.7114  1.2489
  101SAPE   C3910265   4.003   7.624   4.857  0.6280  0.6755 -0.0122
  101SAPE   H9X10266   3.990   7.734   4.865 -1.0501  0.5832 -0.9509
  101SAPE   H9Y10267   3.907   7.573   4.881 -0.6726  2.5192 -1.0463
  101SAPE  C31010268   4.048   7.587   4.717 -0.9592 -0.9067 -0.4394
  101SAPE  H10X10269   4.070   7.478   4.728 -0.2655 -0.5671  2.5170
  101SAPE  H10Y10270   4.136   7.653   4.700 -3.4602  2.4564 -1.4160
  101SAPE  C31110271   3.936   7.612   4.613 -0.2358  1.0633  0.7446
  101SAPE  H11X10272   3.932   7.719   4.583 -0.1344  0.5317 -1.3307
  101SAPE  H11Y10273   3.842   7.591   4.669  0.7810  0.0306  2.1086
  101SAPE  C31210274   3.952   7.527   4.486 -0.2857 -0.4957  0.3438
  101SAPE  H12X10275   3.981   7.423   4.509  2.4699  0.1476  0.1077
  101SAPE  H12Y10276   4.027   7.581   4.425  0.6749 -1.7494  0.3754
  101SAPE  C31310277   3.831   7.526   4.392 -0.7653  0.2078 -0.6963
  101SAPE  H13X10278   3.761   7.457   4.443 -1.0665  1.8224  1.1708
  101SAPE  H13Y10279   3.866   7.483   4.295  0.0383  0.5119 -0.5457
  101SAPE  C31410280   3.769   7.662   4.367  0.1210 -0.1540 -0.0531
  101SAPE  H14X10281   3.845   7.735   4.331 -3.0467  2.9718 -0.9527
  101SAPE  H14Y10282   3.717   7.696   4.459  1.7817  0.4499  0.7012
  101SAPE  C31510283   3.642   7.664   4.271  0.0303 -0.5894  0.1349
  101SAPE  H15X10284   3.675   7.661   4.165  1.3226  0.0660  0.4977
  101SAPE  H15Y10285   3.590   7.761   4.287  0.7879 -0.3433  1.2808
  101SAPE  C31610286   3.531   7.564   4.321 -0.7480  0.1779 -0.1490
  101SAPE  H16X10287   3.502   7.577   4.428 -1.8778  1.5651 -0.5991
  101SAPE  H16Y10288   3.588   7.468   4.313  0.2667  0.8682 -1.5507
  101SAPE  C31710289   3.408   7.538   4.235 -0.7231  0.3090 -0.8369
  101SAPE  H17X10290   3.352   7.460   4.291  1.8448 -1.3818 -0.4126
  101SAPE  H17Y10291   3.445   7.489   4.143 -1.3792 -0.3068 -0.7827
  101SAPE  C31810292   3.303   7.650   4.217  0.7009 -0.0993  0.8304
  101SAPE  H18X10293   3.203   7.614   4.187  0.3175  1.1436  0.5315
  101SAPE  H18Y10294   3.340   7.730   4.148  0.4853 -0.9256 -0.2664
  101SAPE  H18Z10295   3.285   7.717   4.303  1.6530  1.2716  0.0148
  102SAPE     N10296   3.476   0.117   6.607  0.4003 -0.4852 -0.0815
  102SAPE   HN110297   3.561   0.066   6.574  1.6810  0.1020  2.1323
  102SAPE   HN210298   3.394   0.054   6.599 -0.3508  0.5772 -1.0671
  102SAPE   HN310299   3.454   0.201   6.550  0.0146 -0.3363  0.2894
  102SAPE   C1210300   3.497   0.174   6.745  0.3982 -0.4610  0.1361
  102SAPE  H12A10301   3.511   0.091   6.817 -0.0234  1.2851  2.3551
  102SAPE  H12B10302   3.407   0.226   6.782 -0.6600 -0.6758 -2.0064
  102SAPE   C1110303   3.616   0.268   6.733  0.1048  0.3545 -0.3136
  102SAPE  H11A10304   3.701   0.218   6.681  2.5526  2.8321  1.0439
  102SAPE  H11B10305   3.647   0.292   6.837 -0.7674  0.4913 -0.0791
  102SAPE     P10306   3.706   0.498   6.671  0.2313 -0.4810  0.0023
  102SAPE   O1310307   3.728   0.543   6.808  0.4986  0.7032  0.1419
  102SAPE   O1410308   3.826   0.445   6.600  0.6281  0.8891 -0.1909
  102SAPE   O1210309   3.583   0.388   6.658 -1.2732  0.7787  0.0836
  102SAPE   O1110310   3.654   0.626   6.601 -0.1891 -0.6660  0.0500
  102SAPE    C110311   3.524   0.637   6.543  0.3473 -0.1969  0.1223
  102SAPE    HA10312   3.451   0.595   6.615  0.2727 -1.6867 -0.7844
  102SAPE    HB10313   3.493   0.743   6.530  3.5291  0.9237  0.9768
  102SAPE    C210314   3.524   0.563   6.406 -0.0969 -0.0984  0.0116
  102SAPE    HS10315   3.564   0.460   6.417  0.0946 -0.2054 -1.5041
  102SAPE   O2110316   3.592   0.641   6.310 -0.5966 -0.1088  0.2163
  102SAPE   C2110317   3.689   0.603   6.233  0.3083  0.0029 -0.1242
  102SAPE   O2210318   3.740   0.489   6.229  0.1697 -0.3182  0.2271
  102SAPE   C2210319   3.735   0.722   6.141  0.1884 -0.0110 -0.6098
  102SAPE   H2R10320   3.647   0.759   6.085  0.8118  0.0185 -1.6032
  102SAPE   H2S10321   3.773   0.798   6.212 -1.2894 -1.1062  1.4553
  102SAPE    C310322   3.377   0.538   6.357  0.4160  0.0182 -0.5377
  102SAPE    HX10323   3.346   0.627   6.298 -1.7742  0.1360  0.6734
  102SAPE    HY10324   3.301   0.537   6.438  2.7981 -1.8724  1.8603
  102SAPE   O3110325   3.371   0.422   6.268 -0.3393  0.2773 -0.1769
  102SAPE   C3110326   3.349   0.308   6.333 -0.8484  0.4930 -0.1645
  102SAPE   O3210327   3.341   0.299   6.453  0.1212 -0.0633  0.1556
  102SAPE   C3210328   3.355   0.192   6.231  0.0231 -0.7799  0.4629
  102SAPE   H2X10329   3.326   0.238   6.134 -0.9547  0.2213  1.2163
  102SAPE   H2Y10330   3.272   0.124   6.257  1.0656 -1.6364  1.6514
  102SAPE   C2310331   3.849   0.675   6.048  0.8138  0.8810 -0.2426
  102SAPE   H3R10332   3.915   0.616   6.114  3.0447  1.4267 -1.8467
  102SAPE   H3S10333   3.909   0.765   6.023  1.9684  0.6214  1.4282
  102SAPE   C2410334   3.806   0.585   5.934  0.0385  0.5034 -0.5402
  102SAPE   H4R10335   3.752   0.499   5.978  1.4246  0.4586  1.1820
  102SAPE   H4S10336   3.888   0.532   5.881  1.1233 -0.9790  2.4182
  102SAPE   C2510337   3.739   0.669   5.832  0.6304  0.7990 -0.3843
  102SAPE   H5R10338   3.810   0.726   5.770 -0.5759  1.5680 -1.1009
  102SAPE   C2610339   3.608   0.696   5.817 -0.5158  0.1617  0.3446
  102SAPE   H6R10340   3.589   0.779   5.748  0.0280 -0.6252 -0.7810
  102SAPE   C2710341   3.487   0.645   5.896  0.3702 -0.0729 -0.4124
  102SAPE   H7R10342   3.520   0.591   5.988  1.6938  0.6673 -0.4149
  102SAPE   H7S10343   3.444   0.564   5.835 -0.2471  0.3180 -0.5040
  102SAPE   C2810344   3.378   0.743   5.928  0.3865  0.0884  0.9447
  102SAPE   H8R10345   3.382   0.795   6.025  0.0065  2.3705 -0.1941
  102SAPE   C2910346   3.283   0.774   5.836 -0.1258  0.6489 -0.1960
  102SAPE   H9R10347   3.225   0.864   5.859  0.1439  0.5236  1.0576
  102SAPE  C21010348   3.269   0.734   5.689 -0.2466  0.2383  0.0205
  102SAPE  H10R10349   3.174   0.679   5.675 -0.6821  1.0233 -0.2243
  102SAPE  H10S10350   3.352   0.679   5.640 -0.4349  0.4508 -0.5557
  102SAPE  C21110351   3.247   0.858   5.605 -0.6372 -0.1557  0.5390
  102SAPE  H11R10352   3.185   0.935   5.653  1.0790  2.9272 -1.8110
  102SAPE  C21210353   3.289   0.885   5.485 -0.0323  0.1837 -0.0170
  102SAPE  H12R10354   3.253   0.977   5.437  0.9911  0.5256 -0.1385
  102SAPE  C21310355   3.364   0.796   5.389  0.0002 -0.4034 -0.4626
  102SAPE  H13R10356   3.330   0.802   5.284  0.3206 -2.3798 -0.7104
  102SAPE  H13S10357   3.351   0.689   5.414  0.7287  0.0040  1.9131
  102SAPE  C21410358   3.511   0.838   5.394  0.4784 -0.1057 -0.1433
  102SAPE  H14R10359   3.542   0.928   5.449  2.1376  1.3917 -3.2639
  102SAPE  C21510360   3.607   0.772   5.326 -0.2587 -0.4865  0.1523
  102SAPE  H15R10361   3.708   0.811   5.310 -0.4471 -0.9073 -2.6651
  102SAPE  C21610362   3.584   0.648   5.251 -0.5983  0.3292 -0.2418
  102SAPE  H16R10363   3.478   0.623   5.233 -0.7144 -0.8584  1.8900
  102SAPE  H16S10364   3.625   0.567   5.316  0.5640 -0.1584 -1.5223
  102SAPE  C21710365   3.659   0.648   5.116 -0.1197  0.2241 -0.0420
  102SAPE  H17R10366   3.767   0.662   5.137  0.2207 -1.4871 -0.4663
  102SAPE  H17S10367   3.614   0.734   5.062  1.8336  0.3345 -1.6117
  102SAPE  C21810368   3.628   0.517   5.029 -0.0950 -0.0817 -0.7759
  102SAPE  H18R10369   3.526   0.474   5.039  0.2665 -0.5089  1.4815
  102SAPE  H18S10370   3.694   0.433   5.059 -1.0132 -0.3751  0.4952
  102SAPE  C21910371   3.642   0.551   4.879 -0.3942 -0.0862 -0.0173
  102SAPE  H19R10372   3.722   0.628   4.877 -0.7935  0.3285 -0.9783
  102SAPE  H19S10373   3.549   0.603   4.847 -1.4216 -0.7728  1.7446
  102SAPE  C22010374   3.665   0.437   4.781 -0.1657 -0.1369  0.1870
  102SAPE  H20R10375   3.683   0.485   4.683 -2.3883  2.8619  1.1096
  102SAPE  H20S10376   3.569   0.380   4.773  0.3919 -1.0602 -0.1112
  102SAPE  H20T10377   3.744   0.363   4.807 -0.1396 -0.4332 -0.6877
  102SAPE   C3310378   3.493   0.118   6.216 -0.6108  0.4977  0.0918
  102SAPE   H3X10379   3.508   0.067   6.313 -1.5427 -0.5258 -0.2844
  102SAPE   H3Y10380   3.571   0.197   6.211  1.0044 -1.0197  0.5441
  102SAPE   C3410381   3.505   0.038   6.084  0.3543 -0.6048 -0.6292
  102SAPE   H4X10382   3.410  -0.012   6.053  0.7475 -1.6805 -0.1351
  102SAPE   H4Y10383   3.576  -0.045   6.102  0.9753 -0.5196 -2.4861
  102SAPE   C3510384   3.549   0.107   5.960  0.1561 -0.5301  0.2044
  102SAPE   H5X10385   3.490   0.199   5.936  0.2532 -0.8085 -1.1645
  102SAPE   H5Y10386   3.532   0.038   5.875 -4.4420 -0.6306  0.9444
  102SAPE   C3610387   3.695   0.146   5.965 -0.2839  0.7212 -0.1333
  102SAPE   H6X10388   3.750   0.068   6.021 -1.2166 -0.1725 -0.4304
  102SAPE   H6Y10389   3.700   0.248   6.010 -0.9506  0.1763  1.2089
  102SAPE   C3710390   3.771   0.155   5.827  0.3978  0.0411 -0.0508
  102SAPE   H7X10391   3.765   0.052   5.785  0.7742 -0.6442  1.5260
  102SAPE   H7Y10392   3.875   0.194   5.827 -0.1300  1.5220  0.5680
  102SAPE   C3810393   3.694   0.254   5.735 -0.0049  0.1921 -0.4365
  102SAPE   H8X10394   3.690   0.356   5.777  1.7794 -0.5650  1.7863
  102SAPE   H8Y10395   3.591   0.212   5.742 -0.4019  1.2739  0.2867
  102SAPE   C3910396   3.747   0.242   5.594 -0.1432  0.3230 -0.5855
  102SAPE   H9X10397   3.856   0.264   5.599 -0.4228  2.0340 -1.2098
  102SAPE   H9Y10398   3.702   0.325   5.535  2.3010  0.9492 -1.6803
  102SAPE  C31010399   3.715   0.111   5.531  0.5913 -0.2258 -0.0597
  102SAPE  H10X10400   3.611   0.083   5.557 -0.6876  3.9494 -0.0419
  102SAPE  H10Y10401   3.787   0.036   5.569  0.9839  0.1219 -0.1040
  102SAPE  C31110402   3.724   0.115   5.375  0.1605 -0.5753 -0.2879
  102SAPE  H11X10403   3.632   0.164   5.338 -1.0776 -3.4474 -1.3380
  102SAPE  H11Y10404   3.713   0.008   5.346 -2.6968 -0.7551  1.1210
  102SAPE  C31210405   3.845   0.185   5.319  0.1642  0.5309 -0.4013
  102SAPE  H12X10406   3.937   0.188   5.382 -0.2620  3.0004  0.1965
  102SAPE  H12Y10407   3.810   0.289   5.304 -1.3756  0.4668  2.0521
  102SAPE  C31310408   3.880   0.136   5.179  0.2649  0.5901 -0.2857
  102SAPE  H13X10409   3.784   0.125   5.123 -0.7657 -0.8202  1.6264
  102SAPE  H13Y10410   3.924   0.035   5.193  0.1270  0.8288  2.4171
  102SAPE  C31410411   3.990   0.226   5.122 -0.6007 -0.2290  0.1309
  102SAPE  H14X10412   4.082   0.221   5.183  0.1739 -3.0030 -1.1071
  102SAPE  H14Y10413   3.950   0.329   5.135 -0.1819 -0.1101  0.4783
  102SAPE  C31510414   4.015   0.206   4.969  0.1391  0.4391  0.0939
  102SAPE  H15X10415   3.924   0.198   4.907 -0.5951  0.5919  1.1236
  102SAPE  H15Y10416   4.063   0.107   4.954 -1.3245 -0.4338  0.9179
  102SAPE  C31610417   4.126   0.296   4.922  0.5045  0.3655 -0.4651
  102SAPE  H16X10418   4.211   0.304   4.994 -0.0223  1.2007  0.0946
  102SAPE  H16Y10419   4.093   0.398   4.892 -0.5815  0.2957  0.4184
  102SAPE  C31710420   4.187   0.244   4.788 -0.0946 -0.7439  0.4993
  102SAPE  H17X10421   4.211   0.136   4.802  0.1967 -0.4670  2.3723
  102SAPE  H17Y10422   4.276   0.304   4.759 -0.1483 -0.6583  0.5118
  102SAPE  C31810423   4.098   0.266   4.663 -0.4829  0.1255  0.2217
  102SAPE  H18X10424   4.115   0.191   4.583 -0.5715 -2.0893  2.1755
  102SAPE  H18Y10425   4.116   0.369   4.624 -1.2570 -0.6870 -2.4763
  102SAPE  H18Z10426   3.992   0.251   4.692  0.3394  0.2346  3.8545
  103SAPE     N10427   2.523   1.994   2.328  0.0697 -0.1045  0.4358
  103SAPE   HN110428   2.454   1.986   2.405 -0.4405 -1.1069 -0.1016
  103SAPE   HN210429   2.463   2.029   2.250  0.6235 -2.4361 -1.1610
  103SAPE   HN310430   2.557   1.903   2.291 -0.2149 -0.7227  1.6535
  103SAPE   C1210431   2.644   2.087   2.342  0.0819  0.2493  0.5925
  103SAPE  H12A10432   2.704   2.034   2.418  1.6915  1.0554 -0.0625
  103SAPE  H12B10433   2.613   2.186   2.383 -0.0294  0.0110  1.0797
  103SAPE   C1110434   2.711   2.089   2.204 -0.1548 -0.2864  0.2683
  103SAPE  H11A10435   2.802   2.143   2.237 -0.6498 -0.9943  3.0777
  103SAPE  H11B10436   2.656   2.158   2.137 -1.0571  0.3386  1.6276
  103SAPE     P10437   2.890   1.926   2.118  0.1598 -0.0356  0.2391
  103SAPE   O1310438   2.897   1.794   2.062 -0.4194  0.2325 -0.3836
  103SAPE   O1410439   2.948   2.036   2.044  0.0550 -0.2186  0.6673
  103SAPE   O1210440   2.737   1.961   2.140 -0.7654 -0.4475  0.3390
  103SAPE   O1110441   2.954   1.926   2.260 -0.3505 -0.0321 -0.3988
  103SAPE    C110442   3.083   1.989   2.278  0.6153  0.6835  0.0477
  103SAPE    HA10443   3.158   1.919   2.233 -0.4950 -0.1376 -0.5676
  103SAPE    HB10444   3.086   2.092   2.237 -2.2997 -0.1501 -2.6289
  103SAPE    C210445   3.113   1.991   2.429 -0.3523 -0.1291  0.0650
  103SAPE    HS10446   3.196   2.061   2.453 -0.0552 -0.9470  1.5578
  103SAPE   O2110447   3.143   1.856   2.470  0.2235 -0.2174 -0.4606
  103SAPE   C2110448   3.217   1.849   2.580 -0.3126  0.7897 -0.8481
  103SAPE   O2210449   3.266   1.943   2.640  0.0096  0.4741  0.0132
  103SAPE   C2210450   3.253   1.699   2.590 -0.0006 -0.0156 -0.4108
  103SAPE   H2R10451   3.159   1.640   2.579  0.2006 -0.4363  0.0869
  103SAPE   H2S10452   3.327   1.684   2.509  1.2076  0.3913  0.5749
  103SAPE    C310453   2.986   2.039   2.509 -0.0588  0.2661 -0.7661
  103SAPE    HX10454   2.916   1.952   2.505 -1.7722  1.5064  0.9352
  103SAPE    HY10455   2.924   2.114   2.456 -2.4321 -0.1076  1.2792
  103SAPE   O3110456   3.016   2.074   2.647  0.4172 -0.2241 -0.0892
  103SAPE   C3110457   3.044   2.198   2.659 -0.6011 -0.1025  0.0518
  103SAPE   O3210458   3.052   2.280   2.565  0.4478  0.0232  0.2092
  103SAPE   C3210459   3.066   2.236   2.814 -0.0118  0.0437  0.2884
  103SAPE   H2X10460   3.167   2.193   2.833  0.1319  0.3533  0.2255
  103SAPE   H2Y10461   2.991   2.175   2.868  0.1215 -0.5186 -0.1519
  103SAPE   C2310462   3.315   1.655   2.728  1.0468 -0.0978 -0.3610
  103SAPE   H3R10463   3.241   1.685   2.805  1.1128 -1.1739  0.1355
  103SAPE   H3S10464   3.403   1.719   2.750  1.0183  0.1109 -0.8332
  103SAPE   C2410465   3.353   1.510   2.729 -0.2619  0.6453  0.2865
  103SAPE   H4R10466   3.262   1.454   2.697  0.0202  1.2935 -1.7805
  103SAPE   H4S10467   3.374   1.464   2.828  1.3247 -2.4387 -1.3456
  103SAPE   C2510468   3.472   1.480   2.644  0.2243 -0.6836  0.1753
  103SAPE   H5R10469   3.554   1.552   2.630 -0.2608 -0.1554 -0.0212
  103SAPE   C2610470   3.498   1.358   2.599  0.1318 -0.0732  0.5505
  103SAPE   H6R10471   3.587   1.354   2.535  0.3957 -0.4474  0.9392
  103SAPE   C2710472   3.418   1.226   2.599 -0.1920  0.1599  0.7771
  103SAPE   H7R10473   3.383   1.193   2.499 -1.4493 -1.1520  1.6141
  103SAPE   H7S10474   3.319   1.227   2.649  0.4825  0.9652  2.1453
  103SAPE   C2810475   3.499   1.108   2.654  0.3846 -1.0088  0.0294
  103SAPE   H8R10476   3.578   1.059   2.595  1.4578 -0.1108  0.6824
  103SAPE   C2910477   3.479   1.052   2.774 -0.2352  0.0582  0.1903
  103SAPE   H9R10478   3.549   0.971   2.800  0.1561  0.6707  1.0770
  103SAPE  C21010479   3.387   1.087   2.881  0.1724  0.0633 -0.7060
  103SAPE  H10R10480   3.364   0.996   2.941 -2.1370 -0.0963 -1.7126
  103SAPE  H10S10481   3.285   1.116   2.846  0.8024  0.2018 -2.4913
  103SAPE  C21110482   3.442   1.190   2.977  0.0824 -0.1213 -0.4618
  103SAPE  H11R10483   3.496   1.279   2.941 -0.5638  0.1394 -0.8151
  103SAPE  C21210484   3.417   1.187   3.109 -0.2957  0.1399 -0.6155
  103SAPE  H12R10485   3.458   1.258   3.183 -0.7568 -0.6385  0.4223
  103SAPE  C21310486   3.340   1.079   3.182 -0.2498 -0.6136 -0.1870
  103SAPE  H13R10487   3.427   1.013   3.200  1.1191  0.2917 -2.9214
  103SAPE  H13S10488   3.265   1.024   3.122 -1.0729  1.2460 -0.9228
  103SAPE  C21410489   3.276   1.130   3.309 -0.6232  0.5391  1.6177
  103SAPE  H14R10490   3.245   1.236   3.306 -2.7122 -0.0125 -0.7060
  103SAPE  C21510491   3.250   1.066   3.425 -0.4355  0.1045  0.5845
  103SAPE  H15R10492   3.201   1.122   3.506 -1.4682  0.6436 -0.3867
  103SAPE  C21610493   3.291   0.925   3.467 -0.0144  0.7865  0.2217
  103SAPE  H16R10494   3.364   0.876   3.398 -1.7558  0.6450 -1.6183
  103SAPE  H16S10495   3.195   0.869   3.462  0.4693  0.0026 -1.0527
  103SAPE  C21710496   3.333   0.915   3.619 -1.0002  1.2650  0.4745
  103SAPE  H17R10497   3.247   0.943   3.684  0.4461  1.9111  2.2115
  103SAPE  H17S10498   3.416   0.987   3.629 -0.1702  0.6414 -1.4722
  103SAPE  C21810499   3.411   0.782   3.662  1.2792  0.5219 -0.3410
  103SAPE  H18R10500   3.510   0.785   3.612  1.6683 -0.7173  0.3151
  103SAPE  H18S10501   3.356   0.692   3.628  2.2127 -0.8145  1.5038
  103SAPE  C21910502   3.443   0.772   3.808 -0.0916  0.3605 -0.2292
  103SAPE  H19R10503   3.348   0.778   3.866  0.3866 -0.0459  0.6256
  103SAPE  H19S10504   3.500   0.865   3.828  0.1230 -0.0505  1.2213
  103SAPE  C22010505   3.524   0.642   3.831  0.2831 -0.4660 -0.0007
  103SAPE  H20R10506   3.604   0.625   3.756  1.4677  2.0932  0.5705
  103SAPE  H20S10507   3.467   0.547   3.836  2.7380 -2.0523 -0.0566
  103SAPE  H20T10508   3.581   0.642   3.927  0.0544  0.7940  0.1505
  103SAPE   C3310509   3.072   2.391   2.823  0.1658 -0.4951 -0.3186
  103SAPE   H3X10510   2.993   2.457   2.781  2.0433  1.0714 -1.5306
  103SAPE   H3Y10511   3.169   2.420   2.779  1.0914 -3.3958 -0.4177
  103SAPE   C3410512   3.080   2.421   2.972  0.0751  0.1728  0.0934
  103SAPE   H4X10513   3.132   2.515   3.000  2.4846 -0.5448 -1.7183
  103SAPE   H4Y10514   3.150   2.348   3.017  1.5643  1.8270  0.5985
  103SAPE   C3510515   2.942   2.408   3.045 -0.1141 -0.0021 -0.5709
  103SAPE   H5X10516   2.877   2.330   3.000  0.5762 -2.7880  2.8263
  103SAPE   H5Y10517   2.894   2.508   3.038 -1.0281 -0.3532  0.4228
  103SAPE   C3610518   2.941   2.375   3.201  0.1774  0.1869 -0.1473
  103SAPE   H6X10519   2.835   2.381   3.235  0.4390  1.1266  0.5362
  103SAPE   H6Y10520   2.996   2.462   3.242  0.3413  2.0287 -3.8106
  103SAPE   C3710521   3.018   2.254   3.240 -0.3897  0.2120  0.1291
  103SAPE   H7X10522   3.128   2.268   3.227 -0.3163  0.5746  1.0717
  103SAPE   H7Y10523   2.979   2.167   3.183 -1.6854  0.0681  1.1983
  103SAPE   C3810524   2.993   2.223   3.391 -0.0938  1.1027 -0.1242
  103SAPE   H8X10525   2.892   2.234   3.434 -0.3616 -0.6804 -0.2062
  103SAPE   H8Y10526   3.041   2.304   3.450  2.2805  0.7842 -1.4613
  103SAPE   C3910527   3.048   2.089   3.428 -0.5556  0.1061  0.2924
  103SAPE   H9X10528   3.159   2.090   3.427 -0.5611  1.1260 -1.0734
  103SAPE   H9Y10529   3.003   2.016   3.358  1.8252 -0.0823 -1.1558
  103SAPE  C31010530   2.999   2.043   3.571 -0.3237 -0.1857  0.1676
  103SAPE  H10X10531   3.008   1.932   3.571 -0.6172 -0.2353 -1.4375
  103SAPE  H10Y10532   2.889   2.057   3.574 -0.1864  0.9060  0.7115
  103SAPE  C31110533   3.066   2.113   3.688  0.7381 -0.1999 -0.9286
  103SAPE  H11X10534   3.064   2.223   3.676 -2.6785 -0.2502 -1.7052
  103SAPE  H11Y10535   3.174   2.089   3.686  0.9140  0.5261 -0.5764
  103SAPE  C31210536   2.992   2.083   3.823  0.0574 -0.0829  0.1520
  103SAPE  H12X10537   2.888   2.119   3.813  0.7440  2.0696  0.1857
  103SAPE  H12Y10538   3.042   2.153   3.892  2.4177  0.5881 -2.0583
  103SAPE  C31310539   3.009   1.942   3.884  0.5163  0.1903  0.0072
  103SAPE  H13X10540   3.114   1.924   3.914  0.3350 -1.1211 -0.0847
  103SAPE  H13Y10541   2.975   1.880   3.798 -0.6714  0.8948 -0.0519
  103SAPE  C31410542   2.909   1.913   4.001 -0.2739 -1.3805 -0.4026
  103SAPE  H14X10543   2.901   1.804   4.020 -2.4805 -1.0063  1.2946
  103SAPE  H14Y10544   2.813   1.944   3.954 -0.2221 -0.5860  0.0033
  103SAPE  C31510545   2.935   1.992   4.125  0.0191 -0.6413 -0.1956
  103SAPE  H15X10546   3.005   2.075   4.105  0.8035 -0.7990  1.7284
  103SAPE  H15Y10547   2.993   1.932   4.198  2.0297  1.3888 -0.0303
  103SAPE  C31610548   2.806   2.058   4.189  0.6238  0.1322 -0.3366
  103SAPE  H16X10549   2.734   1.980   4.222 -0.7946  0.0386 -3.3328
  103SAPE  H16Y10550   2.749   2.121   4.118 -1.4911 -2.6934 -1.3164
  103SAPE  C31710551   2.828   2.149   4.311  0.5378 -0.1077  0.0256
  103SAPE  H17X10552   2.907   2.114   4.380  1.1207  1.5838  0.2739
  103SAPE  H17Y10553   2.730   2.153   4.363  0.0210 -0.2053 -0.9037
  103SAPE  C31810554   2.872   2.290   4.277 -0.2291  0.0597  0.4390
  103SAPE  H18X10555   2.801   2.353   4.219  0.3172  0.8501  0.6136
  103SAPE  H18Y10556   2.965   2.290   4.216 -0.5896  0.5374 -0.1182
  103SAPE  H18Z10557   2.894   2.345   4.371  0.1240 -1.5829  1.3572
  104SAPE     N10558   2.193   1.903   2.070  0.1207  0.4760 -0.6174
  104SAPE   HN110559   2.198   1.885   1.967 -0.3605  2.2670 -0.9825
  104SAPE   HN210560   2.233   1.996   2.094  0.7131  0.0985 -0.1028
  104SAPE   HN310561   2.250   1.830   2.118 -1.6384 -2.2080 -2.3351
  104SAPE   C1210562   2.054   1.901   2.116  0.3042 -0.5796 -0.3756
  104SAPE  H12A10563   2.003   1.808   2.082  1.4937 -0.5351 -2.4728
  104SAPE  H12B10564   2.010   1.985   2.058 -0.1929 -2.0923 -2.3114
  104SAPE   C1110565   2.046   1.923   2.264  0.9029  1.1389  0.4258
  104SAPE  H11A10566   1.943   1.944   2.300  1.3247  1.2752  1.5786
  104SAPE  H11B10567   2.103   2.015   2.287  1.0438  1.5788 -1.4936
  104SAPE     P10568   2.031   1.682   2.380 -0.0541  0.1689 -0.2050
  104SAPE   O1310569   1.884   1.701   2.349 -0.3293  0.3129  0.1062
  104SAPE   O1410570   2.097   1.565   2.321 -0.2576 -0.2771 -0.0132
  104SAPE   O1210571   2.106   1.815   2.336  0.1481  0.2494 -0.1445
  104SAPE   O1110572   2.039   1.672   2.537  0.4497 -0.2740  0.0154
  104SAPE    C110573   2.034   1.783   2.620  0.1293  0.0144 -0.8785
  104SAPE    HA10574   2.133   1.808   2.665 -1.1333  0.6007  1.8015
  104SAPE    HB10575   2.007   1.873   2.561 -0.8843  0.5748  0.3893
  104SAPE    C210576   1.925   1.774   2.729  0.3909 -0.2632  0.3457
  104SAPE    HS10577   1.913   1.873   2.778 -2.1490 -0.7624  0.9029
  104SAPE   O2110578   1.972   1.663   2.820 -0.1014  0.5411 -0.3043
  104SAPE   C2110579   2.060   1.711   2.912  0.4531  0.0350  0.0654
  104SAPE   O2210580   2.112   1.818   2.916  0.2291 -0.0084  0.2469
  104SAPE   C2210581   2.069   1.603   3.016  0.3576  0.3171  0.7563
  104SAPE   H2R10582   1.965   1.580   3.049 -0.4062  1.9088 -0.4081
  104SAPE   H2S10583   2.096   1.518   2.949  0.7838  1.3174 -0.3688
  104SAPE    C310584   1.785   1.733   2.672 -0.2600 -0.0888  0.1190
  104SAPE    HX10585   1.807   1.647   2.604  2.7975  0.6690  0.0132
  104SAPE    HY10586   1.742   1.824   2.625 -1.5533 -0.4537  0.5563
  104SAPE   O3110587   1.699   1.706   2.782  0.4819  0.0281 -0.5228
  104SAPE   C3110588   1.658   1.582   2.797 -0.1825 -0.2650 -0.6171
  104SAPE   O3210589   1.703   1.485   2.739  0.2894  0.4553 -0.7889
  104SAPE   C3210590   1.547   1.584   2.900  0.0166  0.1149 -0.2737
  104SAPE   H2X10591   1.513   1.483   2.931 -1.0775 -0.4715 -3.0871
  104SAPE   H2Y10592   1.456   1.630   2.856  0.8616  0.1063 -2.1188
  104SAPE   C2310593   2.162   1.610   3.136  0.9095 -0.4170  0.4598
  104SAPE   H3R10594   2.266   1.640   3.112  0.2139  1.7289 -0.0850
  104SAPE   H3S10595   2.155   1.512   3.188 -1.4545 -1.5019 -1.6891
  104SAPE   C2410596   2.105   1.720   3.228 -0.4424 -0.5499 -0.3846
  104SAPE   H4R10597   1.996   1.703   3.241  0.0137 -1.9716  2.4198
  104SAPE   H4S10598   2.124   1.821   3.185  0.5225 -0.1291  0.9413
  104SAPE   C2510599   2.198   1.710   3.351  0.4483 -0.5090  0.3556
  104SAPE   H5R10600   2.304   1.723   3.327 -0.1039 -0.6475 -2.4383
  104SAPE   C2610601   2.167   1.689   3.478 -0.1355 -0.4713 -0.2959
  104SAPE   H6R10602   2.245   1.668   3.553  0.0509  0.0388 -0.3452
  104SAPE   C2710603   2.024   1.685   3.523 -0.1825 -0.3252  0.0275
  104SAPE   H7R10604   1.983   1.584   3.502 -0.6353 -0.2597  0.5728
  104SAPE   H7S10605   1.973   1.765   3.464  0.9061  1.4010  1.3344
  104SAPE   C2810606   1.987   1.699   3.669 -0.2863  0.7042 -1.3574
  104SAPE   H8R10607   2.070   1.666   3.732 -1.3098 -3.4496 -1.9189
  104SAPE   C2910608   1.872   1.737   3.726  0.0009 -0.4964 -0.2027
  104SAPE   H9R10609   1.865   1.734   3.836  0.8299  2.1798 -0.0191
  104SAPE  C21010610   1.754   1.798   3.652  0.4728  0.2328  0.2684
  104SAPE  H10R10611   1.655   1.766   3.692 -0.4178  2.7063  0.2291
  104SAPE  H10S10612   1.754   1.769   3.544 -0.5366 -0.1350  0.3563
  104SAPE  C21110613   1.758   1.949   3.630  0.5037  0.1813 -0.2143
  104SAPE  H11R10614   1.829   1.984   3.554  0.4564 -1.6910 -1.1704
  104SAPE  C21210615   1.677   2.041   3.681  0.5937  0.3549 -0.1767
  104SAPE  H12R10616   1.706   2.143   3.652 -2.1006  1.1454 -0.3284
  104SAPE  C21310617   1.560   2.016   3.770  0.1263 -0.4674 -0.3585
  104SAPE  H13R10618   1.594   1.974   3.867 -0.0584  1.8866  0.8053
  104SAPE  H13S10619   1.516   1.922   3.731  0.8313 -1.0220  0.1447
  104SAPE  C21410620   1.470   2.136   3.775 -0.0274 -0.3370  0.0903
  104SAPE  H14R10621   1.419   2.157   3.680 -0.6725 -1.6844  0.1072
  104SAPE  C21510622   1.432   2.192   3.887  0.7446 -0.3363  0.5926
  104SAPE  H15R10623   1.370   2.282   3.875  1.6196  0.0127 -2.0330
  104SAPE  C21610624   1.483   2.173   4.018  0.2553  0.2986 -0.4317
  104SAPE  H16R10625   1.510   2.268   4.069  0.8606 -0.8633  1.5302
  104SAPE  H16S10626   1.572   2.106   4.026 -0.3143 -0.4740 -0.4813
  104SAPE  C21710627   1.376   2.112   4.109 -0.5368  0.5122 -0.4425
  104SAPE  H17R10628   1.424   2.091   4.207  0.0211  0.7292 -0.6663
  104SAPE  H17S10629   1.354   2.014   4.062 -0.9527 -0.8965  2.4896
  104SAPE  C21810630   1.247   2.194   4.137 -0.3584 -0.5758  0.2877
  104SAPE  H18R10631   1.176   2.171   4.054 -0.6368 -2.0619  0.9132
  104SAPE  H18S10632   1.286   2.298   4.133  0.1646 -0.6258  2.6419
  104SAPE  C21910633   1.182   2.152   4.270  0.9787 -0.2089  1.2697
  104SAPE  H19R10634   1.244   2.191   4.354 -1.0282  0.6071  2.4399
  104SAPE  H19S10635   1.179   2.041   4.268 -0.4340 -0.1954 -1.0571
  104SAPE  C22010636   1.047   2.227   4.292 -0.3697 -0.0479  0.5483
  104SAPE  H20R10637   0.988   2.208   4.200  2.4948 -0.7120 -1.3017
  104SAPE  H20S10638   1.070   2.336   4.285  1.3797 -0.4486 -0.7822
  104SAPE  H20T10639   0.999   2.195   4.387 -0.0289  1.8711  1.4346
  104SAPE   C3310640   1.584   1.644   3.038  0.6835  0.3122  1.0976
  104SAPE   H3X10641   1.558   1.751   3.023 -1.1182 -0.4886 -2.9275
  104SAPE   H3Y10642   1.692   1.629   3.059  1.1846 -0.5587 -1.6809
  104SAPE   C3410643   1.482   1.607   3.144  0.0285 -0.0132  1.1734
  104SAPE   H4X10644   1.463   1.497   3.140  0.0207 -0.0020  0.8590
  104SAPE   H4Y10645   1.378   1.645   3.132  0.0173 -0.3579  0.0794
  104SAPE   C3510646   1.522   1.646   3.283 -0.0759  0.0550 -0.0959
  104SAPE   H5X10647   1.544   1.755   3.286  0.3979 -0.0399 -0.0364
  104SAPE   H5Y10648   1.613   1.592   3.319 -0.4041  0.5567  1.5372
  104SAPE   C3610649   1.415   1.613   3.386  0.0708  0.0908  0.0728
  104SAPE   H6X10650   1.403   1.503   3.399 -0.7187  0.3803  2.2221
  104SAPE   H6Y10651   1.315   1.636   3.342  0.7778 -1.2193 -2.4374
  104SAPE   C3710652   1.434   1.661   3.534  0.0380 -0.2140 -0.0723
  104SAPE   H7X10653   1.463   1.768   3.546 -0.7192 -0.1132  1.0361
  104SAPE   H7Y10654   1.526   1.611   3.570 -0.2782  0.0483  1.1618
  104SAPE   C3810655   1.305   1.640   3.616  0.3160 -0.6310 -0.5095
  104SAPE   H8X10656   1.250   1.551   3.580 -2.5931  0.6185  0.5679
  104SAPE   H8Y10657   1.236   1.726   3.602 -1.0357 -1.5097  0.5073
  104SAPE   C3910658   1.329   1.643   3.771 -0.1122 -0.9971  0.3706
  104SAPE   H9X10659   1.406   1.720   3.792 -0.9796  0.0059 -0.0243
  104SAPE   H9Y10660   1.375   1.544   3.789 -0.7997 -1.3604  0.1769
  104SAPE  C31010661   1.206   1.660   3.856  0.5776 -1.1275  0.0355
  104SAPE  H10X10662   1.139   1.573   3.841 -1.1592  0.2285 -0.3717
  104SAPE  H10Y10663   1.155   1.750   3.817 -0.2970 -2.4832 -2.1723
  104SAPE  C31110664   1.244   1.674   4.005 -0.2037  0.2339 -0.4006
  104SAPE  H11X10665   1.316   1.757   4.017 -0.9478  1.3848 -3.1226
  104SAPE  H11Y10666   1.286   1.580   4.045 -1.3459 -0.7330 -1.3768
  104SAPE  C31210667   1.117   1.702   4.091  0.0227  0.7428  0.2685
  104SAPE  H12X10668   1.041   1.621   4.085 -0.1081  0.8837  0.0489
  104SAPE  H12Y10669   1.075   1.796   4.049 -0.0149  0.9155  0.6859
  104SAPE  C31310670   1.156   1.729   4.234 -0.4304 -0.1559  0.4041
  104SAPE  H13X10671   1.238   1.804   4.233 -0.8258  0.2766  0.7552
  104SAPE  H13Y10672   1.205   1.652   4.297  0.5381  0.6755  0.6862
  104SAPE  C31410673   1.045   1.800   4.305  0.1768  0.5086  0.1592
  104SAPE  H14X10674   0.957   1.732   4.308  0.8381 -0.4755 -1.5210
  104SAPE  H14Y10675   1.020   1.892   4.248 -0.3058  0.9278  1.0265
  104SAPE  C31510676   1.083   1.840   4.452  0.4033  0.0842  0.0090
  104SAPE  H15X10677   1.177   1.899   4.444  1.3543 -0.9356  2.4720
  104SAPE  H15Y10678   1.128   1.765   4.521  1.4779  1.5983  1.0122
  104SAPE  C31610679   0.978   1.927   4.520 -0.1824 -0.3388 -0.4871
  104SAPE  H16X10680   0.899   1.853   4.545 -0.3658  0.3908  1.2632
  104SAPE  H16Y10681   0.934   2.002   4.451 -1.3626  0.8076  1.4034
  104SAPE  C31710682   1.023   2.015   4.642  1.1439 -0.1081  0.0189
  104SAPE  H17X10683   1.105   2.082   4.611  0.1758  1.3778  0.5571
  104SAPE  H17Y10684   1.075   1.954   4.720 -0.8257  0.3708  1.8046
  104SAPE  C31810685   0.926   2.113   4.704  0.2757 -0.1920 -0.4702
  104SAPE  H18X10686   0.966   2.140   4.804  2.8343  0.3869 -1.5609
  104SAPE  H18Y10687   0.828   2.064   4.720 -0.2000  0.9054  0.0655
  104SAPE  H18Z10688   0.909   2.205   4.644 -1.9652 -0.5753 -0.5045
  105SAPE     N10689   4.348   4.179   2.546 -0.1158 -0.0759  0.3524
  105SAPE   HN110690   4.310   4.226   2.461 -3.5979 -2.3865  0.3969
  105SAPE   HN210691   4.451   4.183   2.552 -0.1470  0.8200  0.4076
  105SAPE   HN310692   4.323   4.079   2.535 -0.9925 -0.1055  2.2884
  105SAPE   C1210693   4.286   4.257   2.657  0.1135 -0.1709 -0.1930
  105SAPE  H12A10694   4.342   4.229   2.749  0.5140 -0.8331 -0.6353
  105SAPE  H12B10695   4.180   4.227   2.671 -0.8506  2.1634 -1.8379
  105SAPE   C1110696   4.304   4.411   2.641  0.2103  0.3877  0.3302
  105SAPE  H11A10697   4.407   4.451   2.646 -1.2274  4.7645 -0.4618
  105SAPE  H11B10698   4.260   4.470   2.724 -1.0130  0.3457 -0.2668
  105SAPE     P10699   4.237   4.598   2.471 -0.1672 -0.2719  0.2015
  105SAPE   O1310700   4.377   4.625   2.434 -0.8102  0.1041 -0.0986
  105SAPE   O1410701   4.135   4.621   2.362 -0.4480  0.0987 -0.3174
  105SAPE   O1210702   4.236   4.451   2.516 -0.6503  0.3610  0.3646
  105SAPE   O1110703   4.200   4.692   2.595  0.4415  0.1627 -0.2356
  105SAPE    C110704   4.270   4.809   2.634  0.4436 -0.1502 -1.0105
  105SAPE    HA10705   4.361   4.831   2.573  0.6401 -1.7240 -1.3220
  105SAPE    HB10706   4.197   4.892   2.633 -0.6178 -1.0612 -2.0298
  105SAPE    C210707   4.316   4.803   2.782 -0.5309 -0.0620  0.4450
  105SAPE    HS10708   4.357   4.896   2.826 -1.2223 -0.1916  1.3704
  105SAPE   O2110709   4.425   4.709   2.788 -0.2890 -0.4450  0.1189
  105SAPE   C2110710   4.545   4.753   2.754 -0.2908  0.7767 -0.1856
  105SAPE   O2210711   4.580   4.866   2.736  0.4062 -0.2165  0.1557
  105SAPE   C2210712   4.638   4.634   2.757 -0.8997  0.0375 -0.0176
  105SAPE   H2R10713   4.644   4.603   2.651  1.0020 -4.1840  1.1141
  105SAPE   H2S10714   4.741   4.672   2.777 -0.9330  0.1732 -0.1095
  105SAPE    C310715   4.207   4.745   2.880 -0.2098 -0.4040  0.6198
  105SAPE    HX10716   4.172   4.642   2.857  1.2558 -0.5942 -0.9052
  105SAPE    HY10717   4.114   4.807   2.876 -1.5185 -1.9350  3.5275
  105SAPE   O3110718   4.267   4.730   3.013  0.2903 -0.1108 -0.3148
  105SAPE   C3110719   4.262   4.831   3.095 -0.2013 -0.4021  0.5862
  105SAPE   O3210720   4.202   4.935   3.072  0.1760  0.6789 -0.1154
  105SAPE   C3210721   4.356   4.804   3.215  0.3056 -0.3837  0.5498
  105SAPE   H2X10722   4.434   4.882   3.214 -0.1902  0.1219  0.6342
  105SAPE   H2Y10723   4.416   4.711   3.204  2.8092  1.2196 -0.0256
  105SAPE   C2310724   4.604   4.513   2.843  0.1825 -0.3073 -0.4212
  105SAPE   H3R10725   4.495   4.497   2.849  0.0304  0.9831  0.5057
  105SAPE   H3S10726   4.645   4.541   2.942  1.9623 -0.0436 -1.1836
  105SAPE   C2410727   4.658   4.377   2.800  0.3251 -0.2405 -0.5980
  105SAPE   H4R10728   4.630   4.364   2.693  1.7567  0.6661 -1.1165
  105SAPE   H4S10729   4.607   4.290   2.848  0.4920  0.3359  0.6424
  105SAPE   C2510730   4.805   4.364   2.821 -0.0815 -0.0684  0.3387
  105SAPE   H5R10731   4.877   4.428   2.767 -1.1423  0.1149 -0.8931
  105SAPE   C2610732   4.865   4.287   2.914 -0.2978 -0.0717 -0.3100
  105SAPE   H6R10733   4.974   4.289   2.926 -0.0897  0.2197 -1.9842
  105SAPE   C2710734   4.811   4.186   3.007 -0.2683  0.2701 -0.3266
  105SAPE   H7R10735   4.712   4.158   2.964  0.2012  0.2166 -1.3817
  105SAPE   H7S10736   4.784   4.240   3.101 -0.3106 -1.0432  0.4401
  105SAPE   C2810737   4.883   4.060   3.048  0.1984 -0.2091 -0.1401
  105SAPE   H8R10738   4.828   3.971   3.014 -1.2015 -0.0440  1.5280
  105SAPE   C2910739   5.002   4.047   3.112  0.2433  0.1217 -0.1876
  105SAPE   H9R10740   5.030   3.943   3.135  2.8724  0.8875  0.3889
  105SAPE  C21010741   5.084   4.163   3.173  0.6838  0.3344  0.6517
  105SAPE  H10R10742   5.037   4.176   3.273  0.0355 -2.0430  0.7116
  105SAPE  H10S10743   5.062   4.264   3.130  1.9059  0.1712 -0.4223
  105SAPE  C21110744   5.233   4.146   3.174  0.4988  0.0675 -0.6389
  105SAPE  H11R10745   5.281   4.132   3.076  0.0477  1.4145 -1.0787
  105SAPE  C21210746   5.301   4.127   3.287 -0.2129 -0.5355 -0.0396
  105SAPE  H12R10747   5.409   4.107   3.282  0.1054  0.7964  0.9843
  105SAPE  C21310748   5.246   4.136   3.431 -0.3424  0.3865 -0.3549
  105SAPE  H13R10749   5.253   4.039   3.484 -2.9841 -0.7293 -1.8774
  105SAPE  H13S10750   5.138   4.158   3.444 -0.2165  0.5142  0.5389
  105SAPE  C21410751   5.323   4.231   3.512  0.7658  1.0215 -0.0527
  105SAPE  H14R10752   5.396   4.292   3.456  1.1178  1.0403  0.4202
  105SAPE  C21510753   5.298   4.255   3.640  0.3622  0.5505 -0.3158
  105SAPE  H15R10754   5.365   4.320   3.698  0.8734 -0.0157 -0.2682
  105SAPE  C21610755   5.203   4.189   3.735  0.2075  0.4335 -0.5865
  105SAPE  H16R10756   5.266   4.131   3.805  1.1244  1.1562 -0.8029
  105SAPE  H16S10757   5.144   4.112   3.680 -1.0841 -0.6452  2.1391
  105SAPE  C21710758   5.099   4.276   3.799 -0.2378 -0.4368 -0.4020
  105SAPE  H17R10759   5.045   4.219   3.877 -0.2441  2.3307  1.7769
  105SAPE  H17S10760   5.026   4.302   3.720  0.3983  0.1472 -0.8103
  105SAPE  C21810761   5.151   4.410   3.859 -0.6023 -0.1770  0.4748
  105SAPE  H18R10762   5.198   4.474   3.780  3.4200 -1.7405  1.3860
  105SAPE  H18S10763   5.234   4.398   3.931  1.5475  0.6342 -1.7500
  105SAPE  C21910764   5.053   4.496   3.940  0.3138 -0.6611 -0.3407
  105SAPE  H19R10765   4.964   4.520   3.878  1.0388 -0.1924 -1.2247
  105SAPE  H19S10766   5.103   4.590   3.971 -2.0307  0.2671  0.8695
  105SAPE  C22010767   5.017   4.420   4.071  0.3227  0.1199 -0.6469
  105SAPE  H20R10768   4.963   4.480   4.146  0.5211 -1.5354  0.8887
  105SAPE  H20S10769   5.107   4.367   4.110  0.1859  1.0477  1.0269
  105SAPE  H20T10770   4.941   4.343   4.049  0.9959 -0.7238 -0.0938
  105SAPE   C3310771   4.286   4.809   3.350  0.9403 -0.0034 -0.5626
  105SAPE   H3X10772   4.264   4.712   3.398 -1.4464  0.9989  0.5215
  105SAPE   H3Y10773   4.190   4.865   3.353  1.2231  0.4550  0.2709
  105SAPE   C3410774   4.382   4.891   3.447 -0.0430 -0.0575 -0.7126
  105SAPE   H4X10775   4.431   4.965   3.380  1.6256 -2.0628 -1.8648
  105SAPE   H4Y10776   4.464   4.827   3.486  0.1367  0.6590  0.1142
  105SAPE   C3510777   4.319   4.958   3.563 -0.0202 -0.1762 -0.5119
  105SAPE   H5X10778   4.251   5.043   3.540  0.8512  0.5062 -0.5822
  105SAPE   H5Y10779   4.399   4.998   3.629 -2.3372  0.0585  2.3581
  105SAPE   C3610780   4.235   4.863   3.652  0.3344  0.0131  0.0188
  105SAPE   H6X10781   4.145   4.828   3.597  0.3328  1.2594 -0.8172
  105SAPE   H6Y10782   4.204   4.915   3.746  0.5008  0.8041 -0.3550
  105SAPE   C3710783   4.320   4.748   3.713  0.8441 -0.8379  0.6914
  105SAPE   H7X10784   4.403   4.798   3.766 -0.0723  2.6250 -0.8573
  105SAPE   H7Y10785   4.367   4.685   3.634  2.1797 -0.2493  0.9903
  105SAPE   C3810786   4.240   4.656   3.808 -0.2253 -0.2434  0.0324
  105SAPE   H8X10787   4.166   4.598   3.749 -1.7755 -0.5869  2.1819
  105SAPE   H8Y10788   4.188   4.729   3.874  0.4530 -1.1066  1.5619
  105SAPE   C3910789   4.321   4.557   3.896  0.4638 -0.2328 -0.1841
  105SAPE   H9X10790   4.365   4.484   3.826  3.0192  0.4594  0.6060
  105SAPE   H9Y10791   4.243   4.508   3.958 -0.9992  2.0470 -0.0755
  105SAPE  C31010792   4.431   4.617   3.985  0.3777 -0.0826 -0.0588
  105SAPE  H10X10793   4.385   4.707   4.031 -2.0228 -0.9998 -0.4770
  105SAPE  H10Y10794   4.512   4.653   3.918  1.0000  0.2387  0.8500
  105SAPE  C31110795   4.486   4.519   4.092 -0.5474 -0.4546 -0.4491
  105SAPE  H11X10796   4.556   4.575   4.157  0.8130  0.0937 -2.3097
  105SAPE  H11Y10797   4.549   4.440   4.047  1.4506  0.5445  0.4781
  105SAPE  C31210798   4.386   4.443   4.184  0.2252  0.4741  0.5673
  105SAPE  H12X10799   4.325   4.368   4.128 -0.6275  0.6040  1.2918
  105SAPE  H12Y10800   4.307   4.506   4.231  0.5735 -1.3211  3.7973
  105SAPE  C31310801   4.462   4.363   4.300  0.5005 -0.3501 -0.5200
  105SAPE  H13X10802   4.551   4.421   4.333 -0.1737  2.0473 -2.5700
  105SAPE  H13Y10803   4.495   4.262   4.266  0.5938 -0.7363  0.6905
  105SAPE  C31410804   4.376   4.343   4.427 -0.0548 -0.3307 -0.6739
  105SAPE  H14X10805   4.436   4.274   4.491 -0.5326  0.2608  0.4382
  105SAPE  H14Y10806   4.284   4.289   4.396  0.6222 -1.5583 -0.6364
  105SAPE  C31510807   4.339   4.472   4.502 -0.1210 -0.2328 -0.5474
  105SAPE  H15X10808   4.274   4.537   4.440 -2.2083 -2.5550 -0.9801
  105SAPE  H15Y10809   4.432   4.525   4.529  1.0814 -2.3784 -0.2661
  105SAPE  C31610810   4.255   4.423   4.622  1.2956  0.0680 -0.5237
  105SAPE  H16X10811   4.303   4.334   4.668 -2.3432 -1.1769  1.3306
  105SAPE  H16Y10812   4.156   4.385   4.591  1.6026 -0.0950 -1.3103
  105SAPE  C31710813   4.241   4.540   4.717 -0.2087 -0.2540  0.0649
  105SAPE  H17X10814   4.188   4.631   4.684  0.2237 -0.3130 -0.8030
  105SAPE  H17Y10815   4.340   4.576   4.753 -0.5981  1.4066 -0.4361
  105SAPE  C31810816   4.177   4.510   4.852  0.2761 -0.0521 -0.3240
  105SAPE  H18X10817   4.068   4.488   4.845  0.1811 -0.6590  2.1222
  105SAPE  H18Y10818   4.198   4.588   4.929  0.7842 -2.5800  2.2578
  105SAPE  H18Z10819   4.221   4.421   4.902 -0.8768 -0.8143 -0.6244
  106SAPE     N10820   6.641   0.113   1.736 -0.2672  0.2617  0.4547
  106SAPE   HN110821   6.622   0.021   1.779  0.0296 -0.2163 -0.4092
  106SAPE   HN210822   6.686   0.104   1.642 -1.4214 -0.8091 -0.0185
  106SAPE   HN310823   6.702   0.165   1.802  0.3015 -0.2069  0.2990
  106SAPE   C1210824   6.517   0.191   1.746 -0.2069  0.0095  0.0368
  106SAPE  H12A10825   6.434   0.139   1.692 -0.9170 -0.5056  1.5802
  106SAPE  H12B10826   6.538   0.289   1.699  0.4010  0.3000  0.8996
  106SAPE   C1110827   6.467   0.204   1.886 -0.7392  0.2694 -0.1756
  106SAPE  H11A10828   6.368   0.254   1.881 -0.6900  0.4248  0.4021
  106SAPE  H11B10829   6.528   0.271   1.950 -0.4797  1.4123 -1.5646
  106SAPE     P10830   6.309   0.021   1.970 -0.0500 -0.4693 -0.0776
  106SAPE   O1310831   6.226   0.045   1.846  0.4634 -0.0667 -0.5663
  106SAPE   O1410832   6.320  -0.116   2.025 -0.6203  0.2543  0.2783
  106SAPE   O1210833   6.451   0.076   1.941 -0.0135 -0.0435 -0.4873
  106SAPE   O1110834   6.244   0.126   2.074 -0.2767 -0.4275 -1.0042
  106SAPE    C110835   6.317   0.178   2.190  0.3654  0.0119 -0.8279
  106SAPE    HA10836   6.412   0.122   2.197  0.0382 -0.8968 -2.9638
  106SAPE    HB10837   6.334   0.288   2.186 -1.0079  0.2805  0.1590
  106SAPE    C210838   6.243   0.152   2.333 -0.3257 -0.4066 -0.2606
  106SAPE    HS10839   6.208   0.046   2.333  1.5841 -1.0934 -1.0114
  106SAPE   O2110840   6.142   0.253   2.340  0.0416 -0.1042 -0.0305
  106SAPE   C2110841   6.034   0.220   2.418  0.3936 -0.3046  0.2966
  106SAPE   O2210842   6.030   0.124   2.491 -0.0608 -0.0941 -0.0706
  106SAPE   C2210843   5.925   0.318   2.402  0.3441  0.0617 -0.1057
  106SAPE   H2R10844   5.864   0.290   2.314  0.2616  0.6728 -0.2481
  106SAPE   H2S10845   5.865   0.310   2.496  0.4300 -2.3136 -0.1938
  106SAPE    C310846   6.341   0.172   2.449 -0.0494 -0.4844 -0.5728
  106SAPE    HX10847   6.390   0.072   2.453 -0.5154 -0.8018 -2.1882
  106SAPE    HY10848   6.282   0.192   2.541  0.4352  0.9702 -0.5446
  106SAPE   O3110849   6.438   0.282   2.422  0.3667  0.2708 -0.2796
  106SAPE   C3110850   6.564   0.265   2.467  0.6066  0.7275 -0.4195
  106SAPE   O3210851   6.600   0.165   2.526  0.3064 -0.3553 -0.5657
  106SAPE   C3210852   6.650   0.383   2.430 -0.5132 -0.5505 -0.1922
  106SAPE   H2X10853   6.646   0.380   2.319  1.6773  0.5439 -0.3598
  106SAPE   H2Y10854   6.754   0.365   2.464  0.1241  3.0582  0.1524
  106SAPE   C2310855   5.978   0.456   2.380 -0.2912 -0.3015  0.1030
  106SAPE   H3R10856   5.904   0.523   2.331  1.1535  0.5241 -1.0100
  106SAPE   H3S10857   6.060   0.457   2.305 -1.1169  0.4371 -0.8285
  106SAPE   C2410858   6.031   0.530   2.504 -0.2457 -0.2104  0.3019
  106SAPE   H4R10859   5.946   0.523   2.575 -1.2769  1.3952 -0.7120
  106SAPE   H4S10860   6.036   0.638   2.476  0.0041 -0.2013  0.3753
  106SAPE   C2510861   6.172   0.487   2.548 -0.0085 -0.4395  0.3612
  106SAPE   H5R10862   6.255   0.518   2.483  0.7153 -2.9110 -0.0362
  106SAPE   C2610863   6.207   0.426   2.661  0.3321  0.7490  0.1866
  106SAPE   H6R10864   6.314   0.408   2.677  0.5487 -0.0524 -1.9297
  106SAPE   C2710865   6.113   0.370   2.766  0.4479  0.8867  0.2652
  106SAPE   H7R10866   6.011   0.353   2.723  1.1505 -1.6265 -0.5694
  106SAPE   H7S10867   6.109   0.444   2.848  0.0237 -1.2819  2.2863
  106SAPE   C2810868   6.168   0.238   2.809 -0.1172 -0.0069 -0.2584
  106SAPE   H8R10869   6.153   0.158   2.735 -0.6558 -0.6617  0.5346
  106SAPE   C2910870   6.236   0.207   2.923  0.2893  0.4845 -0.5003
  106SAPE   H9R10871   6.265   0.102   2.938 -0.8514  0.3234  0.7225
  106SAPE  C21010872   6.260   0.293   3.040  0.7581 -0.6230 -0.4246
  106SAPE  H10R10873   6.170   0.285   3.104  0.6534  0.9665 -0.3152
  106SAPE  H10S10874   6.249   0.402   3.020 -0.5716 -0.9153 -1.4440
  106SAPE  C21110875   6.375   0.250   3.126  0.2055 -0.6460 -0.6884
  106SAPE  H11R10876   6.472   0.272   3.080  0.1405  1.3838  0.0068
  106SAPE  C21210877   6.379   0.173   3.234  0.5267 -0.0922  0.0413
  106SAPE  H12R10878   6.471   0.157   3.293 -1.2529 -1.9527  2.5585
  106SAPE  C21310879   6.267   0.104   3.312 -0.6467 -0.2555  0.4119
  106SAPE  H13R10880   6.295  -0.003   3.325 -2.1076 -0.8226 -0.7762
  106SAPE  H13S10881   6.172   0.093   3.255 -1.3395 -0.2219  1.5339
  106SAPE  C21410882   6.237   0.148   3.453  0.2462 -0.6337 -0.2225
  106SAPE  H14R10883   6.164   0.230   3.458  0.5465 -0.4081  0.7318
  106SAPE  C21510884   6.292   0.098   3.564  0.2678 -0.3300 -1.4020
  106SAPE  H15R10885   6.262   0.146   3.658  0.8613  0.8053 -1.7732
  106SAPE  C21610886   6.404  -0.007   3.580 -0.5669  0.1999  0.4867
  106SAPE  H16R10887   6.489   0.029   3.642  0.2417 -1.6603  0.4975
  106SAPE  H16S10888   6.454  -0.031   3.484 -0.9108  0.8874  0.1235
  106SAPE  C21710889   6.351  -0.134   3.648 -0.5989  0.3611  0.3239
  106SAPE  H17R10890   6.422  -0.218   3.662 -0.6298  0.5932  2.0283
  106SAPE  H17S10891   6.256  -0.164   3.598 -2.1017  1.6388  2.2472
  106SAPE  C21810892   6.300  -0.107   3.789  0.5067  0.3287 -0.2228
  106SAPE  H18R10893   6.195  -0.073   3.786  0.2507 -0.4650 -0.4472
  106SAPE  H18S10894   6.367  -0.033   3.838  1.7729 -0.1377 -1.1892
  106SAPE  C21910895   6.299  -0.241   3.876  0.0206  0.6218 -0.1170
  106SAPE  H19R10896   6.231  -0.308   3.819  0.1128 -0.5552  1.1193
  106SAPE  H19S10897   6.266  -0.218   3.979 -0.2135 -0.5575  0.0849
  106SAPE  C22010898   6.429  -0.315   3.896 -1.0202 -0.0775 -0.4331
  106SAPE  H20R10899   6.514  -0.261   3.942 -0.5674  0.1757 -1.5194
  106SAPE  H20S10900   6.471  -0.340   3.796 -0.1432  0.5430 -0.2262
  106SAPE  H20T10901   6.421  -0.409   3.955  2.3465  0.6031  1.3241
  106SAPE   C3310902   6.591   0.510   2.495 -0.4941  0.3546  0.6138
  106SAPE   H3X10903   6.484   0.532   2.473  0.3159  2.9288 -1.2377
  106SAPE   H3Y10904   6.658   0.592   2.460  1.2003 -1.5967 -0.9422
  106SAPE   C3410905   6.617   0.512   2.650  0.1127 -0.0350  0.5277
  106SAPE   H4X10906   6.725   0.513   2.674 -0.0419  1.7001  1.3097
  106SAPE   H4Y10907   6.578   0.418   2.695  0.2127 -1.6940 -2.6003
  106SAPE   C3510908   6.551   0.641   2.704  0.5380 -0.4976 -0.4882
  106SAPE   H5X10909   6.444   0.640   2.673 -0.0622 -2.3446  1.3504
  106SAPE   H5Y10910   6.597   0.733   2.663 -0.9997 -0.0290 -1.2655
  106SAPE   C3610911   6.543   0.635   2.855 -0.2644  0.2506  0.5292
  106SAPE   H6X10912   6.497   0.544   2.897 -0.7439  1.1369  2.0052
  106SAPE   H6Y10913   6.484   0.725   2.883  1.1526  1.5126 -0.3841
  106SAPE   C3710914   6.680   0.665   2.925  0.4068  0.4032 -1.0573
  106SAPE   H7X10915   6.707   0.772   2.912  0.3249  0.6196  0.3782
  106SAPE   H7Y10916   6.768   0.604   2.895  1.1845  0.8828  0.1960
  106SAPE   C3810917   6.655   0.652   3.079  0.7006 -0.7696  0.8081
  106SAPE   H8X10918   6.556   0.699   3.098  0.8310  0.1881 -0.6734
  106SAPE   H8Y10919   6.731   0.713   3.132  2.1755 -1.5709 -0.3022
  106SAPE   C3910920   6.654   0.510   3.129 -0.4982 -0.2004 -0.3165
  106SAPE   H9X10921   6.722   0.447   3.068 -0.6909 -1.7822  1.0559
  106SAPE   H9Y10922   6.552   0.467   3.121 -0.7860 -0.9677  4.6512
  106SAPE  C31010923   6.716   0.516   3.278  0.1020  0.3423  0.1179
  106SAPE  H10X10924   6.676   0.591   3.349 -0.4748 -0.7645  1.0021
  106SAPE  H10Y10925   6.824   0.534   3.261  0.8113 -1.2166  2.4301
  106SAPE  C31110926   6.699   0.380   3.359 -0.0287 -0.0239 -0.5250
  106SAPE  H11X10927   6.757   0.297   3.315  0.8276  0.6131 -0.6226
  106SAPE  H11Y10928   6.591   0.360   3.340 -0.1155 -0.5305  0.4314
  106SAPE  C31210929   6.723   0.401   3.509 -0.2075  0.9889 -0.3236
  106SAPE  H12X10930   6.679   0.498   3.541 -0.2006  0.8967 -0.0290
  106SAPE  H12Y10931   6.829   0.429   3.525 -1.0467  3.2389  2.0525
  106SAPE  C31310932   6.667   0.299   3.600  0.2790 -0.5099  0.4699
  106SAPE  H13X10933   6.681   0.190   3.587  3.3065 -0.2490  0.9671
  106SAPE  H13Y10934   6.558   0.324   3.602  0.1880 -0.9554  1.1727
  106SAPE  C31410935   6.701   0.316   3.751 -0.5332 -0.4620  0.0453
  106SAPE  H14X10936   6.713   0.426   3.763 -0.9180 -0.3169 -0.8220
  106SAPE  H14Y10937   6.797   0.263   3.770 -0.0943  0.2949  0.0052
  106SAPE  C31510938   6.589   0.253   3.842 -0.7435 -0.1789  0.6921
  106SAPE  H15X10939   6.585   0.142   3.836  0.5213 -0.1902 -0.5657
  106SAPE  H15Y10940   6.498   0.306   3.806  1.0152  0.9771 -2.4382
  106SAPE  C31610941   6.630   0.291   3.986 -0.1284 -0.3537 -0.2917
  106SAPE  H16X10942   6.734   0.279   4.023 -0.8547  1.7443  2.8723
  106SAPE  H16Y10943   6.563   0.227   4.047 -1.3143  1.3162  0.1969
  106SAPE  C31710944   6.585   0.431   4.031  0.3322 -0.0546 -0.4899
  106SAPE  H17X10945   6.479   0.441   4.000 -0.3758 -0.6181  1.6116
  106SAPE  H17Y10946   6.646   0.506   3.976 -0.6000  0.9587 -0.1707
  106SAPE  C31810947   6.599   0.440   4.181 -0.2867  0.3396 -0.0334
  106SAPE  H18X10948   6.550   0.532   4.219  0.4774  0.3499  0.9608
  106SAPE  H18Y10949   6.709   0.442   4.196 -0.3793  1.7344  0.6638
  106SAPE  H18Z10950   6.562   0.350   4.233  1.3288  0.2752  1.0624
  107SAPE     N10951   1.517   0.125   2.012  0.1490  0.7465 -0.6001
  107SAPE   HN110952   1.465   0.166   2.092 -0.7174 -0.9471 -0.2741
  107SAPE   HN210953   1.446   0.103   1.940 -0.6049 -2.0311  0.8549
  107SAPE   HN310954   1.568   0.040   2.043  0.1584  0.0350 -2.4905
  107SAPE   C1210955   1.611   0.228   1.952  0.2949 -0.1881 -0.0494
  107SAPE  H12A10956   1.567   0.329   1.963  0.9841  0.2611 -1.2895
  107SAPE  H12B10957   1.628   0.212   1.844  2.1022  0.9589  0.0206
  107SAPE   C1110958   1.754   0.225   2.016  0.8981 -0.2138 -0.6190
  107SAPE  H11A10959   1.812   0.304   1.963 -0.6900  1.3126 -0.1699
  107SAPE  H11B10960   1.799   0.126   1.995 -0.0230 -1.0592  1.1535
  107SAPE     P10961   1.883   0.284   2.232  0.2582  0.2406 -0.1639
  107SAPE   O1310962   1.985   0.191   2.179  0.5396 -0.0769 -0.2347
  107SAPE   O1410963   1.906   0.429   2.215  0.6817 -0.4531 -0.4641
  107SAPE   O1210964   1.746   0.248   2.159 -0.7419 -0.0563  0.2038
  107SAPE   O1110965   1.858   0.247   2.386  0.2311 -0.6201 -0.6767
  107SAPE    C110966   1.945   0.309   2.486  0.1447  0.2706 -0.1035
  107SAPE    HA10967   2.024   0.374   2.445  2.2318 -1.8998  0.2324
  107SAPE    HB10968   1.884   0.354   2.567 -1.5402  0.0602 -1.2043
  107SAPE    C210969   2.018   0.190   2.546 -0.2513  0.3689 -0.5015
  107SAPE    HS10970   2.071   0.130   2.470  2.6155  0.6731  1.1156
  107SAPE   O2110971   1.924   0.105   2.621  0.2355  0.2667  0.0440
  107SAPE   C2110972   1.973   0.000   2.678 -0.2323 -0.9315  0.0101
  107SAPE   O2210973   2.082  -0.048   2.659 -0.2968  0.4116 -0.6101
  107SAPE   C2210974   1.884  -0.047   2.788 -0.2554  0.0844  0.5489
  107SAPE   H2R10975   1.890   0.032   2.866  3.3880  0.6739 -0.1633
  107SAPE   H2S10976   1.778  -0.051   2.752 -0.0779 -2.0866  0.1067
  107SAPE    C310977   2.133   0.242   2.643 -0.0848 -0.0898  0.3707
  107SAPE    HX10978   2.190   0.309   2.575  1.0735 -0.9528  0.4634
  107SAPE    HY10979   2.199   0.160   2.679  1.0916  0.2152 -0.9908
  107SAPE   O3110980   2.078   0.311   2.755  0.2932  0.2753  0.4888
  107SAPE   C3110981   2.136   0.419   2.795 -0.3935 -0.2505  0.4523
  107SAPE   O3210982   2.236   0.472   2.747  0.1677  0.3429  0.9231
  107SAPE   C3210983   2.061   0.469   2.919  0.0190  0.3834  0.2915
  107SAPE   H2X10984   2.028   0.380   2.978  2.1534  1.0253  2.6571
  107SAPE   H2Y10985   1.978   0.528   2.877 -0.0900  0.5533  0.7359
  107SAPE   C2310986   1.923  -0.185   2.846  0.1469  0.0725 -0.2149
  107SAPE   H3R10987   2.033  -0.181   2.862  0.0256  2.3145  0.4785
  107SAPE   H3S10988   1.885  -0.260   2.773 -1.4552 -0.0932  0.7562
  107SAPE   C2410989   1.857  -0.203   2.994  0.9565 -0.2139 -0.3844
  107SAPE   H4R10990   1.872  -0.308   3.028 -0.3120  0.3190  2.0711
  107SAPE   H4S10991   1.750  -0.181   2.975  1.6328  1.7893 -2.4117
  107SAPE   C2510992   1.915  -0.105   3.099 -0.5006  0.0611  0.3630
  107SAPE   H5R10993   1.879  -0.003   3.076  2.1454  0.2994 -3.6721
  107SAPE   C2610994   1.996  -0.125   3.205  0.3150 -0.0700  0.2989
  107SAPE   H6R10995   2.028  -0.046   3.275 -0.2093  0.2917  0.1352
  107SAPE   C2710996   2.062  -0.254   3.235  0.2352  0.0080 -0.2898
  107SAPE   H7R10997   2.170  -0.260   3.208  0.4909 -2.6937  0.9719
  107SAPE   H7S10998   2.019  -0.333   3.170  0.5311  0.4709 -1.0617
  107SAPE   C2810999   2.054  -0.288   3.384 -0.1610 -0.6082  0.0266
  107SAPE   H8R11000   2.157  -0.291   3.424 -0.2214 -1.5508  0.1487
  107SAPE   C2911001   1.946  -0.299   3.462  0.1678 -0.5041  1.0585
  107SAPE   H9R11002   1.957  -0.316   3.570  0.4238 -1.9674  0.8254
  107SAPE  C21011003   1.807  -0.295   3.404  0.8174 -0.5054 -0.0363
  107SAPE  H10R11004   1.751  -0.387   3.431  2.8782 -1.4209  1.3737
  107SAPE  H10S11005   1.807  -0.297   3.293  1.0208  2.5332 -0.1854
  107SAPE  C21111006   1.732  -0.173   3.457  0.4803 -0.0074  0.2243
  107SAPE  H11R11007   1.740  -0.083   3.395  0.2683 -0.4042 -0.3934
  107SAPE  C21211008   1.657  -0.167   3.565 -0.7178 -0.2444 -0.2628
  107SAPE  H12R11009   1.619  -0.072   3.605  1.0666 -0.3627  1.9291
  107SAPE  C21311010   1.644  -0.284   3.662  0.2301 -0.6505  0.4774
  107SAPE  H13R11011   1.636  -0.250   3.767 -0.6080 -0.5134  0.3739
  107SAPE  H13S11012   1.741  -0.338   3.660 -0.4514 -1.8876 -0.5885
  107SAPE  C21411013   1.529  -0.382   3.639  0.0636 -0.1877  0.6668
  107SAPE  H14R11014   1.575  -0.479   3.613  0.4666 -0.1607  1.2459
  107SAPE  C21511015   1.390  -0.367   3.644 -0.3480  0.7118  0.4650
  107SAPE  H15R11016   1.331  -0.459   3.634  0.6061  0.3257 -2.6980
  107SAPE  C21611017   1.309  -0.238   3.661  0.0076  0.4797  1.0124
  107SAPE  H16R11018   1.206  -0.252   3.623  1.0530 -2.3063 -1.1725
  107SAPE  H16S11019   1.362  -0.156   3.608  1.6444 -0.9085  0.3939
  107SAPE  C21711020   1.296  -0.217   3.815 -0.3739  0.2088 -0.0744
  107SAPE  H17R11021   1.393  -0.216   3.868 -0.8204 -0.5088  0.7911
  107SAPE  H17S11022   1.221  -0.284   3.863 -0.7963  0.9146  0.2734
  107SAPE  C21811023   1.232  -0.074   3.843 -0.7938 -0.0832  0.4773
  107SAPE  H18R11024   1.123  -0.076   3.823 -0.5034 -2.1079 -1.2845
  107SAPE  H18S11025   1.262  -0.003   3.763  0.7718 -1.4023 -0.1632
  107SAPE  C21911026   1.258  -0.019   3.984  0.5416 -0.4715  0.1383
  107SAPE  H19R11027   1.367   0.001   3.994  0.5186 -1.1182  2.0670
  107SAPE  H19S11028   1.234  -0.098   4.058  0.3947  0.1142  0.7269
  107SAPE  C22011029   1.175   0.100   4.028 -0.2301 -0.3519 -0.1671
  107SAPE  H20R11030   1.068   0.075   4.011 -0.2798 -0.1107 -0.2160
  107SAPE  H20S11031   1.210   0.188   3.969 -0.0723  0.0392  0.5013
  107SAPE  H20T11032   1.191   0.130   4.134  2.8349 -0.7744 -0.4173
  107SAPE   C3311033   2.147   0.547   3.026  0.1226  0.2592  1.1133
  107SAPE   H3X11034   2.182   0.636   2.970  0.8093 -0.2563  0.6988
  107SAPE   H3Y11035   2.231   0.479   3.053  0.3580  0.4308  0.8201
  107SAPE   C3411036   2.071   0.578   3.151 -0.2651 -0.3328 -0.5041
  107SAPE   H4X11037   2.047   0.483   3.203  0.7525 -0.3875 -0.1058
  107SAPE   H4Y11038   1.976   0.633   3.132  0.2230  0.9261  0.5295
  107SAPE   C3511039   2.142   0.680   3.244  0.3335 -1.0380 -0.0414
  107SAPE   H5X11040   2.153   0.774   3.186 -0.2565 -2.1813 -2.1317
  107SAPE   H5Y11041   2.246   0.654   3.271  0.6025  1.3477  1.4710
  107SAPE   C3611042   2.072   0.705   3.374 -0.6989  0.5241 -0.5585
  107SAPE   H6X11043   2.140   0.758   3.445  0.1870 -2.3069  0.8488
  107SAPE   H6Y11044   2.056   0.608   3.425 -3.6878  0.3629 -1.6136
  107SAPE   C3711045   1.937   0.787   3.361 -0.1366  0.3961  0.3882
  107SAPE   H7X11046   1.856   0.735   3.305 -1.8816  1.7675  1.5024
  107SAPE   H7Y11047   1.960   0.880   3.304 -2.3566  1.6918  1.4492
  107SAPE   C3811048   1.885   0.819   3.498 -0.6392 -0.1808  0.1976
  107SAPE   H8X11049   1.804   0.891   3.477 -0.0049 -0.2086 -2.7461
  107SAPE   H8Y11050   1.967   0.873   3.552 -1.1822 -0.6159  1.5053
  107SAPE   C3911051   1.840   0.698   3.593 -0.6208 -0.1587 -0.0711
  107SAPE   H9X11052   1.922   0.624   3.604  0.1244  0.8796  2.0999
  107SAPE   H9Y11053   1.750   0.659   3.542 -0.6794 -3.0461  1.9872
  107SAPE  C31011054   1.801   0.763   3.727 -0.0632 -0.0548 -0.6472
  107SAPE  H10X11055   1.729   0.699   3.781 -0.4218  1.3580  0.6253
  107SAPE  H10Y11056   1.747   0.854   3.694 -1.4049 -0.8823 -0.7732
  107SAPE  C31111057   1.924   0.793   3.823  0.7705 -0.0906 -0.5544
  107SAPE  H11X11058   1.892   0.851   3.912  1.4878 -0.6866  0.1083
  107SAPE  H11Y11059   2.007   0.847   3.774  1.0143 -0.3600 -0.4434
  107SAPE  C31211060   1.979   0.664   3.881  0.1944  0.0443  0.2060
  107SAPE  H12X11061   2.073   0.698   3.930 -0.0316  0.6066  0.2620
  107SAPE  H12Y11062   2.013   0.602   3.795 -1.6230 -1.9663  0.8414
  107SAPE  C31311063   1.897   0.585   3.985 -0.0715 -0.1577 -0.7145
  107SAPE  H13X11064   1.810   0.532   3.940  2.0992 -1.0717 -4.2757
  107SAPE  H13Y11065   1.863   0.657   4.063 -0.3506 -1.2355  0.1921
  107SAPE  C31411066   1.984   0.479   4.065 -0.2178 -0.5453 -0.7956
  107SAPE  H14X11067   2.087   0.519   4.080 -0.3024 -1.4864  3.2387
  107SAPE  H14Y11068   1.995   0.388   4.002  1.2958 -0.2740 -0.9579
  107SAPE  C31511069   1.923   0.440   4.198  0.2319  0.6361 -0.6528
  107SAPE  H15X11070   1.832   0.383   4.173  2.2582 -2.5067 -1.4024
  107SAPE  H15Y11071   1.902   0.531   4.259  1.6161  1.3974 -1.2663
  107SAPE  C31611072   2.004   0.336   4.276  0.4664 -0.7937 -0.5249
  107SAPE  H16X11073   2.111   0.365   4.281  0.1398  0.5340 -0.8270
  107SAPE  H16Y11074   2.005   0.238   4.223  0.4211 -1.3493  0.4703
  107SAPE  C31711075   1.941   0.308   4.415 -0.3050  0.1402  0.3848
  107SAPE  H17X11076   1.964   0.393   4.482 -1.1201 -0.2892  1.2223
  107SAPE  H17Y11077   1.990   0.216   4.454  0.2875 -0.1217 -0.8965
  107SAPE  C31811078   1.784   0.285   4.420 -0.1268  0.0680  0.3696
  107SAPE  H18X11079   1.715   0.361   4.378  1.2793  0.0931 -2.0712
  107SAPE  H18Y11080   1.751   0.254   4.522 -0.8488 -1.3354 -0.2603
  107SAPE  H18Z11081   1.759   0.204   4.348 -2.9017  2.2894 -1.3749
  108SAPE     N11082   1.543   0.211   2.451  0.6337 -0.1380 -0.1623
  108SAPE   HN111083   1.607   0.290   2.474  2.3909 -1.9052  1.3645
  108SAPE   HN211084   1.498   0.240   2.361 -2.4403 -0.6453  1.0903
  108SAPE   HN311085   1.463   0.218   2.517  0.1688  2.0486 -0.8536
  108SAPE   C1211086   1.611   0.080   2.444 -0.4985  0.2016 -0.0423
  108SAPE  H12A11087   1.690   0.062   2.519 -0.9513 -3.0452 -0.1624
  108SAPE  H12B11088   1.649   0.069   2.340  2.5455 -1.9073  1.1639
  108SAPE   C1111089   1.501  -0.027   2.476 -0.1148 -0.0813 -0.0462
  108SAPE  H11A11090   1.471  -0.011   2.581 -0.5471  0.5515 -0.2622
  108SAPE  H11B11091   1.542  -0.130   2.470  0.3402  0.0947 -0.0014
  108SAPE     P11092   1.266  -0.114   2.394  0.5349 -0.0258 -0.2321
  108SAPE   O1311093   1.142  -0.044   2.355 -0.3677  0.4087 -0.9297
  108SAPE   O1411094   1.308  -0.226   2.314  0.4755 -0.3116 -0.4484
  108SAPE   O1211095   1.384  -0.003   2.396  0.2351  0.1896  0.0781
  108SAPE   O1111096   1.254  -0.162   2.541 -0.4849  0.7751 -0.0044
  108SAPE    C111097   1.173  -0.104   2.645  0.3538 -0.5968  0.0614
  108SAPE    HA11098   1.183   0.006   2.658 -0.7868 -0.2736 -1.4716
  108SAPE    HB11099   1.065  -0.117   2.621  0.1182  0.5241  0.4667
  108SAPE    C211100   1.199  -0.181   2.781  0.0154 -0.3107  0.5237
  108SAPE    HS11101   1.102  -0.168   2.833  0.1819  0.0544  0.7491
  108SAPE   O2111102   1.309  -0.128   2.860 -0.3330 -0.1064  0.0500
  108SAPE   C2111103   1.275  -0.010   2.910  0.2383 -1.0587 -0.7068
  108SAPE   O2211104   1.160   0.022   2.931  0.2758  0.0349 -0.1890
  108SAPE   C2211105   1.402   0.065   2.958  0.6910  0.8711 -0.0720
  108SAPE   H2R11106   1.440   0.124   2.872  2.3502 -1.0264 -0.7325
  108SAPE   H2S11107   1.370   0.147   3.025  0.0229 -1.1175  2.1961
  108SAPE    C311108   1.228  -0.326   2.755  0.0689  0.0528 -1.2717
  108SAPE    HX11109   1.332  -0.333   2.715  0.0685  1.8682 -1.6722
  108SAPE    HY11110   1.161  -0.356   2.672 -1.4917  0.4540 -0.2000
  108SAPE   O3111111   1.198  -0.408   2.872 -0.2959  0.0858  0.2129
  108SAPE   C3111112   1.200  -0.543   2.841 -0.2328 -0.1477 -0.0186
  108SAPE   O3211113   1.255  -0.596   2.744 -0.4199 -0.0343  0.1653
  108SAPE   C3211114   1.144  -0.600   2.965 -0.2156  0.4902 -0.3015
  108SAPE   H2X11115   1.055  -0.540   2.993  0.1062  0.2357  1.3867
  108SAPE   H2Y11116   1.222  -0.600   3.044  0.6389 -1.2478 -1.0939
  108SAPE   C2311117   1.524  -0.024   3.002 -0.1045 -0.2640 -0.0785
  108SAPE   H3R11118   1.620   0.029   2.982  0.3789 -0.6717  1.1057
  108SAPE   H3S11119   1.533  -0.114   2.938  0.1686 -0.5936  0.4145
  108SAPE   C2411120   1.535  -0.067   3.149  0.2261 -0.1969  0.4685
  108SAPE   H4R11121   1.508   0.017   3.216 -1.5482 -0.8359  0.6163
  108SAPE   H4S11122   1.638  -0.104   3.169  1.4936  0.9907 -3.0559
  108SAPE   C2511123   1.428  -0.171   3.157  0.3223 -0.0911 -0.3318
  108SAPE   H5R11124   1.447  -0.256   3.090  0.5519  0.3339 -0.8190
  108SAPE   C2611125   1.328  -0.177   3.239  0.4667 -0.5366  0.2524
  108SAPE   H6R11126   1.259  -0.263   3.244  0.3028 -0.3247  2.9279
  108SAPE   C2711127   1.296  -0.064   3.338 -0.7469  0.8495 -0.1457
  108SAPE   H7R11128   1.394  -0.040   3.384  0.2186 -1.9078 -0.5914
  108SAPE   H7S11129   1.236  -0.099   3.424 -0.5279  0.7787 -0.0210
  108SAPE   C2811130   1.228   0.057   3.283  0.6902  0.4417  0.4104
  108SAPE   H8R11131   1.179   0.040   3.186  0.2555 -0.9096  0.8571
  108SAPE   C2911132   1.217   0.184   3.330 -0.3380 -0.3950 -0.4055
  108SAPE   H9R11133   1.173   0.260   3.263  1.5285  1.3576  0.2324
  108SAPE  C21011134   1.289   0.235   3.451 -0.1073  0.0938 -0.0255
  108SAPE  H10R11135   1.375   0.295   3.414 -1.2701  0.6508 -1.9919
  108SAPE  H10S11136   1.325   0.140   3.495 -0.2205 -0.6582 -1.4761
  108SAPE  C21111137   1.205   0.318   3.546 -0.3767  0.5071 -0.4626
  108SAPE  H11R11138   1.097   0.301   3.542 -0.0925 -1.6491 -0.1024
  108SAPE  C21211139   1.272   0.400   3.629 -0.1154 -0.1493  0.1634
  108SAPE  H12R11140   1.210   0.466   3.692  0.6370 -0.7642  1.5965
  108SAPE  C21311141   1.416   0.420   3.625 -0.0637  0.8877  0.0319
  108SAPE  H13R11142   1.459   0.446   3.526  1.8672  1.6476  1.0105
  108SAPE  H13S11143   1.467   0.329   3.663  1.1345  1.3523 -0.4079
  108SAPE  C21411144   1.442   0.529   3.723 -0.4752 -0.1798  0.4209
  108SAPE  H14R11145   1.439   0.625   3.669 -2.7227 -0.7665 -0.6108
  108SAPE  C21511146   1.488   0.527   3.853  0.1349  0.7907 -0.5769
  108SAPE  H15R11147   1.490   0.623   3.906 -1.0335  0.1408  0.7366
  108SAPE  C21611148   1.520   0.402   3.936  0.4338 -0.8216 -0.8732
  108SAPE  H16R11149   1.629   0.399   3.959 -0.1912 -1.2200  2.7231
  108SAPE  H16S11150   1.491   0.315   3.875 -0.2695 -2.7909  2.0618
  108SAPE  C21711151   1.448   0.406   4.075 -0.6214  0.3356  0.4831
  108SAPE  H17R11152   1.343   0.384   4.047  0.3029 -0.5715 -2.6964
  108SAPE  H17S11153   1.465   0.507   4.117 -2.1280  3.0138 -4.4915
  108SAPE  C21811154   1.486   0.280   4.163 -0.3455 -0.2606 -0.0133
  108SAPE  H18R11155   1.595   0.261   4.165  0.4970  3.7513  1.2813
  108SAPE  H18S11156   1.451   0.193   4.104  1.9141  0.0732 -2.0099
  108SAPE  C21911157   1.418   0.267   4.302  0.6259 -0.6903  0.0347
  108SAPE  H19R11158   1.311   0.292   4.290  0.2996 -0.2655  3.0780
  108SAPE  H19S11159   1.460   0.352   4.360  2.6359 -1.3286 -0.3959
  108SAPE  C22011160   1.420   0.132   4.374  0.1050 -0.4689  0.7433
  108SAPE  H20R11161   1.526   0.103   4.386  1.0499  2.2053 -0.5452
  108SAPE  H20S11162   1.393   0.049   4.305  1.4602 -1.1239  0.9620
  108SAPE  H20T11163   1.359   0.137   4.467 -1.4294  1.5056 -0.2798
  108SAPE   C3311164   1.095  -0.747   2.939 -0.1948  0.7378 -0.2135
  108SAPE   H3X11165   1.176  -0.806   2.892 -0.7100  0.6091 -0.9495
  108SAPE   H3Y11166   1.001  -0.748   2.880 -2.1536  2.5051  2.5940
  108SAPE   C3411167   1.074  -0.817   3.077 -0.3757 -0.1595 -0.4831
  108SAPE   H4X11168   1.177  -0.824   3.119 -0.5422 -0.7370 -0.1639
  108SAPE   H4Y11169   1.046  -0.924   3.066 -0.9306 -0.0262 -0.3897
  108SAPE   C3511170   0.966  -0.755   3.169  0.0566  0.2641  0.9918
  108SAPE   H5X11171   0.984  -0.648   3.190  0.1374  0.3038  0.7243
  108SAPE   H5Y11172   0.870  -0.767   3.115 -0.0974  0.0466  1.3125
  108SAPE   C3611173   0.955  -0.831   3.306 -0.2498  0.7508  0.0552
  108SAPE   H6X11174   0.958  -0.941   3.293  1.4771  0.7842 -0.0673
  108SAPE   H6Y11175   0.855  -0.806   3.347 -0.1362  1.3896 -0.0382
  108SAPE   C3711176   1.058  -0.781   3.404  0.6228  0.5222  0.0937
  108SAPE   H7X11177   1.071  -0.672   3.384 -2.4073  0.8458 -0.6276
  108SAPE   H7Y11178   1.147  -0.840   3.374  0.9472  1.1852 -0.2917
  108SAPE   C3811179   1.025  -0.799   3.552 -0.1778 -0.3222 -0.1475
  108SAPE   H8X11180   1.013  -0.907   3.575  1.6815 -0.2111  1.6255
  108SAPE   H8Y11181   0.927  -0.747   3.559  0.6640  1.1605  1.8248
  108SAPE   C3911182   1.129  -0.735   3.645  0.5258 -0.6425 -0.4298
  108SAPE   H9X11183   1.131  -0.626   3.626  1.1166 -0.7797 -1.1893
  108SAPE   H9Y11184   1.228  -0.783   3.630  0.3318 -1.0672 -0.3546
  108SAPE  C31011185   1.103  -0.759   3.796  0.4079  0.3085 -0.5323
  108SAPE  H10X11186   1.096  -0.868   3.816  0.7967  0.1365 -1.3225
  108SAPE  H10Y11187   1.003  -0.712   3.810  1.0175  1.3520  0.5654
  108SAPE  C31111188   1.206  -0.700   3.892 -0.8706 -0.0613  0.4645
  108SAPE  H11X11189   1.146  -0.687   3.985 -2.5721  0.8248 -0.6985
  108SAPE  H11Y11190   1.231  -0.600   3.852 -1.2146 -0.9047 -2.0427
  108SAPE  C31211191   1.330  -0.790   3.917  0.3246 -0.6642 -0.4417
  108SAPE  H12X11192   1.394  -0.778   3.826  1.1523  0.8444  0.3044
  108SAPE  H12Y11193   1.297  -0.895   3.933  2.2958 -1.1929  0.5002
  108SAPE  C31311194   1.417  -0.760   4.046  0.2752 -0.2378  0.2041
  108SAPE  H13X11195   1.481  -0.850   4.056 -0.9002 -1.2932 -1.3250
  108SAPE  H13Y11196   1.351  -0.760   4.135 -0.7799 -1.1682 -0.5478
  108SAPE  C31411197   1.503  -0.631   4.019 -0.1564 -0.2871 -0.2782
  108SAPE  H14X11198   1.428  -0.550   4.006 -1.1860 -0.8807  1.5284
  108SAPE  H14Y11199   1.555  -0.647   3.922 -1.1977  0.6412 -1.0033
  108SAPE  C31511200   1.618  -0.605   4.124 -0.0135 -0.7984  1.0277
  108SAPE  H15X11201   1.689  -0.689   4.109 -0.2288 -1.2703  2.4825
  108SAPE  H15Y11202   1.577  -0.603   4.227 -0.9565  2.1852  0.7063
  108SAPE  C31611203   1.685  -0.465   4.104 -0.1286  0.6573  0.0550
  108SAPE  H16X11204   1.614  -0.388   4.142 -0.7027  1.1288 -1.8908
  108SAPE  H16Y11205   1.701  -0.456   3.995 -0.9640 -2.5921 -0.4293
  108SAPE  C31711206   1.820  -0.446   4.173  0.5911 -0.1481  0.5980
  108SAPE  H17X11207   1.856  -0.343   4.152 -0.1008  0.0577  0.3842
  108SAPE  H17Y11208   1.901  -0.508   4.131  1.6513  0.5701  1.5225
  108SAPE  C31811209   1.808  -0.457   4.325 -0.0237 -0.4517  0.6721
  108SAPE  H18X11210   1.727  -0.520   4.366 -0.3344 -0.9546 -0.6859
  108SAPE  H18Y11211   1.816  -0.360   4.379  0.9278 -0.9096  1.3973
  108SAPE  H18Z11212   1.901  -0.505   4.363  1.3169  1.0800 -0.5053
  109SAPE     N11213   3.998   2.265   2.463 -0.2085 -0.6118  0.4893
  109SAPE   HN111214   4.009   2.231   2.561  1.5842  1.5510  1.1417
  109SAPE   HN211215   3.932   2.201   2.415 -0.3329 -0.4760  0.4784
  109SAPE   HN311216   4.086   2.254   2.408  1.2740  2.2185  2.0481
  109SAPE   C1211217   3.949   2.406   2.465 -0.3140  0.3590  0.5256
  109SAPE  H12A11218   4.008   2.462   2.541 -2.2178  1.0801  1.5330
  109SAPE  H12B11219   3.844   2.411   2.499  0.1060 -0.3723  1.9648
  109SAPE   C1111220   3.947   2.456   2.318  0.0713  0.9152 -0.0436
  109SAPE  H11A11221   3.891   2.551   2.312  0.2449  1.1400  1.6094
  109SAPE  H11B11222   3.885   2.396   2.248  0.5259  1.1532 -0.6684
  109SAPE     P11223   4.178   2.579   2.288  0.0928  0.3482  0.0587
  109SAPE   O1311224   4.274   2.535   2.395  0.0611 -0.0886  1.0215
  109SAPE   O1411225   4.235   2.624   2.157  0.2841  0.2728  0.0810
  109SAPE   O1211226   4.076   2.459   2.257 -0.0573 -0.0021  0.6009
  109SAPE   O1111227   4.085   2.684   2.345  0.4240 -0.5909  0.2553
  109SAPE    C111228   4.133   2.805   2.408 -0.1243  0.3381  0.9108
  109SAPE    HA11229   4.242   2.821   2.421  0.1122  0.0505 -0.5558
  109SAPE    HB11230   4.097   2.891   2.347  0.2780  0.1890  0.4560
  109SAPE    C211231   4.074   2.821   2.557  0.2166  0.0529 -0.1845
  109SAPE    HS11232   4.105   2.920   2.598 -1.9380  0.9286 -0.5227
  109SAPE   O2111233   4.110   2.708   2.636 -0.5207  0.7212  0.1837
  109SAPE   C2111234   4.234   2.720   2.690 -0.4928 -0.7580  0.1434
  109SAPE   O2211235   4.315   2.797   2.650  0.0776 -0.2354  0.5058
  109SAPE   C2211236   4.251   2.612   2.794  0.4415 -0.0714  0.6741
  109SAPE   H2R11237   4.158   2.551   2.804 -1.1160  2.4028  2.4862
  109SAPE   H2S11238   4.324   2.545   2.743  0.5684  0.2843  0.3915
  109SAPE    C311239   3.913   2.827   2.538  0.0203  0.0319 -0.7830
  109SAPE    HX11240   3.885   2.730   2.491 -0.3980  0.7044 -1.9719
  109SAPE    HY11241   3.890   2.905   2.463  0.9819  0.8648 -0.2348
  109SAPE   O3111242   3.845   2.862   2.659  0.3907  0.3642 -0.5557
  109SAPE   C3111243   3.755   2.767   2.703 -0.0828 -0.7109  0.3701
  109SAPE   O3211244   3.735   2.661   2.658 -0.4730 -0.3469 -0.8174
  109SAPE   C3211245   3.694   2.820   2.835  0.2575  0.0422 -0.5912
  109SAPE   H2X11246   3.596   2.772   2.854  0.7843 -0.3862  1.2508
  109SAPE   H2Y11247   3.679   2.930   2.829 -1.0157 -0.0136  0.8875
  109SAPE   C2311248   4.292   2.677   2.934  0.5020  0.2218 -0.2714
  109SAPE   H3R11249   4.371   2.750   2.907 -0.1641  0.3562 -1.9999
  109SAPE   H3S11250   4.326   2.593   2.998 -0.9956  0.8823  1.4700
  109SAPE   C2411251   4.182   2.754   3.009  0.1708  0.1689  0.4511
  109SAPE   H4R11252   4.099   2.682   3.027  1.1969 -0.9744  0.7491
  109SAPE   H4S11253   4.122   2.834   2.959  0.8224  1.2644  1.3732
  109SAPE   C2511254   4.232   2.791   3.140  0.3513 -0.1566  0.0748
  109SAPE   H5R11255   4.260   2.897   3.141  0.2229 -0.0798 -1.5982
  109SAPE   C2611256   4.223   2.715   3.250 -0.3391 -0.4706 -0.5168
  109SAPE   H6R11257   4.265   2.755   3.344 -1.6279 -1.3130  0.4684
  109SAPE   C2711258   4.166   2.579   3.256  0.6615 -0.0021 -0.1602
  109SAPE   H7R11259   4.237   2.507   3.301 -0.4236  0.3877  2.3643
  109SAPE   H7S11260   4.156   2.531   3.156  1.1953  1.7897 -1.1100
  109SAPE   C2811261   4.031   2.573   3.328 -0.4136 -0.0519  0.3746
  109SAPE   H8R11262   3.949   2.611   3.265 -0.9149 -0.6786  0.6346
  109SAPE   C2911263   4.001   2.535   3.450  0.5745  0.6934 -0.1297
  109SAPE   H9R11264   3.896   2.521   3.478  0.7025  2.2864  1.3004
  109SAPE  C21011265   4.101   2.488   3.553 -0.2904 -0.0488  0.1825
  109SAPE  H10R11266   4.207   2.508   3.525 -0.2403 -1.6380 -0.9295
  109SAPE  H10S11267   4.093   2.377   3.559  1.9829 -0.2742 -0.0124
  109SAPE  C21111268   4.076   2.561   3.682 -0.3721 -0.2047  0.1471
  109SAPE  H11R11269   4.151   2.640   3.702 -0.5617 -0.1060  0.4895
  109SAPE  C21211270   3.998   2.531   3.788 -0.2685 -0.5372 -0.5836
  109SAPE  H12R11271   4.005   2.604   3.870  1.7888  0.0260 -1.1892
  109SAPE  C21311272   3.911   2.416   3.793  0.6014  0.7231  0.1648
  109SAPE  H13R11273   3.951   2.344   3.868 -1.9881 -0.8287  0.1761
  109SAPE  H13S11274   3.902   2.369   3.693 -1.9315  3.0568 -0.8257
  109SAPE  C21411275   3.774   2.455   3.827 -0.2319  0.4712  0.4777
  109SAPE  H14R11276   3.712   2.482   3.740  1.0741  0.4918 -0.4826
  109SAPE  C21511277   3.719   2.450   3.947  0.1152 -0.3936 -0.7359
  109SAPE  H15R11278   3.615   2.484   3.952  0.3162  0.4021 -1.7564
  109SAPE  C21611279   3.793   2.427   4.074 -0.3105  0.7631 -0.5577
  109SAPE  H16R11280   3.763   2.499   4.152  0.4287  0.5897 -0.1069
  109SAPE  H16S11281   3.901   2.446   4.060  0.6582 -1.2148  3.0175
  109SAPE  C21711282   3.784   2.278   4.143  0.2011 -0.3335  0.1751
  109SAPE  H17R11283   3.679   2.261   4.176  0.1227  1.1915  0.7984
  109SAPE  H17S11284   3.847   2.276   4.234 -0.2651  2.3621  0.6396
  109SAPE  C21811285   3.830   2.169   4.042  0.0994 -0.4284  0.5308
  109SAPE  H18R11286   3.924   2.193   3.988 -0.6064 -1.4209 -1.2180
  109SAPE  H18S11287   3.754   2.171   3.961  0.7082  0.1595 -0.0449
  109SAPE  C21911288   3.824   2.033   4.108  0.3462  0.0276  0.7627
  109SAPE  H19R11289   3.718   2.001   4.107  0.5225 -0.5673  0.9055
  109SAPE  H19S11290   3.855   2.041   4.214 -2.6971 -1.9405  1.9382
  109SAPE  C22011291   3.917   1.925   4.041  0.0716  0.1951 -0.4097
  109SAPE  H20R11292   3.874   1.903   3.941 -2.1049 -0.4664  0.6133
  109SAPE  H20S11293   3.913   1.833   4.104 -0.8784  0.2784 -0.3431
  109SAPE  H20T11294   4.022   1.960   4.044  0.8678 -2.0307  0.7552
  109SAPE   C3311295   3.789   2.811   2.960 -0.2386 -0.4250 -0.1167
  109SAPE   H3X11296   3.877   2.873   2.933  0.2026 -1.3284 -0.8040
  109SAPE   H3Y11297   3.810   2.707   2.993  2.3027  0.1535  0.3123
  109SAPE   C3411298   3.724   2.897   3.072  0.3278  0.6474 -0.2595
  109SAPE   H4X11299   3.614   2.886   3.080 -0.3849  4.8168 -1.7629
  109SAPE   H4Y11300   3.747   3.005   3.064 -0.7266  0.8501 -0.6796
  109SAPE   C3511301   3.779   2.842   3.206 -0.4516 -0.4819  0.7748
  109SAPE   H5X11302   3.881   2.886   3.209 -1.5432  2.3673 -0.3747
  109SAPE   H5Y11303   3.796   2.732   3.202  2.3143 -0.1427  1.0864
  109SAPE   C3611304   3.704   2.888   3.330 -0.6393  0.5876 -0.2011
  109SAPE   H6X11305   3.597   2.857   3.326 -0.8673  0.7862  2.4135
  109SAPE   H6Y11306   3.712   2.997   3.349 -1.7177  0.4184  1.4444
  109SAPE   C3711307   3.783   2.826   3.454  0.3560 -1.1419 -0.4136
  109SAPE   H7X11308   3.892   2.842   3.450  0.1737 -0.0770 -3.4368
  109SAPE   H7Y11309   3.760   2.717   3.450  0.6322 -1.2499  0.6447
  109SAPE   C3811310   3.728   2.896   3.582  0.8082 -0.0002 -0.3603
  109SAPE   H8X11311   3.617   2.889   3.573  0.7760 -2.1791  1.0349
  109SAPE   H8Y11312   3.758   3.002   3.573  1.2250 -0.2312 -1.8484
  109SAPE   C3911313   3.793   2.851   3.709  0.2311 -0.6957 -0.2942
  109SAPE   H9X11314   3.900   2.879   3.719  0.2220 -0.7234 -0.1161
  109SAPE   H9Y11315   3.796   2.740   3.716 -2.8436 -0.8117  0.6806
  109SAPE  C31011316   3.713   2.916   3.827 -0.4694  0.4566 -0.4485
  109SAPE  H10X11317   3.608   2.887   3.806 -0.4207 -2.4781  2.4939
  109SAPE  H10Y11318   3.719   3.027   3.820 -3.5427  0.6863 -0.6951
  109SAPE  C31111319   3.752   2.862   3.968 -0.6333 -0.1828  0.8842
  109SAPE  H11X11320   3.744   2.751   3.966 -0.0709 -0.3720  4.1441
  109SAPE  H11Y11321   3.675   2.910   4.033 -0.0765  2.0715 -0.0077
  109SAPE  C31211322   3.891   2.901   4.008  0.7255 -0.7627  0.4875
  109SAPE  H12X11323   3.896   3.012   4.007  0.6401 -0.7390 -1.7895
  109SAPE  H12Y11324   3.966   2.865   3.934 -1.2526  0.9841 -2.5552
  109SAPE  C31311325   3.948   2.846   4.141  0.7257 -0.2457  0.1621
  109SAPE  H13X11326   3.943   2.735   4.135  3.6062 -0.4040 -0.3719
  109SAPE  H13Y11327   3.879   2.872   4.224 -1.0010  0.4209 -1.3980
  109SAPE  C31411328   4.091   2.881   4.162  0.3473 -0.0456 -0.3011
  109SAPE  H14X11329   4.132   2.957   4.092  1.0307 -0.8112 -0.7527
  109SAPE  H14Y11330   4.159   2.793   4.158  1.6525  0.9344 -0.5325
  109SAPE  C31511331   4.127   2.930   4.313 -0.3509 -0.1596  0.3513
  109SAPE  H15X11332   4.234   2.907   4.333 -0.2246 -1.0127 -1.1742
  109SAPE  H15Y11333   4.057   2.882   4.385 -0.1275 -0.6300  0.2526
  109SAPE  C31611334   4.109   3.083   4.324  0.0126  0.2052 -0.0473
  109SAPE  H16X11335   4.006   3.114   4.294  0.3398  0.4615 -0.9191
  109SAPE  H16Y11336   4.173   3.130   4.246 -2.3265  1.1206 -1.5304
  109SAPE  C31711337   4.140   3.132   4.462  0.5353  0.1199  0.1727
  109SAPE  H17X11338   4.128   3.241   4.448  0.3045 -0.0293 -0.8876
  109SAPE  H17Y11339   4.243   3.106   4.494  0.0697 -0.6513  1.0787
  109SAPE  C31811340   4.047   3.095   4.579  0.0507  1.1203 -0.4821
  109SAPE  H18X11341   4.098   3.130   4.671 -0.4456  2.6272 -0.7632
  109SAPE  H18Y11342   4.026   2.985   4.580  0.9952  0.9332 -0.3654
  109SAPE  H18Z11343   3.950   3.148   4.585  0.7899  2.4108  0.6945
  110SAPE     N11344   1.078   2.586   2.130 -0.7120  0.1560  0.3362
  110SAPE   HN111345   0.975   2.596   2.114 -0.4122  1.3533 -1.0445
  110SAPE   HN211346   1.093   2.494   2.175  2.1199 -0.1443 -1.0290
  110SAPE   HN311347   1.099   2.645   2.213 -0.8341 -2.6130  2.4666
  110SAPE   C1211348   1.149   2.619   1.998  0.1675 -0.7494  0.1376
  110SAPE  H12A11349   1.097   2.708   1.956  2.1746  0.3783 -0.0594
  110SAPE  H12B11350   1.146   2.530   1.932  1.2449 -0.5474 -0.2063
  110SAPE   C1111351   1.291   2.660   2.025 -0.0611  0.5405  0.1115
  110SAPE  H11A11352   1.291   2.749   2.090 -1.3856  1.3059 -0.9102
  110SAPE  H11B11353   1.340   2.685   1.928 -0.8186  0.6678 -0.2427
  110SAPE     P11354   1.520   2.569   2.103  0.1015 -0.4511 -0.0571
  110SAPE   O1311355   1.576   2.463   2.023  0.2102 -0.7346 -0.4453
  110SAPE   O1411356   1.567   2.705   2.065 -0.5947  0.6862 -0.7173
  110SAPE   O1211357   1.361   2.554   2.096 -0.3482 -0.1084  0.3693
  110SAPE   O1111358   1.563   2.539   2.252  0.6023 -0.5429 -0.4553
  110SAPE    C111359   1.463   2.485   2.340  0.9257  0.2588  0.9665
  110SAPE    HA11360   1.398   2.569   2.372 -0.1837 -0.9658  2.0314
  110SAPE    HB11361   1.401   2.409   2.287  3.7382 -1.1976 -0.4664
  110SAPE    C211362   1.520   2.428   2.471 -0.1883 -0.3107  0.0073
  110SAPE    HS11363   1.570   2.516   2.516  0.9448  0.3626 -2.3855
  110SAPE   O2111364   1.603   2.312   2.452  0.0302  0.1484  0.1049
  110SAPE   C2111365   1.736   2.341   2.466 -0.3911  0.3231 -0.0733
  110SAPE   O2211366   1.784   2.451   2.472  0.0651 -0.6531 -0.1178
  110SAPE   C2211367   1.807   2.205   2.502 -0.6439  0.4415 -0.0745
  110SAPE   H2R11368   1.732   2.124   2.516  0.7844 -1.0890 -0.9215
  110SAPE   H2S11369   1.877   2.182   2.418 -0.5773 -0.5180  0.2416
  110SAPE    C311370   1.399   2.385   2.557  0.0410  0.0855  0.8825
  110SAPE    HX11371   1.322   2.464   2.546  0.5732  0.3562 -1.2964
  110SAPE    HY11372   1.363   2.292   2.506 -0.1771 -0.5612  2.1706
  110SAPE   O3111373   1.428   2.350   2.691  0.1925 -0.4044 -0.1855
  110SAPE   C3111374   1.461   2.444   2.774  0.2976 -0.6330 -0.0067
  110SAPE   O3211375   1.487   2.564   2.744 -0.1167 -0.0904  0.1516
  110SAPE   C3211376   1.453   2.383   2.918  0.2397 -0.6720 -0.3535
  110SAPE   H2X11377   1.537   2.311   2.912  0.7399 -0.1740  0.4676
  110SAPE   H2Y11378   1.352   2.338   2.927 -0.2083 -0.4746 -3.2340
  110SAPE   C2311379   1.892   2.216   2.640 -0.9786 -0.6868  0.5918
  110SAPE   H3R11380   1.972   2.293   2.632 -0.6133 -0.9479  1.5954
  110SAPE   H3S11381   1.953   2.123   2.638 -1.7895 -1.2351  0.7567
  110SAPE   C2411382   1.818   2.226   2.769  0.3409 -0.7318  0.3186
  110SAPE   H4R11383   1.737   2.301   2.754 -0.2675 -1.2855  0.8080
  110SAPE   H4S11384   1.886   2.277   2.841 -1.2037  0.3949  1.0436
  110SAPE   C2511385   1.759   2.102   2.816  0.7008 -1.1032  0.1180
  110SAPE   H5R11386   1.679   2.054   2.758  1.1106 -1.1218 -0.4402
  110SAPE   C2611387   1.785   2.040   2.932  0.6560 -0.3207 -0.7330
  110SAPE   H6R11388   1.727   1.951   2.960  1.0717 -0.4946 -0.4023
  110SAPE   C2711389   1.876   2.084   3.040 -0.2669 -0.1600  0.3169
  110SAPE   H7R11390   1.934   2.176   3.015  2.1766 -1.9083 -0.9387
  110SAPE   H7S11391   1.949   1.999   3.044  0.2389  0.0646 -2.3041
  110SAPE   C2811392   1.805   2.096   3.167 -0.0930 -0.3142 -0.0549
  110SAPE   H8R11393   1.697   2.077   3.170 -0.2001  0.3058  2.1483
  110SAPE   C2911394   1.859   2.147   3.281  0.3796  0.6699 -0.5939
  110SAPE   H9R11395   1.788   2.157   3.364 -1.4982 -0.8251 -1.9430
  110SAPE  C21011396   2.006   2.176   3.297 -0.7020  0.6978 -0.1689
  110SAPE  H10R11397   2.022   2.281   3.329 -0.0978  0.4514  0.3614
  110SAPE  H10S11398   2.057   2.169   3.198 -1.0437  1.6218 -0.4188
  110SAPE  C21111399   2.073   2.074   3.381 -0.0849 -0.0174  0.2357
  110SAPE  H11R11400   2.116   1.985   3.331 -0.4643  0.2956 -0.6742
  110SAPE  C21211401   2.075   2.080   3.514  0.1973 -0.3364 -0.1316
  110SAPE  H12R11402   2.141   2.011   3.568 -0.2981  0.0781  1.0499
  110SAPE  C21311403   2.024   2.194   3.599  0.4186  0.4444 -0.2609
  110SAPE  H13R11404   1.984   2.144   3.690 -0.4771  0.2813 -0.7317
  110SAPE  H13S11405   1.943   2.245   3.544  1.0608  0.5690 -1.1085
  110SAPE  C21411406   2.123   2.302   3.632 -0.4786  0.6973 -1.4307
  110SAPE  H14R11407   2.189   2.334   3.549  2.4039 -1.4484 -0.1390
  110SAPE  C21511408   2.147   2.353   3.756 -0.1149  0.1047  0.1702
  110SAPE  H15R11409   2.206   2.445   3.766 -2.0447  1.6362 -1.6250
  110SAPE  C21611410   2.072   2.303   3.878  0.3021 -0.0797  0.3247
  110SAPE  H16R11411   1.973   2.262   3.850 -1.0064  0.8410  3.2345
  110SAPE  H16S11412   2.042   2.392   3.936 -0.4157  2.7846 -4.0182
  110SAPE  C21711413   2.153   2.210   3.973 -0.0328 -0.3754  0.5283
  110SAPE  H17R11414   2.241   2.268   4.006  1.0447 -0.5676 -1.8060
  110SAPE  H17S11415   2.175   2.122   3.909  1.0358  0.6776 -0.6065
  110SAPE  C21811416   2.065   2.165   4.082 -0.0265 -0.4711  0.1418
  110SAPE  H18R11417   2.006   2.250   4.123  1.0293  0.1988  0.3081
  110SAPE  H18S11418   2.134   2.154   4.168 -0.8193 -2.6019  0.5530
  110SAPE  C21911419   1.978   2.034   4.058  0.6645  0.1589  0.2256
  110SAPE  H19R11420   2.044   1.945   4.057 -0.9047 -1.0806 -1.7051
  110SAPE  H19S11421   1.919   2.053   3.965 -0.1298  1.9522  1.0365
  110SAPE  C22011422   1.870   2.011   4.163 -0.3810 -0.5260 -0.3863
  110SAPE  H20R11423   1.839   1.904   4.155 -0.1823 -0.7602  1.5019
  110SAPE  H20S11424   1.783   2.077   4.140  0.6614  1.5539  1.3465
  110SAPE  H20T11425   1.909   2.027   4.266  2.5402  0.0537 -1.5022
  110SAPE   C3311426   1.491   2.480   3.034 -0.3991 -0.2166  0.3026
  110SAPE   H3X11427   1.400   2.538   3.059  0.6855  2.1163 -0.8324
  110SAPE   H3Y11428   1.571   2.550   3.002  1.6988 -2.3703  0.5246
  110SAPE   C3411429   1.545   2.407   3.160 -0.3233  0.1416  0.4614
  110SAPE   H4X11430   1.647   2.364   3.155 -0.8513 -1.0432 -1.0365
  110SAPE   H4Y11431   1.464   2.332   3.175 -1.6113  0.4029 -3.8754
  110SAPE   C3511432   1.545   2.500   3.280 -0.1097  0.1662  0.1093
  110SAPE   H5X11433   1.438   2.525   3.296 -0.2410  0.5526 -1.2063
  110SAPE   H5Y11434   1.604   2.591   3.259  0.6741 -0.0579  1.2565
  110SAPE   C3611435   1.602   2.435   3.408  0.0121 -0.3469 -1.0923
  110SAPE   H6X11436   1.711   2.418   3.403  0.1553  0.3090 -0.3900
  110SAPE   H6Y11437   1.554   2.335   3.421 -1.2889  0.1709 -1.6590
  110SAPE   C3711438   1.583   2.531   3.523  0.1558  0.3928  0.1969
  110SAPE   H7X11439   1.474   2.523   3.541 -0.1290  0.5709 -1.3097
  110SAPE   H7Y11440   1.592   2.637   3.491  0.1562  0.0465 -0.9890
  110SAPE   C3811441   1.660   2.503   3.654 -0.4422 -0.6471 -0.7999
  110SAPE   H8X11442   1.767   2.532   3.646 -1.0402  2.9881  1.7347
  110SAPE   H8Y11443   1.641   2.397   3.682 -0.2570  0.2266  3.1975
  110SAPE   C3911444   1.597   2.600   3.766  0.1574  1.0932  0.2636
  110SAPE   H9X11445   1.508   2.545   3.804  0.4020 -0.2915 -1.0544
  110SAPE   H9Y11446   1.563   2.694   3.718  1.5551  1.7227  0.4566
  110SAPE  C31011447   1.686   2.623   3.883 -0.2568  0.2554  0.5399
  110SAPE  H10X11448   1.783   2.663   3.844 -0.7982 -0.0037 -1.1764
  110SAPE  H10Y11449   1.708   2.526   3.933 -1.3007 -1.1037 -1.4758
  110SAPE  C31111450   1.637   2.708   3.993 -0.7290 -0.3550 -0.1859
  110SAPE  H11X11451   1.617   2.813   3.963 -3.4052 -0.5037  0.8019
  110SAPE  H11Y11452   1.719   2.721   4.067  0.8078  0.2079 -1.9004
  110SAPE  C31211453   1.520   2.646   4.062  0.3613 -0.6789  0.0109
  110SAPE  H12X11454   1.535   2.536   4.076  3.0009 -0.1333  2.5737
  110SAPE  H12Y11455   1.430   2.647   3.997  1.3222 -3.2725 -1.5138
  110SAPE  C31311456   1.489   2.710   4.195 -0.2326  0.2967  0.0250
  110SAPE  H13X11457   1.465   2.818   4.180  0.2450  0.4362  0.2632
  110SAPE  H13Y11458   1.573   2.702   4.267 -0.0958  0.5106 -0.1081
  110SAPE  C31411459   1.368   2.643   4.260 -0.3939 -0.4004 -0.1649
  110SAPE  H14X11460   1.380   2.535   4.283 -1.4904 -1.0260 -2.2715
  110SAPE  H14Y11461   1.273   2.647   4.201 -0.4453 -3.4252 -0.4412
  110SAPE  C31511462   1.335   2.713   4.393 -0.1849 -0.2415  0.1419
  110SAPE  H15X11463   1.277   2.805   4.373  1.6556  0.9745  0.1073
  110SAPE  H15Y11464   1.430   2.756   4.432  0.2666 -0.3979 -0.7421
  110SAPE  C31611465   1.272   2.629   4.509 -0.0421  0.3202  0.2332
  110SAPE  H16X11466   1.271   2.688   4.603  2.1205  0.1674  0.4125
  110SAPE  H16Y11467   1.350   2.550   4.521 -1.3245 -0.9703  0.2773
  110SAPE  C31711468   1.139   2.558   4.473  0.2723 -0.0717  0.1941
  110SAPE  H17X11469   1.147   2.517   4.370  0.1569  2.0499 -0.7049
  110SAPE  H17Y11470   1.070   2.645   4.468  2.0020  1.3974  0.8625
  110SAPE  C31811471   1.102   2.453   4.569 -0.3118 -0.0589 -0.0989
  110SAPE  H18X11472   1.084   2.496   4.670 -0.6372 -0.0493 -0.1623
  110SAPE  H18Y11473   1.194   2.392   4.580  2.2345  3.5587  0.6843
  110SAPE  H18Z11474   1.014   2.391   4.545 -0.8248  0.7811 -0.4339
  111SAPE     N11475   2.446   1.461   1.903  0.2625 -0.4445  0.4082
  111SAPE   HN111476   2.433   1.445   1.801 -1.5862 -1.2841  0.7445
  111SAPE   HN211477   2.518   1.388   1.919 -0.6857 -2.2205 -2.6464
  111SAPE   HN311478   2.357   1.443   1.953  1.0029 -4.1574  0.6393
  111SAPE   C1211479   2.510   1.596   1.929  0.5012 -0.1175  0.5316
  111SAPE  H12A11480   2.431   1.673   1.937  0.1931 -0.3603 -0.1106
  111SAPE  H12B11481   2.571   1.616   1.838 -2.8637  1.4874 -1.5430
  111SAPE   C1111482   2.590   1.589   2.056 -0.1864 -0.2925 -0.3813
  111SAPE  H11A11483   2.638   1.685   2.084 -1.6015  0.0299  1.1125
  111SAPE  H11B11484   2.663   1.506   2.044 -0.5292 -0.7316  0.4826
  111SAPE     P11485   2.465   1.651   2.284  0.3744 -0.0429  0.0092
  111SAPE   O1311486   2.368   1.754   2.230 -0.1925  0.0949  0.0338
  111SAPE   O1411487   2.421   1.559   2.395 -0.1926  0.2359 -0.1769
  111SAPE   O1211488   2.500   1.556   2.161  0.3240 -0.0972  0.2232
  111SAPE   O1111489   2.600   1.728   2.335  0.5434  0.3094 -0.6070
  111SAPE    C111490   2.715   1.656   2.377  0.0892  0.3208  0.0045
  111SAPE    HA11491   2.722   1.552   2.338 -0.7601  0.6374 -1.0725
  111SAPE    HB11492   2.802   1.720   2.350 -0.3607  0.8153 -0.3099
  111SAPE    C211493   2.740   1.656   2.533  0.3382 -0.3922 -0.0397
  111SAPE    HS11494   2.657   1.598   2.578  1.0354 -0.6556  0.9443
  111SAPE   O2111495   2.743   1.792   2.580 -0.1598  0.0745 -0.3134
  111SAPE   C2111496   2.685   1.807   2.701  0.5120 -0.7226  0.1714
  111SAPE   O2211497   2.624   1.718   2.753 -0.6935 -0.0714 -0.0948
  111SAPE   C2211498   2.707   1.947   2.750  0.4045  0.1616 -0.4435
  111SAPE   H2R11499   2.810   1.981   2.725  1.9394 -2.9367  1.1013
  111SAPE   H2S11500   2.623   2.009   2.710 -1.7271 -1.3356  1.4656
  111SAPE    C311501   2.873   1.581   2.565  0.2700 -0.3659  0.7409
  111SAPE    HX11502   2.947   1.639   2.505  0.0891 -1.6583 -0.8193
  111SAPE    HY11503   2.861   1.481   2.517  0.6590  0.1595 -0.5168
  111SAPE   O3111504   2.913   1.575   2.705  0.2064 -0.3584  0.5470
  111SAPE   C3111505   2.978   1.465   2.738 -0.2163  0.1410 -0.7239
  111SAPE   O3211506   3.011   1.374   2.660  0.0840 -0.1671 -0.1796
  111SAPE   C3211507   3.004   1.475   2.888  0.1319 -0.7638 -0.0435
  111SAPE   H2X11508   2.912   1.496   2.947  0.7000 -0.9378  0.9119
  111SAPE   H2Y11509   3.076   1.559   2.896  0.2612 -0.8650 -0.1403
  111SAPE   C2311510   2.692   1.954   2.909 -0.3642  0.4968  0.4379
  111SAPE   H3R11511   2.607   1.888   2.938  0.8360 -1.5148 -0.3980
  111SAPE   H3S11512   2.654   2.057   2.923 -1.5055  0.3128 -0.9903
  111SAPE   C2411513   2.821   1.916   2.984 -0.0903  0.2341 -0.4759
  111SAPE   H4R11514   2.915   1.962   2.949 -1.3078  1.0543 -2.8867
  111SAPE   H4S11515   2.855   1.815   2.955 -1.6314 -0.4900  0.1225
  111SAPE   C2511516   2.814   1.903   3.133 -0.0289 -0.1673 -0.5490
  111SAPE   H5R11517   2.858   1.989   3.186  0.0268 -0.0058 -0.8568
  111SAPE   C2611518   2.785   1.794   3.207 -0.1163 -0.0112  0.7178
  111SAPE   H6R11519   2.802   1.787   3.315  3.1976 -0.3021  0.2950
  111SAPE   C2711520   2.752   1.652   3.147  0.7303  0.1435 -0.1139
  111SAPE   H7R11521   2.814   1.567   3.181  0.5753 -0.1165 -0.4709
  111SAPE   H7S11522   2.763   1.643   3.037 -4.3279 -2.5945 -0.7321
  111SAPE   C2811523   2.608   1.612   3.165  0.0866 -0.1947 -0.0525
  111SAPE   H8R11524   2.552   1.621   3.071 -0.2245 -1.1918  0.0269
  111SAPE   C2911525   2.554   1.551   3.268  0.3037  0.0292 -0.5782
  111SAPE   H9R11526   2.452   1.509   3.258  0.2353 -0.2176  1.0206
  111SAPE  C21011527   2.617   1.524   3.400  0.0590  0.2455  0.9440
  111SAPE  H10R11528   2.728   1.517   3.393 -0.0656 -3.8108  0.6383
  111SAPE  H10S11529   2.583   1.424   3.436 -2.0552  0.7001  0.3578
  111SAPE  C21111530   2.581   1.628   3.498  0.6627 -0.2990  0.6891
  111SAPE  H11R11531   2.592   1.729   3.454  1.6274 -1.3723 -1.7328
  111SAPE  C21211532   2.535   1.619   3.625 -0.3371  0.7953  0.6348
  111SAPE  H12R11533   2.516   1.711   3.683  1.6797  0.5399  1.7634
  111SAPE  C21311534   2.497   1.496   3.697 -0.0683  1.5325  0.5878
  111SAPE  H13R11535   2.488   1.510   3.807  1.3126 -0.7206  1.0617
  111SAPE  H13S11536   2.583   1.426   3.693 -0.7368  0.6825  0.6566
  111SAPE  C21411537   2.376   1.432   3.639  0.0170 -0.1827 -0.0126
  111SAPE  H14R11538   2.396   1.388   3.540  0.3028  1.0782 -0.5347
  111SAPE  C21511539   2.256   1.405   3.698 -0.0638 -0.9376 -0.3769
  111SAPE  H15R11540   2.175   1.348   3.651  0.7108 -3.0013  0.6935
  111SAPE  C21611541   2.228   1.449   3.842  0.1196  0.5016  0.0910
  111SAPE  H16R11542   2.132   1.504   3.852  0.1340  0.6396 -0.5184
  111SAPE  H16S11543   2.308   1.517   3.877  0.0679  0.5711  0.0746
  111SAPE  C21711544   2.221   1.342   3.952  0.2848  0.1757 -0.5284
  111SAPE  H17R11545   2.316   1.284   3.958 -0.3251 -0.6615  2.7871
  111SAPE  H17S11546   2.136   1.273   3.935 -0.1649  0.4038  0.7336
  111SAPE  C21811547   2.213   1.411   4.094  0.6663 -0.3100  0.9103
  111SAPE  H18R11548   2.119   1.468   4.107  2.1070  1.8507  2.5656
  111SAPE  H18S11549   2.287   1.495   4.095  0.9294 -0.3755 -2.2063
  111SAPE  C21911550   2.215   1.302   4.201 -0.4060  0.0581  0.6830
  111SAPE  H19R11551   2.297   1.230   4.181 -1.4682 -1.3589  1.2933
  111SAPE  H19S11552   2.122   1.242   4.199 -1.0561  1.0645 -0.7295
  111SAPE  C22011553   2.232   1.368   4.341  0.3278  0.2203 -0.3145
  111SAPE  H20R11554   2.322   1.434   4.339 -0.2786  1.0645 -2.3291
  111SAPE  H20S11555   2.243   1.288   4.418 -2.0901  0.2703  0.1542
  111SAPE  H20T11556   2.146   1.431   4.370  0.2806 -0.7231  1.7773
  111SAPE   C3311557   3.061   1.354   2.953 -0.4218  0.1310  0.0159
  111SAPE   H3X11558   3.115   1.392   3.042  1.0744  0.6879 -1.0945
  111SAPE   H3Y11559   3.148   1.321   2.892 -0.0226 -0.9910  1.1597
  111SAPE   C3411560   2.977   1.222   2.963  0.1521 -0.4330  0.1853
  111SAPE   H4X11561   3.045   1.147   3.008 -0.0358  0.9390  3.0088
  111SAPE   H4Y11562   2.964   1.187   2.858  2.8196  1.3392 -0.8372
  111SAPE   C3511563   2.856   1.227   3.054 -0.0243  1.1890 -1.3057
  111SAPE   H5X11564   2.819   1.123   3.048  0.8789  0.8925 -1.9502
  111SAPE   H5Y11565   2.779   1.293   3.009 -1.3857 -0.7591 -1.9176
  111SAPE   C3611566   2.879   1.272   3.200 -0.3786  0.1985 -0.4947
  111SAPE   H6X11567   2.794   1.332   3.238  0.1109 -0.9472  2.7322
  111SAPE   H6Y11568   2.964   1.343   3.210 -0.3129 -0.0520  0.9852
  111SAPE   C3711569   2.925   1.159   3.292 -0.2549  0.1188 -0.1699
  111SAPE   H7X11570   2.979   1.185   3.385  0.7021 -0.4152 -0.5615
  111SAPE   H7Y11571   2.993   1.092   3.235 -1.1266  0.9734 -2.3476
  111SAPE   C3811572   2.807   1.067   3.338 -0.7137  0.0780 -0.0772
  111SAPE   H8X11573   2.761   1.008   3.256  0.9471  1.7300 -2.3297
  111SAPE   H8Y11574   2.726   1.138   3.366 -0.9714  0.0928 -0.8501
  111SAPE   C3911575   2.834   0.966   3.454  0.2525 -0.1197 -0.4458
  111SAPE   H9X11576   2.915   0.898   3.420  0.7065 -1.3593  2.7747
  111SAPE   H9Y11577   2.742   0.905   3.468 -0.6476  1.0469 -1.0914
  111SAPE  C31011578   2.885   1.028   3.588  0.1715  0.1306 -0.9277
  111SAPE  H10X11579   2.799   1.088   3.627  0.9685  0.8379 -0.2270
  111SAPE  H10Y11580   2.968   1.101   3.577 -1.3133  2.2523  0.9832
  111SAPE  C31111581   2.923   0.931   3.691 -0.5539 -0.2848 -0.1365
  111SAPE  H11X11582   2.980   0.844   3.652 -1.2100 -2.7343  3.7737
  111SAPE  H11Y11583   2.829   0.900   3.743 -0.0371 -1.8090 -0.0477
  111SAPE  C31211584   3.012   0.984   3.808  0.2583  0.1266 -0.5297
  111SAPE  H12X11585   2.949   1.054   3.868 -0.4552 -0.7610 -0.2143
  111SAPE  H12Y11586   3.109   1.034   3.793 -0.0254  1.8069  2.3964
  111SAPE  C31311587   3.043   0.877   3.915  0.5679  0.2472  0.2930
  111SAPE  H13X11588   3.130   0.897   3.981  1.3467  0.0347 -0.6331
  111SAPE  H13Y11589   3.073   0.788   3.855 -0.5532  0.4558 -0.6086
  111SAPE  C31411590   2.923   0.831   3.997  0.3589  0.2289 -0.0841
  111SAPE  H14X11591   2.838   0.880   3.944 -0.2066 -1.1625 -0.5135
  111SAPE  H14Y11592   2.931   0.870   4.101 -0.8538 -2.0050  0.9128
  111SAPE  C31511593   2.901   0.678   4.008  0.3976  0.0913 -0.3455
  111SAPE  H15X11594   2.995   0.633   4.046 -0.7952  0.2590  3.1522
  111SAPE  H15Y11595   2.875   0.642   3.906  0.5712 -2.6474  0.4880
  111SAPE  C31611596   2.784   0.626   4.098 -0.0911 -0.0198 -0.0675
  111SAPE  H16X11597   2.830   0.631   4.199  0.8414  3.2442 -0.5262
  111SAPE  H16Y11598   2.757   0.520   4.077  1.9486 -0.9239  1.5403
  111SAPE  C31711599   2.658   0.716   4.088 -0.1936 -0.3477  0.5249
  111SAPE  H17X11600   2.664   0.823   4.117 -2.9468 -0.4242  1.7403
  111SAPE  H17Y11601   2.588   0.665   4.158 -0.9436 -0.6260 -0.3999
  111SAPE  C31811602   2.594   0.719   3.945  0.6932 -0.4836 -0.6677
  111SAPE  H18X11603   2.571   0.612   3.925 -0.7598 -0.3113 -0.0773
  111SAPE  H18Y11604   2.661   0.756   3.865  2.3118 -1.3943  0.2282
  111SAPE  H18Z11605   2.502   0.780   3.931  1.7537  1.9009  1.8751
  112SAPE     N11606   5.894   1.562   1.865 -0.5902  0.4723 -0.4232
  112SAPE   HN111607   5.861   1.660   1.865 -0.7189  0.4564 -1.9925
  112SAPE   HN211608   5.821   1.504   1.910  0.8084 -0.3542  0.8649
  112SAPE   HN311609   5.969   1.558   1.937 -1.2343  0.2223  0.2532
  112SAPE   C1211610   5.941   1.495   1.736  0.1549  0.2201 -0.1829
  112SAPE  H12A11611   5.871   1.528   1.657 -0.6290 -1.6753 -0.3315
  112SAPE  H12B11612   5.934   1.386   1.753  1.7427  0.0840 -0.3123
  112SAPE   C1111613   6.078   1.539   1.691 -0.5488  0.2435  0.4469
  112SAPE  H11A11614   6.086   1.648   1.672 -0.6327  0.1806  0.0313
  112SAPE  H11B11615   6.104   1.486   1.596 -1.5621 -0.2781  0.4451
  112SAPE     P11616   6.263   1.377   1.793 -0.8138 -0.3793  0.3794
  112SAPE   O1311617   6.275   1.334   1.652  0.3127  0.8737 -0.6919
  112SAPE   O1411618   6.388   1.378   1.864  0.3939 -0.2403 -0.3751
  112SAPE   O1211619   6.181   1.518   1.792 -0.6440  0.5700  0.1421
  112SAPE   O1111620   6.155   1.291   1.870 -0.1736  0.4369  0.6795
  112SAPE    C111621   6.115   1.160   1.819  0.2573  0.5301 -0.1047
  112SAPE    HA11622   6.013   1.158   1.776  1.2349 -1.6338 -2.5977
  112SAPE    HB11623   6.181   1.115   1.742 -0.9553  0.6197 -1.2294
  112SAPE    C211624   6.113   1.064   1.942 -0.0239 -0.6517  0.1954
  112SAPE    HS11625   6.071   0.963   1.923  0.5986 -0.5538 -1.9558
  112SAPE   O2111626   6.050   1.133   2.057 -0.8189 -0.2168  0.0079
  112SAPE   C2111627   5.916   1.129   2.050  0.0388 -0.7758 -0.5370
  112SAPE   O2211628   5.856   1.064   1.964 -0.5196 -0.0509  0.3228
  112SAPE   C2211629   5.860   1.204   2.167  0.1936 -0.4761 -0.2660
  112SAPE   H2R11630   5.847   1.311   2.141  0.8492 -0.0618  1.0396
  112SAPE   H2S11631   5.763   1.155   2.188 -0.0154 -0.8047 -1.8703
  112SAPE    C311632   6.262   1.031   1.979 -0.2084  0.2725  0.0715
  112SAPE    HX11633   6.315   1.128   1.988  1.2499 -0.1780 -2.6508
  112SAPE    HY11634   6.293   0.973   1.889 -0.9423 -0.6342  0.3792
  112SAPE   O3111635   6.281   0.940   2.089 -0.2568  0.1888  0.2914
  112SAPE   C3111636   6.272   1.000   2.210  0.2035  0.0963  0.1584
  112SAPE   O3211637   6.263   1.118   2.234 -0.0496  0.0614 -0.3616
  112SAPE   C3211638   6.266   0.889   2.314 -0.0521  0.3264  0.1077
  112SAPE   H2X11639   6.336   0.807   2.287 -2.5926 -1.7261 -0.7524
  112SAPE   H2Y11640   6.164   0.845   2.310  0.1158 -0.0280 -0.3524
  112SAPE   C2311641   5.945   1.200   2.295  0.4157  0.5081 -0.2352
  112SAPE   H3R11642   6.026   1.272   2.270 -0.7872  2.0580  0.1758
  112SAPE   H3S11643   5.989   1.098   2.309  0.1867  0.8627  5.4083
  112SAPE   C2411644   5.866   1.246   2.422  0.1153  0.4201 -0.0129
  112SAPE   H4R11645   5.936   1.236   2.508 -2.1819 -0.1602  1.8874
  112SAPE   H4S11646   5.783   1.176   2.444 -0.0076  0.6990  0.4400
  112SAPE   C2511647   5.827   1.390   2.427  0.1088 -0.1336  0.6175
  112SAPE   H5R11648   5.772   1.421   2.337 -2.8809  1.0972  2.7348
  112SAPE   C2611649   5.874   1.486   2.511 -0.4133 -0.7583  0.0236
  112SAPE   H6R11650   5.831   1.587   2.511  0.0486 -0.5154  2.5412
  112SAPE   C2711651   5.977   1.464   2.618 -0.4775 -0.1061 -0.2781
  112SAPE   H7R11652   5.942   1.381   2.684 -0.3345  1.0671  1.3481
  112SAPE   H7S11653   5.978   1.554   2.683 -0.6925  0.6272 -1.2700
  112SAPE   C2811654   6.122   1.451   2.566  0.1212  0.0610  0.4996
  112SAPE   H8R11655   6.139   1.449   2.457 -0.9475  0.0115  0.3242
  112SAPE   C2911656   6.231   1.458   2.648  0.6293  0.0810  0.6363
  112SAPE   H9R11657   6.326   1.435   2.598 -1.4767 -1.2964 -3.2326
  112SAPE  C21011658   6.233   1.487   2.795  0.2660  1.3216  0.4450
  112SAPE  H10R11659   6.127   1.491   2.826 -0.7051 -2.8120 -1.5748
  112SAPE  H10S11660   6.289   1.579   2.823  2.0903  0.5867 -0.5976
  112SAPE  C21111661   6.291   1.369   2.874  0.6366 -0.0143 -0.1122
  112SAPE  H11R11662   6.392   1.344   2.840  0.5826 -2.1387  1.1216
  112SAPE  C21211663   6.230   1.305   2.977 -0.2480  0.5863 -0.1751
  112SAPE  H12R11664   6.291   1.227   3.027 -0.2070  0.9461  0.3469
  112SAPE  C21311665   6.097   1.331   3.049  0.4743 -0.2008  0.2907
  112SAPE  H13R11666   6.077   1.439   3.033  1.5683 -0.0840 -0.4118
  112SAPE  H13S11667   6.093   1.303   3.156 -4.3326 -3.6535 -0.4472
  112SAPE  C21411668   5.985   1.252   2.995 -0.3484  0.5982 -0.3823
  112SAPE  H14R11669   6.007   1.174   2.919 -1.8164 -1.6604  1.3720
  112SAPE  C21511670   5.858   1.264   3.034 -0.1197 -0.8551 -0.3193
  112SAPE  H15R11671   5.778   1.201   2.992  0.1079 -1.3449 -0.0343
  112SAPE  C21611672   5.814   1.374   3.128  1.1298 -0.4383 -0.1498
  112SAPE  H16R11673   5.724   1.416   3.079  1.4110 -3.0123 -3.1978
  112SAPE  H16S11674   5.883   1.461   3.121 -1.2565  1.6092  0.4499
  112SAPE  C21711675   5.787   1.326   3.274 -0.2611 -0.3621  0.4670
  112SAPE  H17R11676   5.865   1.252   3.302 -1.2904 -1.5290  0.3230
  112SAPE  H17S11677   5.693   1.269   3.290 -1.2583  1.0744 -0.0439
  112SAPE  C21811678   5.775   1.441   3.370  0.1488  0.3545 -0.0807
  112SAPE  H18R11679   5.676   1.489   3.357 -1.1911 -1.9818  0.9925
  112SAPE  H18S11680   5.855   1.515   3.348  0.5613  0.4559  1.6101
  112SAPE  C21911681   5.798   1.395   3.518 -0.7878  0.2294 -0.0505
  112SAPE  H19R11682   5.885   1.327   3.532 -1.7910 -1.0771  0.0406
  112SAPE  H19S11683   5.712   1.334   3.553 -0.2956 -0.0629  0.6757
  112SAPE  C22011684   5.823   1.507   3.620 -0.1102 -0.4660  0.2325
  112SAPE  H20R11685   5.853   1.467   3.719 -0.7686  1.4384  1.2473
  112SAPE  H20S11686   5.722   1.552   3.626 -0.6116 -1.3626 -1.0320
  112SAPE  H20T11687   5.903   1.575   3.585  0.2731  0.4185  2.6820
  112SAPE   C3311688   6.301   0.934   2.460 -0.5184  0.5654 -0.5577
  112SAPE   H3X11689   6.397   0.989   2.459 -0.9888  1.5793  1.9908
  112SAPE   H3Y11690   6.318   0.844   2.523 -0.6604  0.6236 -0.4349
  112SAPE   C3411691   6.189   1.012   2.540  0.8626  0.2058 -0.3777
  112SAPE   H4X11692   6.099   0.947   2.531 -0.0103  1.2407  0.5676
  112SAPE   H4Y11693   6.160   1.112   2.501 -3.1084  0.0962  1.7777
  112SAPE   C3511694   6.200   1.020   2.693 -0.8216  0.8869 -1.0640
  112SAPE   H5X11695   6.107   1.073   2.724 -3.0662 -2.2496 -1.8550
  112SAPE   H5Y11696   6.279   1.089   2.728  1.8640 -1.4916 -2.0594
  112SAPE   C3611697   6.200   0.877   2.767 -0.9481 -0.6667 -0.1247
  112SAPE   H6X11698   6.285   0.815   2.732 -0.4998  0.0659 -0.3635
  112SAPE   H6Y11699   6.106   0.822   2.745 -0.9219 -1.6703  2.0028
  112SAPE   C3711700   6.228   0.894   2.917  0.8182 -0.1299  0.2246
  112SAPE   H7X11701   6.149   0.963   2.954  0.5961 -0.1855 -0.1499
  112SAPE   H7Y11702   6.322   0.945   2.949  0.2308  1.0655  0.0822
  112SAPE   C3811703   6.206   0.757   2.997 -0.1104 -0.6558 -0.1704
  112SAPE   H8X11704   6.286   0.685   2.970  2.0328  1.0776  1.2504
  112SAPE   H8Y11705   6.109   0.704   2.983 -0.2306 -0.4898  0.0418
  112SAPE   C3911706   6.202   0.776   3.143 -0.9346  0.2360 -0.5748
  112SAPE   H9X11707   6.122   0.843   3.181  0.6751  1.3517  1.0848
  112SAPE   H9Y11708   6.295   0.834   3.162 -2.1404  2.0291  0.1279
  112SAPE  C31011709   6.199   0.639   3.214 -0.0693 -0.3707  0.1207
  112SAPE  H10X11710   6.278   0.589   3.153 -0.7882 -0.9665 -0.3351
  112SAPE  H10Y11711   6.112   0.575   3.188  0.1053 -0.1365 -1.1250
  112SAPE  C31111712   6.240   0.637   3.362  0.0229 -0.3822  0.2233
  112SAPE  H11X11713   6.252   0.532   3.395 -2.1371 -0.7590 -0.0698
  112SAPE  H11Y11714   6.152   0.682   3.413 -0.8120  0.5521 -1.8880
  112SAPE  C31211715   6.361   0.713   3.383 -0.6444  0.7848 -0.1695
  112SAPE  H12X11716   6.346   0.822   3.365 -0.6405  0.5764 -1.5535
  112SAPE  H12Y11717   6.432   0.665   3.313 -2.5873 -3.1464  0.3030
  112SAPE  C31311718   6.408   0.702   3.527  0.1554 -0.6199  0.0923
  112SAPE  H13X11719   6.518   0.704   3.538  0.6836 -0.7639 -3.7352
  112SAPE  H13Y11720   6.362   0.614   3.577 -0.5302  1.0805  2.6632
  112SAPE  C31411721   6.352   0.817   3.613 -0.3038 -0.1401  0.3889
  112SAPE  H14X11722   6.242   0.825   3.598 -0.1404  0.2241 -0.6508
  112SAPE  H14Y11723   6.397   0.913   3.580 -2.4412  0.8049  0.0835
  112SAPE  C31511724   6.380   0.820   3.760 -0.0246  0.2249  0.5947
  112SAPE  H15X11725   6.489   0.826   3.780  1.0752 -2.9948 -2.9990
  112SAPE  H15Y11726   6.352   0.719   3.798 -0.0590  0.4418  1.1467
  112SAPE  C31611727   6.294   0.918   3.835 -0.0389  0.0152 -0.6469
  112SAPE  H16X11728   6.189   0.885   3.820 -0.1560  0.6910 -1.3803
  112SAPE  H16Y11729   6.315   1.018   3.792 -0.0616  0.4503  0.3443
  112SAPE  C31711730   6.311   0.915   3.984 -0.1491  0.6325  0.2553
  112SAPE  H17X11731   6.265   1.009   4.022  0.8129  1.1841  0.0848
  112SAPE  H17Y11732   6.418   0.917   4.012 -0.1593 -0.3749  0.4009
  112SAPE  C31811733   6.254   0.785   4.052  0.5731 -0.2519  0.2168
  112SAPE  H18X11734   6.253   0.792   4.163  1.4235 -1.3710  0.3094
  112SAPE  H18Y11735   6.309   0.702   4.003  2.5906  1.2740 -0.2152
  112SAPE  H18Z11736   6.147   0.773   4.022 -0.1120  2.8623  1.0476
  113SAPE     N11737   4.915   5.348   1.969 -0.0580  0.6517  0.4451
  113SAPE   HN111738   4.996   5.296   1.930 -1.7155 -1.3875 -0.5274
  113SAPE   HN211739   4.831   5.286   1.959 -0.4113  1.4294 -2.4777
  113SAPE   HN311740   4.885   5.431   1.914 -0.4131 -0.9348 -1.9444
  113SAPE   C1211741   4.941   5.386   2.110  0.4838 -0.1086 -0.0220
  113SAPE  H12A11742   4.947   5.496   2.119 -4.0182  0.3274  0.0084
  113SAPE  H12B11743   5.036   5.335   2.137  0.8036 -0.1806 -1.2554
  113SAPE   C1111744   4.831   5.340   2.206 -0.9514 -0.1651  0.2504
  113SAPE  H11A11745   4.742   5.392   2.165  1.0122  1.3635 -2.3908
  113SAPE  H11B11746   4.853   5.376   2.309 -0.7132  1.0986 -0.2289
  113SAPE     P11747   4.889   5.101   2.280  0.8594  0.2487  0.0811
  113SAPE   O1311748   4.800   5.017   2.376 -0.0257 -0.1016  0.7030
  113SAPE   O1411749   4.963   5.031   2.177  0.1715 -0.5308  0.2753
  113SAPE   O1211750   4.799   5.202   2.201  0.2818  0.0131 -0.7068
  113SAPE   O1111751   4.979   5.190   2.363 -0.3896  0.0501  0.4654
  113SAPE    C111752   5.049   5.177   2.486  0.0926  0.5176 -0.7990
  113SAPE    HA11753   5.085   5.072   2.500  0.6041  0.9336  1.3384
  113SAPE    HB11754   5.135   5.246   2.474  1.4262 -0.5698  1.6861
  113SAPE    C211755   4.968   5.216   2.613 -0.3518  0.5121 -0.0206
  113SAPE    HS11756   4.922   5.127   2.660  0.1757  0.7327  0.9511
  113SAPE   O2111757   4.896   5.334   2.595 -0.7155  0.5670  0.3016
  113SAPE   C2111758   4.762   5.307   2.596 -0.1034  0.3389 -0.4458
  113SAPE   O2211759   4.713   5.197   2.614 -0.1122  0.1820  0.6356
  113SAPE   C2211760   4.696   5.442   2.589  0.6896 -0.9101  0.3314
  113SAPE   H2R11761   4.650   5.465   2.688  0.7652 -0.6371  0.3034
  113SAPE   H2S11762   4.769   5.520   2.561  1.5428 -0.5847  3.1312
  113SAPE    C311763   5.076   5.242   2.715  0.6254  0.2141 -0.2834
  113SAPE    HX11764   5.097   5.351   2.707 -0.8852  0.5787  0.4113
  113SAPE    HY11765   5.173   5.192   2.695 -0.0820 -1.3961  0.1604
  113SAPE   O3111766   5.031   5.215   2.850  0.2616 -0.2223 -0.0837
  113SAPE   C3111767   5.018   5.083   2.877  0.2754  0.5378  0.5112
  113SAPE   O3211768   5.050   4.991   2.800 -0.1331  0.1536  0.4776
  113SAPE   C3211769   4.958   5.055   3.014 -0.7135  0.1764  0.5723
  113SAPE   H2X11770   5.042   5.087   3.079  1.7668 -3.0359 -0.7772
  113SAPE   H2Y11771   4.948   4.945   3.020  2.5425 -0.1413  2.9596
  113SAPE   C2311772   4.583   5.439   2.484  0.3547 -0.1175 -0.9066
  113SAPE   H3R11773   4.507   5.360   2.502  0.9683 -0.3931  0.6137
  113SAPE   H3S11774   4.625   5.430   2.381  1.0785 -2.0735 -0.4752
  113SAPE   C2411775   4.500   5.570   2.493 -0.6313  0.9064  0.1623
  113SAPE   H4R11776   4.489   5.590   2.601 -0.0995  0.9649  0.2101
  113SAPE   H4S11777   4.400   5.551   2.449 -0.5702  1.9222 -0.4460
  113SAPE   C2511778   4.574   5.688   2.431  0.1469  0.1291  0.6208
  113SAPE   H5R11779   4.632   5.661   2.342 -0.7919  1.0668 -0.3089
  113SAPE   C2611780   4.587   5.808   2.481  0.2772 -0.3484 -0.4167
  113SAPE   H6R11781   4.652   5.880   2.428  0.0653  0.0944 -0.0841
  113SAPE   C2711782   4.520   5.861   2.602  0.2385  0.5470 -0.0975
  113SAPE   H7R11783   4.562   5.962   2.623  1.0378  0.4420 -1.1212
  113SAPE   H7S11784   4.555   5.800   2.688  0.7803 -2.8188 -2.5193
  113SAPE   C2811785   4.372   5.880   2.592  0.1630  0.3348 -0.6915
  113SAPE   H8R11786   4.340   5.919   2.493 -0.0589  1.8878 -0.0430
  113SAPE   C2911787   4.272   5.851   2.684 -0.1530  0.5210  0.2671
  113SAPE   H9R11788   4.165   5.851   2.659 -0.3736  1.1271  1.1482
  113SAPE  C21011789   4.300   5.785   2.819  1.2251 -0.4382  0.4235
  113SAPE  H10R11790   4.386   5.717   2.807  1.1412 -0.1493 -2.5097
  113SAPE  H10S11791   4.213   5.720   2.845  0.6006 -0.6972 -2.0535
  113SAPE  C21111792   4.302   5.891   2.932 -0.0541  0.4194  0.2676
  113SAPE  H11R11793   4.204   5.937   2.952 -0.2064  0.0533  0.3727
  113SAPE  C21211794   4.403   5.934   3.009  0.0719 -0.6911 -0.3963
  113SAPE  H12R11795   4.391   6.012   3.085  1.1195 -0.2800 -0.6297
  113SAPE  C21311796   4.548   5.888   3.004 -0.2805  0.4492 -0.3756
  113SAPE  H13R11797   4.570   5.845   2.904  3.3500  0.3276  0.3449
  113SAPE  H13S11798   4.561   5.814   3.085 -4.0392 -1.5093 -1.3068
  113SAPE  C21411799   4.652   5.996   3.022 -0.0299  0.7671 -0.4043
  113SAPE  H14R11800   4.693   6.032   2.926  1.1171  0.4292 -0.0644
  113SAPE  C21511801   4.683   6.052   3.142  0.7148  0.2490  0.1322
  113SAPE  H15R11802   4.760   6.130   3.146  0.9834 -0.0454  1.1017
  113SAPE  C21611803   4.622   6.020   3.276  0.3505  0.5400 -0.3860
  113SAPE  H16R11804   4.536   5.951   3.265  0.1518  0.8567 -0.8665
  113SAPE  H16S11805   4.577   6.116   3.310 -2.2094 -0.3557 -1.0165
  113SAPE  C21711806   4.719   5.970   3.376 -0.0002  0.0767 -0.0028
  113SAPE  H17R11807   4.794   6.047   3.405 -2.4834  2.0094  1.8048
  113SAPE  H17S11808   4.768   5.880   3.334 -1.6921 -0.3871 -1.1114
  113SAPE  C21811809   4.660   5.927   3.512  0.6170 -0.2601  0.0879
  113SAPE  H18R11810   4.591   5.842   3.493 -0.0620  0.1340  0.7239
  113SAPE  H18S11811   4.598   6.010   3.552 -0.1479 -1.3087  1.1173
  113SAPE  C21911812   4.773   5.880   3.614  0.4097  0.2911 -0.2870
  113SAPE  H19R11813   4.837   5.966   3.645 -1.0220  1.7991 -1.3830
  113SAPE  H19S11814   4.841   5.817   3.551  0.2450  0.4163 -0.5915
  113SAPE  C22011815   4.731   5.797   3.735 -0.6524  0.0416  0.0565
  113SAPE  H20R11816   4.809   5.796   3.814 -0.9947  1.9033  0.4707
  113SAPE  H20S11817   4.718   5.691   3.707  0.9373 -0.2553  0.3617
  113SAPE  H20T11818   4.638   5.844   3.772  1.1782  4.0508  0.1286
  113SAPE   C3311819   4.819   5.118   3.036  0.1251  0.3218  0.2492
  113SAPE   H3X11820   4.754   5.058   2.968  0.4644 -1.2453  1.2525
  113SAPE   H3Y11821   4.826   5.222   2.996  0.0910  1.3486  2.7555
  113SAPE   C3411822   4.774   5.129   3.187 -0.5317  0.1466 -0.4992
  113SAPE   H4X11823   4.681   5.190   3.192 -1.7485 -1.5825 -1.1172
  113SAPE   H4Y11824   4.859   5.180   3.236  0.1223 -0.2519 -1.1953
  113SAPE   C3511825   4.747   4.983   3.236 -0.2985  0.3856 -0.5608
  113SAPE   H5X11826   4.818   4.913   3.189 -0.6397  0.1413 -0.7118
  113SAPE   H5Y11827   4.639   4.958   3.224 -1.0141  2.8075  0.2187
  113SAPE   C3611828   4.772   4.968   3.392 -0.5396 -0.3914  0.0922
  113SAPE   H6X11829   4.681   5.010   3.440 -1.3100  1.3903 -2.6868
  113SAPE   H6Y11830   4.861   5.024   3.429  1.2382 -1.2241 -2.6696
  113SAPE   C3711831   4.783   4.828   3.445  0.5160 -0.2219  0.7383
  113SAPE   H7X11832   4.884   4.792   3.416 -0.1556 -1.2863 -0.4114
  113SAPE   H7Y11833   4.716   4.759   3.390 -0.4698  0.5712  0.9093
  113SAPE   C3811834   4.761   4.809   3.596 -0.2012  0.6714  0.6991
  113SAPE   H8X11835   4.651   4.826   3.601 -0.2725 -0.1170  2.3832
  113SAPE   H8Y11836   4.777   4.710   3.642 -0.6757  0.2621  0.0162
  113SAPE   C3911837   4.812   4.909   3.702 -0.4222  0.2762  0.1999
  113SAPE   H9X11838   4.769   4.878   3.800 -2.7254 -0.4771 -0.9792
  113SAPE   H9Y11839   4.779   5.012   3.675 -0.0778  0.0998 -0.9529
  113SAPE  C31011840   4.963   4.902   3.720 -0.2688 -0.1516  0.5773
  113SAPE  H10X11841   5.014   4.933   3.627  0.3517 -0.8294  0.6741
  113SAPE  H10Y11842   4.997   4.796   3.728  1.7322  0.3961 -0.1457
  113SAPE  C31111843   5.021   4.965   3.853  0.0215  0.4884  0.3618
  113SAPE  H11X11844   5.124   4.928   3.868 -0.2151 -0.9519 -1.2260
  113SAPE  H11Y11845   4.969   4.915   3.938  0.0262  0.2111  0.2016
  113SAPE  C31211846   5.015   5.119   3.860  0.1401  0.6636  0.3183
  113SAPE  H12X11847   5.065   5.148   3.955  0.2567  1.4634  0.0161
  113SAPE  H12Y11848   4.905   5.133   3.872 -0.2798 -1.9295  0.1303
  113SAPE  C31311849   5.078   5.194   3.743 -0.2981 -0.2390 -0.3995
  113SAPE  H13X11850   5.009   5.197   3.656 -2.3363  2.5749  1.1164
  113SAPE  H13Y11851   5.179   5.152   3.726 -1.0718 -1.5738 -1.8863
  113SAPE  C31411852   5.083   5.340   3.789 -0.7560 -0.5968  0.3272
  113SAPE  H14X11853   5.157   5.350   3.871 -1.8587 -0.2723  1.3015
  113SAPE  H14Y11854   4.982   5.353   3.833 -1.2175  0.8810 -1.0509
  113SAPE  C31511855   5.118   5.433   3.680  1.1618  0.3336 -0.3978
  113SAPE  H15X11856   5.048   5.448   3.595  0.3836  0.7482  0.2986
  113SAPE  H15Y11857   5.214   5.400   3.634  0.6719 -0.5460 -0.8281
  113SAPE  C31611858   5.148   5.579   3.723  0.4744 -0.5732 -0.5036
  113SAPE  H16X11859   5.227   5.588   3.800 -0.4055  1.6307  0.2151
  113SAPE  H16Y11860   5.059   5.629   3.766  1.5351 -0.3712  1.5590
  113SAPE  C31711861   5.215   5.652   3.605  0.5361  0.0844  0.3117
  113SAPE  H17X11862   5.207   5.762   3.618 -1.5858  0.0441 -0.2894
  113SAPE  H17Y11863   5.166   5.623   3.509  0.6313 -2.8537  1.0422
  113SAPE  C31811864   5.375   5.632   3.593  0.5623 -0.5773 -0.3619
  113SAPE  H18X11865   5.405   5.709   3.518 -0.9638  0.9010  0.4826
  113SAPE  H18Y11866   5.402   5.527   3.568 -1.1042 -0.8195 -1.2954
  113SAPE  H18Z11867   5.426   5.654   3.690 -0.5468 -0.1751  0.1490
  114SAPE     N11868   6.817   2.420   1.982  0.2042  0.3373 -0.5515
  114SAPE   HN111869   6.754   2.363   1.923 -0.9680  1.8732 -0.8433
  114SAPE   HN211870   6.908   2.405   1.933 -0.1325 -1.5999 -0.6528
  114SAPE   HN311871   6.829   2.359   2.065  3.4576  0.1170 -1.0312
  114SAPE   C1211872   6.787   2.569   1.997 -0.3927 -0.3325 -0.0953
  114SAPE  H12A11873   6.681   2.580   2.026  0.1151 -0.7490  2.0706
  114SAPE  H12B11874   6.801   2.613   1.896 -2.3729 -2.1677 -1.2314
  114SAPE   C1111875   6.881   2.635   2.105 -0.6490  0.6229  0.8197
  114SAPE  H11A11876   6.836   2.736   2.116  1.2486  2.1448 -3.4834
  114SAPE  H11B11877   6.976   2.658   2.053  0.6066  0.0762  2.7569
  114SAPE     P11878   7.035   2.521   2.275 -0.3022 -0.0658  0.3080
  114SAPE   O1311879   7.088   2.423   2.174 -1.0171  0.1461  0.4304
  114SAPE   O1411880   7.117   2.639   2.298  0.0279 -0.3199 -1.2434
  114SAPE   O1211881   6.896   2.564   2.232  0.5256 -0.6286 -0.3929
  114SAPE   O1111882   7.019   2.441   2.412 -0.0512  0.0674 -0.4229
  114SAPE    C111883   6.939   2.502   2.518 -0.3669 -0.0149 -0.1810
  114SAPE    HA11884   6.983   2.597   2.555 -2.7497  0.7802  0.7677
  114SAPE    HB11885   6.839   2.532   2.481 -0.7004 -1.6201 -0.6731
  114SAPE    C211886   6.925   2.405   2.637  0.8158  0.3899  0.2668
  114SAPE    HS11887   6.883   2.459   2.725  0.3267 -0.1910  0.3977
  114SAPE   O2111888   7.045   2.343   2.678  0.5793  0.4410  0.0180
  114SAPE   C2111889   7.154   2.404   2.699  0.5058  0.2415 -0.7467
  114SAPE   O2211890   7.164   2.520   2.736 -0.3769 -0.0755 -0.1255
  114SAPE   C2211891   7.266   2.303   2.678  0.1529 -0.4533 -0.1568
  114SAPE   H2R11892   7.230   2.214   2.734 -2.1430 -0.1207 -1.0058
  114SAPE   H2S11893   7.275   2.285   2.569  1.7380  2.0339 -0.5264
  114SAPE    C311894   6.821   2.299   2.603  0.3158  0.2016 -0.3526
  114SAPE    HX11895   6.871   2.225   2.538  0.6507 -0.0564  0.1898
  114SAPE    HY11896   6.731   2.336   2.548  0.6259  0.5413 -0.6350
  114SAPE   O3111897   6.774   2.231   2.717 -0.4330  0.3510 -0.0952
  114SAPE   C3111898   6.692   2.294   2.795  0.0998 -0.8250 -0.1701
  114SAPE   O3211899   6.656   2.409   2.779  0.1445  0.5736 -0.2866
  114SAPE   C3211900   6.643   2.208   2.903 -0.0485  0.7212 -0.0370
  114SAPE   H2X11901   6.573   2.130   2.864  1.1372 -0.8082  0.7884
  114SAPE   H2Y11902   6.580   2.275   2.965  0.7039  0.5365  0.9561
  114SAPE   C2311903   7.403   2.361   2.709 -0.2911 -0.7962  0.0572
  114SAPE   H3R11904   7.414   2.466   2.675  1.6583 -0.0403  2.7073
  114SAPE   H3S11905   7.481   2.306   2.652 -0.0982 -0.4685  0.0064
  114SAPE   C2411906   7.450   2.371   2.854  0.5381  0.1525 -0.1367
  114SAPE   H4R11907   7.377   2.431   2.913  2.6371  2.6205  0.1490
  114SAPE   H4S11908   7.540   2.435   2.859  0.5512  0.0690  1.7685
  114SAPE   C2511909   7.461   2.230   2.910 -0.3717  0.2508  0.0573
  114SAPE   H5R11910   7.441   2.141   2.849  0.9763 -0.9646  1.2876
  114SAPE   C2611911   7.483   2.204   3.040 -0.8234 -0.6049 -1.2495
  114SAPE   H6R11912   7.486   2.098   3.067  1.1000 -0.1923  0.4061
  114SAPE   C2711913   7.492   2.302   3.161  0.6238 -0.3463 -0.6152
  114SAPE   H7R11914   7.456   2.405   3.141  1.2793  0.6929  2.8372
  114SAPE   H7S11915   7.597   2.325   3.192 -0.1695  0.8105  1.4032
  114SAPE   C2811916   7.420   2.244   3.281  0.0442 -0.2674 -0.2589
  114SAPE   H8R11917   7.312   2.223   3.273 -1.0093  3.2305  2.2797
  114SAPE   C2911918   7.471   2.241   3.406  0.4039 -0.1083  0.1976
  114SAPE   H9R11919   7.404   2.207   3.486  2.0451 -0.4212  1.4940
  114SAPE  C21011920   7.606   2.290   3.454 -0.6805 -0.2166  0.9569
  114SAPE  H10R11921   7.624   2.391   3.412  0.5712  0.2807  2.5857
  114SAPE  H10S11922   7.683   2.225   3.408  0.6300  1.9053  0.0019
  114SAPE  C21111923   7.623   2.281   3.601  1.6383  0.2228 -0.2372
  114SAPE  H11R11924   7.692   2.202   3.633 -0.5182 -1.9946 -0.7886
  114SAPE  C21211925   7.556   2.347   3.700  0.1680 -0.7580  0.4176
  114SAPE  H12R11926   7.580   2.312   3.801 -0.1086  1.6494  1.3837
  114SAPE  C21311927   7.451   2.452   3.693  0.1544 -0.1858  0.3359
  114SAPE  H13R11928   7.353   2.400   3.692 -0.7292  1.4238  0.5409
  114SAPE  H13S11929   7.453   2.506   3.596  0.4541 -0.6354  0.0879
  114SAPE  C21411930   7.464   2.553   3.804 -0.1112  0.8255  0.3004
  114SAPE  H14R11931   7.556   2.546   3.865 -1.0201 -1.8118  1.5135
  114SAPE  C21511932   7.351   2.613   3.851 -0.2067  0.0549  0.1277
  114SAPE  H15R11933   7.356   2.695   3.924  1.4434 -0.3774  0.5379
  114SAPE  C21611934   7.211   2.595   3.791 -0.1750 -0.5104 -0.6873
  114SAPE  H16R11935   7.210   2.543   3.693  0.4468 -1.9169  0.0231
  114SAPE  H16S11936   7.164   2.695   3.782  0.3634  0.0721  1.9617
  114SAPE  C21711937   7.107   2.520   3.884 -0.3089 -0.0151  0.3823
  114SAPE  H17R11938   7.133   2.412   3.885 -2.3025 -0.5708 -1.3912
  114SAPE  H17S11939   7.009   2.533   3.833  0.6793  0.9746 -1.3703
  114SAPE  C21811940   7.115   2.589   4.026 -0.3237 -0.4025  0.0167
  114SAPE  H18R11941   7.115   2.698   4.006  0.8913 -0.5036 -0.5984
  114SAPE  H18S11942   7.216   2.570   4.070 -0.6017 -1.3164  0.2829
  114SAPE  C21911943   6.995   2.558   4.121  0.2240  0.0517  0.1592
  114SAPE  H19R11944   6.905   2.602   4.074  0.9360  0.7650 -0.5851
  114SAPE  H19S11945   7.010   2.620   4.212  0.5165  1.9235 -1.0974
  114SAPE  C22011946   6.973   2.409   4.151 -0.3516 -0.8075  0.2763
  114SAPE  H20R11947   7.016   2.349   4.068 -0.8788 -2.3865  1.1033
  114SAPE  H20S11948   6.866   2.380   4.162 -0.5189 -1.8130 -3.0063
  114SAPE  H20T11949   7.036   2.371   4.234 -0.3170 -1.4686 -0.0468
  114SAPE   C3311950   6.755   2.136   2.983 -0.1674  0.3305  0.0534
  114SAPE   H3X11951   6.835   2.094   2.919  0.3931  2.8205 -0.9946
  114SAPE   H3Y11952   6.707   2.053   3.038  0.3876  1.1124  1.7929
  114SAPE   C3411953   6.819   2.228   3.091  0.1812  0.3351  0.5890
  114SAPE   H4X11954   6.871   2.164   3.165  2.7591 -0.1598 -1.5043
  114SAPE   H4Y11955   6.749   2.296   3.143 -2.5967 -2.1574  0.4045
  114SAPE   C3511956   6.928   2.316   3.035  1.1045 -0.7275 -0.0155
  114SAPE   H5X11957   6.884   2.395   2.971  0.6455 -1.2630 -0.3686
  114SAPE   H5Y11958   6.988   2.250   2.969 -0.1325  0.0245 -1.9646
  114SAPE   C3611959   7.028   2.369   3.145 -0.1206 -0.2245  0.1579
  114SAPE   H6X11960   7.088   2.281   3.173 -1.1318 -1.7250 -2.0792
  114SAPE   H6Y11961   6.971   2.385   3.239  1.3627  0.9001  0.9050
  114SAPE   C3711962   7.115   2.494   3.107 -0.2799  1.0022  0.0645
  114SAPE   H7X11963   7.053   2.573   3.060 -1.8045 -0.2236 -0.0354
  114SAPE   H7Y11964   7.189   2.466   3.029  0.5763  3.8567 -0.2556
  114SAPE   C3811965   7.186   2.545   3.234 -0.1331 -0.1802  1.0339
  114SAPE   H8X11966   7.269   2.484   3.276  1.2077 -0.4833 -1.8138
  114SAPE   H8Y11967   7.118   2.592   3.307 -0.4674 -0.9958  1.2460
  114SAPE   C3911968   7.265   2.673   3.185  0.7054 -0.0278 -0.0482
  114SAPE   H9X11969   7.204   2.726   3.109  0.1077 -1.3391 -0.5199
  114SAPE   H9Y11970   7.353   2.632   3.130  0.1502  1.1812 -1.9556
  114SAPE  C31011971   7.307   2.774   3.293 -0.1955 -0.7906 -0.4190
  114SAPE  H10X11972   7.214   2.814   3.339  0.0271 -0.0325 -0.6139
  114SAPE  H10Y11973   7.351   2.862   3.241  0.4416 -0.3974  0.7480
  114SAPE  C31111974   7.401   2.721   3.397  0.7071 -0.4788 -0.5693
  114SAPE  H11X11975   7.477   2.658   3.347  1.0243  1.9209 -3.3495
  114SAPE  H11Y11976   7.342   2.666   3.473 -2.5140  2.8126 -0.4542
  114SAPE  C31211977   7.483   2.824   3.473  0.2713  0.2503 -0.2798
  114SAPE  H12X11978   7.548   2.886   3.407 -0.8766  1.3539 -0.4147
  114SAPE  H12Y11979   7.550   2.767   3.541  0.0404  0.4918  0.1572
  114SAPE  C31311980   7.392   2.915   3.560  0.4792  0.0947  0.3952
  114SAPE  H13X11981   7.309   2.855   3.602 -0.0823  1.0668  0.7081
  114SAPE  H13Y11982   7.335   2.992   3.504  0.7677  0.1195  0.1273
  114SAPE  C31411983   7.452   2.988   3.675 -0.4693 -0.7796 -0.2122
  114SAPE  H14X11984   7.518   3.076   3.659  1.3767 -2.5712 -3.4417
  114SAPE  H14Y11985   7.531   2.917   3.706  0.2166 -0.4121 -1.0883
  114SAPE  C31511986   7.359   3.013   3.792  0.2647  0.4756  0.5360
  114SAPE  H15X11987   7.311   2.918   3.824  1.8379 -0.7029 -0.4518
  114SAPE  H15Y11988   7.278   3.072   3.745 -1.2017 -1.3111  0.6622
  114SAPE  C31611989   7.420   3.082   3.912  0.7103 -0.5204  0.4749
  114SAPE  H16X11990   7.342   3.106   3.988  3.2102  2.3049  2.3652
  114SAPE  H16Y11991   7.479   3.171   3.882  2.1027 -1.7672 -0.6544
  114SAPE  C31711992   7.514   2.988   3.988 -0.0135 -0.2179  0.4293
  114SAPE  H17X11993   7.594   2.968   3.913  0.5059 -0.3669  1.0189
  114SAPE  H17Y11994   7.461   2.895   4.019 -0.7851 -0.0316 -0.2784
  114SAPE  C31811995   7.570   3.037   4.117 -0.3799 -0.5402  0.7261
  114SAPE  H18X11996   7.642   3.118   4.093 -0.1991 -0.6703  0.8250
  114SAPE  H18Y11997   7.633   2.962   4.170  1.0347  0.4337  0.4640
  114SAPE  H18Z11998   7.481   3.068   4.176 -0.4492 -1.6389  1.2256
  115SAPE     N11999   6.444   4.222   1.974 -0.0569  0.6956 -0.1344
  115SAPE   HN112000   6.451   4.137   1.913 -1.2972  0.5600 -0.1121
  115SAPE   HN212001   6.504   4.297   1.935 -0.3484  0.6379 -0.7187
  115SAPE   HN312002   6.483   4.183   2.062  1.3211  1.1101 -0.5408
  115SAPE   C1212003   6.302   4.271   1.975  0.9495  0.1722 -0.1294
  115SAPE  H12A12004   6.237   4.182   1.966  1.2559  0.0028 -0.6589
  115SAPE  H12B12005   6.286   4.332   1.884  0.8598 -0.8605 -0.8216
  115SAPE   C1112006   6.275   4.369   2.094  0.2350  0.7673  0.2843
  115SAPE  H11A12007   6.295   4.303   2.181 -1.5064  2.1147  1.8012
  115SAPE  H11B12008   6.167   4.398   2.094 -0.9159 -2.9696  0.0804
  115SAPE     P12009   6.374   4.587   2.190 -0.2490 -0.1723 -0.0694
  115SAPE   O1312010   6.465   4.701   2.154 -0.6119 -0.5529 -0.4503
  115SAPE   O1412011   6.230   4.627   2.223  0.7281 -0.6892  0.0895
  115SAPE   O1212012   6.370   4.472   2.079  0.4478  0.0672 -0.5947
  115SAPE   O1112013   6.429   4.523   2.318 -0.5554  0.1122  0.1722
  115SAPE    C112014   6.551   4.445   2.317  0.6288  0.4368 -0.7174
  115SAPE    HA12015   6.551   4.347   2.266  1.1611 -0.3539  0.7674
  115SAPE    HB12016   6.644   4.502   2.294 -0.0253  0.6746 -3.1669
  115SAPE    C212017   6.583   4.400   2.468 -0.3178 -0.8520 -0.2903
  115SAPE    HS12018   6.521   4.318   2.509 -0.7635 -0.8687 -0.9811
  115SAPE   O2112019   6.582   4.516   2.559 -0.1024 -0.7068  0.2980
  115SAPE   C2112020   6.481   4.522   2.641 -0.0916  0.4776 -0.2687
  115SAPE   O2212021   6.392   4.438   2.659  0.3588 -0.6399  0.4885
  115SAPE   C2212022   6.497   4.652   2.715 -0.2531  0.1965  0.3364
  115SAPE   H2R12023   6.605   4.677   2.720  0.0478 -0.9721  0.1424
  115SAPE   H2S12024   6.446   4.731   2.656 -1.2662  0.7194  1.8794
  115SAPE    C312025   6.731   4.343   2.467  0.3031  0.0981  0.0537
  115SAPE    HX12026   6.801   4.428   2.451  1.5790 -0.8230  0.5404
  115SAPE    HY12027   6.738   4.286   2.371  2.5855  1.9071 -0.9661
  115SAPE   O3112028   6.764   4.263   2.589  0.2237  0.1188 -0.2319
  115SAPE   C3112029   6.894   4.226   2.575 -0.8778 -0.2336  0.2770
  115SAPE   O3212030   6.959   4.245   2.474 -0.3951  0.8721  0.1380
  115SAPE   C3212031   6.941   4.170   2.712  0.0631 -0.3165  0.0675
  115SAPE   H2X12032   6.871   4.212   2.788 -0.0154 -0.4003  0.0420
  115SAPE   H2Y12033   7.047   4.198   2.729 -0.3471  3.1267 -2.0104
  115SAPE   C2312034   6.441   4.658   2.859  0.2069  0.4449 -0.7118
  115SAPE   H3R12035   6.498   4.600   2.936 -1.3380  1.0006  0.9315
  115SAPE   H3S12036   6.341   4.610   2.859 -0.9153  2.6299  0.1564
  115SAPE   C2412037   6.436   4.801   2.915 -0.5673  0.1163 -0.0101
  115SAPE   H4R12038   6.382   4.863   2.841 -0.1056  0.7236  0.1618
  115SAPE   H4S12039   6.539   4.840   2.918 -0.8362  0.9387 -1.0950
  115SAPE   C2512040   6.370   4.809   3.048  0.4175 -0.9460  0.1877
  115SAPE   H5R12041   6.312   4.717   3.062  0.3053 -1.1162 -1.1883
  115SAPE   C2612042   6.370   4.908   3.141 -0.2312  0.1971 -1.3435
  115SAPE   H6R12043   6.314   4.901   3.235  1.4322 -2.2473 -0.4302
  115SAPE   C2712044   6.446   5.042   3.133 -1.0125 -0.0303 -0.7220
  115SAPE   H7R12045   6.373   5.123   3.151 -1.4029 -0.5753  0.2371
  115SAPE   H7S12046   6.493   5.042   3.032  2.3942 -0.9574  0.7189
  115SAPE   C2812047   6.558   5.041   3.236  0.3795 -0.2007 -0.5333
  115SAPE   H8R12048   6.527   5.043   3.342 -1.1563  0.8919 -0.9599
  115SAPE   C2912049   6.692   5.059   3.211  0.3703  0.5283 -0.7691
  115SAPE   H9R12050   6.770   5.058   3.288  0.3939  0.5173 -0.7926
  115SAPE  C21012051   6.755   5.066   3.077  0.1254 -0.0739  0.2071
  115SAPE  H10R12052   6.721   5.151   3.014 -1.8856 -1.7199 -1.0137
  115SAPE  H10S12053   6.726   4.976   3.020 -1.0338 -0.2183  1.0046
  115SAPE  C21112054   6.905   5.059   3.065 -0.3233 -0.2092  0.3803
  115SAPE  H11R12055   6.947   4.959   3.086 -1.0014 -0.2382  1.7341
  115SAPE  C21212056   6.990   5.154   3.026 -0.4889  0.0551  0.4658
  115SAPE  H12R12057   7.098   5.135   3.015  0.1297  3.6183 -0.7503
  115SAPE  C21312058   6.948   5.294   2.996  0.0035 -0.4162 -0.4626
  115SAPE  H13R12059   6.848   5.323   3.034  0.2210 -0.6526  0.3114
  115SAPE  H13S12060   6.947   5.306   2.886  1.0871 -0.8956 -0.5367
  115SAPE  C21412061   7.040   5.393   3.059 -0.4689  0.8304  0.0881
  115SAPE  H14R12062   7.126   5.414   2.994  0.3597 -1.4062  0.3659
  115SAPE  C21512063   7.039   5.434   3.188 -0.0524 -0.3449  0.2559
  115SAPE  H15R12064   7.114   5.505   3.227 -1.1209 -0.6812  3.1854
  115SAPE  C21612065   6.934   5.398   3.291 -0.7189 -0.5433 -0.7580
  115SAPE  H16R12066   6.886   5.304   3.254 -0.8758 -1.0169  0.5934
  115SAPE  H16S12067   6.852   5.473   3.288  1.6369  2.1529 -2.8169
  115SAPE  C21712068   7.000   5.381   3.429  0.1977  0.0767  0.1266
  115SAPE  H17R12069   6.928   5.414   3.507  0.7172  0.3185  0.5124
  115SAPE  H17S12070   7.085   5.452   3.443  1.8044 -1.4524 -1.4514
  115SAPE  C21812071   7.043   5.239   3.451  0.2296  0.6665 -0.1007
  115SAPE  H18R12072   7.136   5.220   3.395 -0.9164 -4.0273 -0.8493
  115SAPE  H18S12073   6.969   5.166   3.413 -0.7424  1.2243  0.6637
  115SAPE  C21912074   7.052   5.213   3.609 -0.0881  0.0324  0.7746
  115SAPE  H19R12075   6.953   5.244   3.648  1.1960  2.6499  2.2112
  115SAPE  H19S12076   7.126   5.284   3.651  0.3401 -0.8637  1.5411
  115SAPE  C22012077   7.086   5.064   3.636  1.2510 -0.5461 -0.0988
  115SAPE  H20R12078   7.004   5.007   3.588  0.1331  0.5045  0.4874
  115SAPE  H20S12079   7.094   5.047   3.746 -2.3251  1.3099  0.6015
  115SAPE  H20T12080   7.180   5.034   3.585  1.3515  0.4103 -0.4918
  115SAPE   C3312081   6.917   4.015   2.717  0.3246 -0.1250  0.4651
  115SAPE   H3X12082   6.951   3.976   2.619  1.3894 -0.3946  0.9212
  115SAPE   H3Y12083   6.807   4.001   2.726  0.1257 -0.2971 -1.7831
  115SAPE   C3412084   6.991   3.957   2.835 -0.7005  0.3269 -0.1093
  115SAPE   H4X12085   7.097   3.961   2.804 -0.8429  1.3516 -0.5064
  115SAPE   H4Y12086   6.970   3.849   2.849  0.0331  0.0744 -0.9044
  115SAPE   C3512087   6.985   4.031   2.975 -0.0726 -0.1465  0.0067
  115SAPE   H5X12088   7.052   4.119   2.968  1.8633 -1.3158  2.3637
  115SAPE   H5Y12089   7.036   3.971   3.054  0.6605  1.1722  0.5667
  115SAPE   C3612090   6.844   4.054   3.027  0.2892  0.6909 -0.3027
  115SAPE   H6X12091   6.810   3.953   3.059 -0.6959  1.3721  0.8974
  115SAPE   H6Y12092   6.774   4.069   2.943 -2.4851 -1.0543  1.5391
  115SAPE   C3712093   6.816   4.149   3.139 -0.3871  0.4985 -0.4782
  115SAPE   H7X12094   6.710   4.136   3.171 -0.4096  0.5978 -0.5126
  115SAPE   H7Y12095   6.838   4.257   3.126  2.3497 -0.0483 -0.8128
  115SAPE   C3812096   6.910   4.120   3.265  0.5722 -0.5020  0.7763
  115SAPE   H8X12097   7.014   4.125   3.227 -0.2435  1.2611 -1.4735
  115SAPE   H8Y12098   6.874   4.018   3.292  0.8533 -1.0893 -0.9756
  115SAPE   C3912099   6.883   4.206   3.388  0.2837 -0.2477  0.4387
  115SAPE   H9X12100   6.773   4.220   3.399  0.5876  1.7446  1.2209
  115SAPE   H9Y12101   6.919   4.310   3.375  0.5539 -0.2702  1.0266
  115SAPE  C31012102   6.949   4.155   3.517 -0.7436 -0.3033  0.0197
  115SAPE  H10X12103   7.051   4.120   3.489 -1.8440 -0.4548 -4.5422
  115SAPE  H10Y12104   6.888   4.066   3.543 -0.5007 -0.2322  0.8432
  115SAPE  C31112105   6.965   4.257   3.627 -0.0406  0.7308  1.0982
  115SAPE  H11X12106   6.872   4.317   3.638 -0.1712  1.3642 -2.3092
  115SAPE  H11Y12107   7.051   4.320   3.593  1.3767 -2.4359 -1.7129
  115SAPE  C31212108   6.996   4.198   3.764 -0.4776  0.5536  0.3232
  115SAPE  H12X12109   7.097   4.152   3.755 -0.2589  1.3358 -1.7820
  115SAPE  H12Y12110   6.933   4.111   3.792  1.0524  0.3848  3.7576
  115SAPE  C31312111   6.993   4.301   3.869 -0.9580 -0.4083  0.0056
  115SAPE  H13X12112   6.919   4.379   3.843 -0.6738 -0.1307  0.0171
  115SAPE  H13Y12113   7.088   4.359   3.860 -1.5247  0.5063 -0.2727
  115SAPE  C31412114   6.989   4.240   4.006 -0.0980  0.5785 -0.5338
  115SAPE  H14X12115   7.079   4.180   4.031  1.7014  4.0950  2.3380
  115SAPE  H14Y12116   6.895   4.182   4.018 -0.1141  1.0426  1.9976
  115SAPE  C31512117   6.988   4.345   4.118  0.7505 -0.0469 -0.6065
  115SAPE  H15X12118   6.907   4.420   4.110 -0.2052 -1.1420 -1.7919
  115SAPE  H15Y12119   7.085   4.397   4.126  0.6099  0.1336 -0.0141
  115SAPE  C31612120   6.972   4.270   4.249 -0.4048 -0.1925 -0.1602
  115SAPE  H16X12121   7.056   4.198   4.259  1.6953  2.1826  0.2506
  115SAPE  H16Y12122   6.880   4.208   4.260 -0.8617  0.1879 -1.7151
  115SAPE  C31712123   6.968   4.367   4.373  0.6344  0.2554 -0.2755
  115SAPE  H17X12124   6.963   4.300   4.462  2.2798  1.2875  0.6536
  115SAPE  H17Y12125   6.881   4.433   4.353  1.0404 -0.0527 -3.4820
  115SAPE  C31812126   7.097   4.450   4.400  0.5340 -0.0766 -0.3781
  115SAPE  H18X12127   7.084   4.517   4.488  0.1970  0.8590 -1.1296
  115SAPE  H18Y12128   7.118   4.518   4.315  1.5949  0.4183  0.2576
  115SAPE  H18Z12129   7.180   4.377   4.410 -1.6366 -2.7697 -0.6869
  116SAPE     N12130   1.593   4.868   2.250 -0.6444  0.0642  0.0999
  116SAPE   HN112131   1.544   4.942   2.304  1.8784  1.0189  1.2455
  116SAPE   HN212132   1.678   4.908   2.207 -1.6770  1.4899 -0.6952
  116SAPE   HN312133   1.524   4.833   2.180 -1.9574  0.5238  1.1162
  116SAPE   C1212134   1.606   4.761   2.348 -0.2750 -0.9444 -0.3130
  116SAPE  H12A12135   1.691   4.794   2.410  0.8574 -2.0932 -1.1939
  116SAPE  H12B12136   1.613   4.671   2.283  0.5179 -1.3107  0.2660
  116SAPE   C1112137   1.471   4.752   2.423 -0.3762 -0.7607 -0.4497
  116SAPE  H11A12138   1.460   4.844   2.484 -0.9481 -0.3072 -1.2034
  116SAPE  H11B12139   1.479   4.659   2.482 -2.7464 -1.1874 -0.6752
  116SAPE     P12140   1.213   4.743   2.383 -0.1313 -0.2315  0.1283
  116SAPE   O1312141   1.164   4.887   2.376  0.0719  0.2026 -0.6870
  116SAPE   O1412142   1.144   4.647   2.299 -0.0885 -0.5241  0.7598
  116SAPE   O1212143   1.366   4.743   2.337  0.1289 -0.0629 -0.1150
  116SAPE   O1112144   1.216   4.684   2.532  0.8263 -0.0498 -0.6618
  116SAPE    C112145   1.195   4.788   2.639  0.6845 -0.8160  0.9027
  116SAPE    HA12146   1.273   4.865   2.620 -2.0895  1.8472 -0.5402
  116SAPE    HB12147   1.092   4.827   2.633  0.7839 -0.5896  0.6080
  116SAPE    C212148   1.223   4.738   2.779 -0.7685 -0.2745 -0.2552
  116SAPE    HS12149   1.328   4.701   2.777 -0.3206  0.9532 -1.2380
  116SAPE   O2112150   1.123   4.646   2.806 -0.5188 -0.1425 -0.1909
  116SAPE   C2112151   1.149   4.551   2.897  0.2873 -0.2040 -0.7361
  116SAPE   O2212152   1.259   4.533   2.946  0.2109  0.5348  0.2734
  116SAPE   C2212153   1.027   4.463   2.905 -0.0629  0.3038  0.0477
  116SAPE   H2R12154   0.935   4.523   2.883  0.2029 -0.6631 -4.5141
  116SAPE   H2S12155   1.027   4.384   2.827  1.5325  2.2539 -2.0554
  116SAPE    C312156   1.228   4.851   2.884  0.7248 -0.7369 -0.5610
  116SAPE    HX12157   1.121   4.871   2.905  0.7895 -0.6844 -0.2746
  116SAPE    HY12158   1.272   4.949   2.857 -0.2324 -0.9954 -3.3523
  116SAPE   O3112159   1.273   4.808   3.015 -0.2913  0.3079 -0.0380
  116SAPE   C3112160   1.409   4.802   3.020  0.1402 -0.0872  0.0981
  116SAPE   O3212161   1.482   4.827   2.925 -0.0681 -0.0374  0.0982
  116SAPE   C3212162   1.445   4.747   3.161  0.1007 -0.4590 -0.0310
  116SAPE   H2X12163   1.430   4.637   3.160  3.3306 -1.0112  1.3511
  116SAPE   H2Y12164   1.379   4.796   3.235 -1.1391 -3.1243  0.7247
  116SAPE   C2312165   0.997   4.395   3.046  0.2463  0.1806  0.2141
  116SAPE   H3R12166   1.097   4.376   3.091  0.1369  1.4702  1.0610
  116SAPE   H3S12167   0.934   4.305   3.035 -2.4239  1.3018  3.9309
  116SAPE   C2412168   0.918   4.490   3.142  0.1343  0.9121 -0.2805
  116SAPE   H4R12169   0.808   4.480   3.128  0.0154  1.7063 -0.0014
  116SAPE   H4S12170   0.948   4.595   3.121 -0.0718  1.0125 -0.0806
  116SAPE   C2512171   0.944   4.441   3.279  0.6748 -0.3735  0.1647
  116SAPE   H5R12172   0.885   4.357   3.319  0.7989 -0.3690  0.3538
  116SAPE   C2612173   1.021   4.493   3.374  0.1264 -0.2462 -0.6915
  116SAPE   H6R12174   1.031   4.432   3.465  0.6176 -0.4424 -0.8760
  116SAPE   C2712175   1.121   4.608   3.348 -0.0645  0.6432 -0.9381
  116SAPE   H7R12176   1.146   4.620   3.240  2.3056  0.6481 -0.4467
  116SAPE   H7S12177   1.215   4.567   3.393 -0.9200  0.2438  0.5503
  116SAPE   C2812178   1.068   4.741   3.404  0.2520  0.4977  0.1210
  116SAPE   H8R12179   1.005   4.794   3.331 -0.3477 -0.9867 -0.4562
  116SAPE   C2912180   1.094   4.803   3.517 -0.0817 -0.3703 -0.1589
  116SAPE   H9R12181   1.040   4.896   3.540 -2.2319 -1.9472  1.5141
  116SAPE  C21012182   1.200   4.774   3.623 -0.1957  0.4547  0.2801
  116SAPE  H10R12183   1.216   4.664   3.627 -1.1877  0.2427 -1.0227
  116SAPE  H10S12184   1.159   4.803   3.723 -1.5904 -1.6774  0.3937
  116SAPE  C21112185   1.329   4.850   3.589  0.0736 -0.0037 -0.3709
  116SAPE  H11R12186   1.333   4.901   3.492  0.9465  0.1513 -0.2650
  116SAPE  C21212187   1.445   4.851   3.659 -0.2144  0.4725 -0.7193
  116SAPE  H12R12188   1.518   4.927   3.626  0.8780 -0.2599 -0.0553
  116SAPE  C21312189   1.483   4.778   3.787  0.0168  0.2839 -0.2324
  116SAPE  H13R12190   1.485   4.669   3.770 -0.0100  0.1910  0.3409
  116SAPE  H13S12191   1.403   4.808   3.857 -0.8641  3.6049 -2.3959
  116SAPE  C21412192   1.619   4.823   3.832 -0.5187 -0.1711 -0.6025
  116SAPE  H14R12193   1.698   4.817   3.756 -1.3812 -1.1113 -1.4571
  116SAPE  C21512194   1.668   4.847   3.951  0.3362 -0.2881 -0.6702
  116SAPE  H15R12195   1.775   4.873   3.963  0.5591 -1.1086 -0.8411
  116SAPE  C21612196   1.579   4.840   4.078  0.6728 -0.3669 -0.0472
  116SAPE  H16R12197   1.472   4.828   4.051  1.0479 -5.0845 -0.2420
  116SAPE  H16S12198   1.580   4.940   4.128 -0.8892  1.1512 -2.8318
  116SAPE  C21712199   1.610   4.724   4.170  0.0549 -0.5811  0.2185
  116SAPE  H17R12200   1.610   4.627   4.116  3.3849 -0.0767 -0.9206
  116SAPE  H17S12201   1.534   4.727   4.251  0.2764  0.7986  0.3917
  116SAPE  C21812202   1.747   4.739   4.239  0.4221  0.4055 -0.5381
  116SAPE  H18R12203   1.752   4.840   4.286  2.2138 -0.2584  0.8352
  116SAPE  H18S12204   1.833   4.755   4.169 -0.3596 -0.1486 -1.6561
  116SAPE  C21912205   1.774   4.640   4.353 -0.2735  0.6128  0.9923
  116SAPE  H19R12206   1.863   4.677   4.409 -0.0125 -0.4294  1.2849
  116SAPE  H19S12207   1.801   4.543   4.306  1.4530  0.3448  2.4170
  116SAPE  C22012208   1.654   4.623   4.451 -0.1879  0.0645 -0.1097
  116SAPE  H20R12209   1.574   4.553   4.418 -0.3582 -0.6051  1.5946
  116SAPE  H20S12210   1.610   4.719   4.485 -0.6545 -0.3076  0.3548
  116SAPE  H20T12211   1.700   4.575   4.540 -0.4075  2.9857  1.6862
  116SAPE   C3312212   1.589   4.776   3.196 -0.7363 -0.0211 -0.5523
  116SAPE   H3X12213   1.599   4.886   3.211  1.4971 -0.0104 -1.7180
  116SAPE   H3Y12214   1.656   4.755   3.110 -0.2807  1.3416 -0.5516
  116SAPE   C3412215   1.632   4.713   3.328 -0.6457 -0.2323 -0.2311
  116SAPE   H4X12216   1.659   4.605   3.319 -2.0712 -0.5014 -1.9205
  116SAPE   H4Y12217   1.544   4.717   3.395  0.0336  2.0751  0.6192
  116SAPE   C3512218   1.746   4.787   3.398  0.1962  0.8099 -0.2417
  116SAPE   H5X12219   1.717   4.888   3.435  0.1990  0.3956  0.9395
  116SAPE   H5Y12220   1.813   4.793   3.310  0.2762 -2.8429 -0.5646
  116SAPE   C3612221   1.814   4.699   3.513  0.5484 -0.0126  0.5688
  116SAPE   H6X12222   1.830   4.596   3.474  2.8444  0.7561 -0.6300
  116SAPE   H6Y12223   1.739   4.698   3.596  1.2528 -0.2617  1.2147
  116SAPE   C3712224   1.937   4.761   3.572  0.4846 -0.2215 -0.5503
  116SAPE   H7X12225   1.913   4.857   3.623 -1.4489  0.2687 -2.2429
  116SAPE   H7Y12226   1.999   4.785   3.483 -0.8658 -1.3481 -1.8471
  116SAPE   C3812227   2.013   4.664   3.661  0.7182 -0.1945  0.3574
  116SAPE   H8X12228   2.111   4.712   3.682 -0.8574  2.0924  3.3221
  116SAPE   H8Y12229   2.030   4.575   3.597 -0.2053  1.0819 -1.7581
  116SAPE   C3912230   1.940   4.626   3.795 -0.1167  0.0642  0.2520
  116SAPE   H9X12231   1.865   4.556   3.751  1.0324 -0.0134 -1.6619
  116SAPE   H9Y12232   1.890   4.713   3.843 -0.9638 -0.7452  0.9061
  116SAPE  C31012233   2.046   4.552   3.887 -0.0710  0.3806 -0.1522
  116SAPE  H10X12234   2.123   4.629   3.907  0.8553 -1.0695  2.3222
  116SAPE  H10Y12235   2.081   4.467   3.825 -0.6266 -0.7624  1.0486
  116SAPE  C31112236   2.003   4.509   4.031  0.0013  0.3209  0.4447
  116SAPE  H11X12237   1.925   4.431   4.030 -0.6551  0.8430  3.1917
  116SAPE  H11Y12238   1.960   4.590   4.093 -0.2580  1.2849 -0.9404
  116SAPE  C31212239   2.124   4.456   4.114  0.0673 -0.1480 -0.8060
  116SAPE  H12X12240   2.200   4.408   4.049  1.1778 -1.8523  1.6271
  116SAPE  H12Y12241   2.090   4.378   4.184 -2.5112  0.0795 -1.6650
  116SAPE  C31312242   2.182   4.565   4.203 -0.7053 -0.3992 -0.1888
  116SAPE  H13X12243   2.118   4.602   4.286  1.3119 -1.1301  1.8026
  116SAPE  H13Y12244   2.219   4.650   4.143 -1.7439  0.0944 -0.1482
  116SAPE  C31412245   2.304   4.512   4.291 -0.3553  0.0161  0.5487
  116SAPE  H14X12246   2.378   4.462   4.226 -1.4168  0.3785 -1.0022
  116SAPE  H14Y12247   2.256   4.446   4.366 -1.9742 -0.9546 -1.2608
  116SAPE  C31512248   2.363   4.627   4.366 -0.4027  0.1258 -0.3658
  116SAPE  H15X12249   2.408   4.586   4.458 -2.3269  0.8206  0.9450
  116SAPE  H15Y12250   2.272   4.686   4.393 -0.9891  0.0950 -2.0958
  116SAPE  C31612251   2.454   4.717   4.287 -0.4928 -0.5400 -0.5539
  116SAPE  H16X12252   2.404   4.748   4.192 -1.3970  0.7390  0.2975
  116SAPE  H16Y12253   2.545   4.656   4.274 -0.7798 -0.9392 -0.6977
  116SAPE  C31712254   2.504   4.839   4.366  0.4691 -0.5556  0.0427
  116SAPE  H17X12255   2.416   4.893   4.406  0.8282  0.9179 -1.0777
  116SAPE  H17Y12256   2.554   4.920   4.309 -0.6402  1.0084  1.2207
  116SAPE  C31812257   2.592   4.807   4.492 -0.2561  0.0188  1.0072
  116SAPE  H18X12258   2.657   4.721   4.468  1.1146  0.8707  1.5691
  116SAPE  H18Y12259   2.538   4.755   4.575  1.1963 -1.0986  1.3004
  116SAPE  H18Z12260   2.665   4.883   4.525  0.0591  0.9440 -1.6095
  117SOPE     N12261   5.061   4.149   6.592 -0.3467 -0.1994  0.3709
  117SOPE   HN112262   4.978   4.133   6.531 -0.6401  0.5152  0.5827
  117SOPE   HN212263   5.055   4.091   6.678  1.0469  0.2638  0.8102
  117SOPE   HN312264   5.049   4.245   6.631 -0.7540  0.3354 -1.0123
  117SOPE   C1212265   5.183   4.119   6.514 -0.1558  0.0901  0.5302
  117SOPE  H12A12266   5.174   4.015   6.477  0.8858  0.3022 -0.3582
  117SOPE  H12B12267   5.273   4.131   6.579 -0.0167 -4.5299  1.4871
  117SOPE   C1112268   5.210   4.220   6.399  0.0843  0.0312  1.1608
  117SOPE  H11A12269   5.123   4.214   6.330  0.5030  1.0758  0.5309
  117SOPE  H11B12270   5.301   4.184   6.346 -0.8530 -1.4438  0.4801
  117SOPE     P12271   5.340   4.432   6.497  0.2856  0.1457 -0.2357
  117SOPE   O1312272   5.389   4.366   6.616 -0.0821  0.2557  0.3809
  117SOPE   O1412273   5.300   4.571   6.522  0.3198  0.1830 -0.0813
  117SOPE   O1212274   5.216   4.350   6.446 -0.5070  0.9836  0.9332
  117SOPE   O1112275   5.450   4.425   6.386 -0.0459 -0.5404  0.1291
  117SOPE    C112276   5.433   4.419   6.246  0.1993 -0.4513  0.5415
  117SOPE    HA12277   5.334   4.460   6.214  1.1451  0.2433 -1.6731
  117SOPE    HB12278   5.451   4.316   6.210 -0.8135  0.1580 -1.9212
  117SOPE    C212279   5.536   4.506   6.170  0.9474 -0.7711 -0.0626
  117SOPE    HS12280   5.521   4.608   6.210  1.1562 -1.2842  1.3941
  117SOPE   O2112281   5.519   4.492   6.029 -0.0954  0.8460  0.1986
  117SOPE   C2112282   5.427   4.577   5.989 -0.2510 -0.2714  0.2341
  117SOPE   O2212283   5.354   4.652   6.052  0.0260  0.4179 -0.0347
  117SOPE   C2212284   5.410   4.566   5.831  0.3703 -0.5372 -0.1955
  117SOPE   H2R12285   5.356   4.470   5.822  0.8998 -0.9886  1.1299
  117SOPE   H2S12286   5.510   4.563   5.781  0.3826  1.2720 -0.3557
  117SOPE    C312287   5.675   4.458   6.203 -0.1356 -0.3884  0.2728
  117SOPE    HX12288   5.667   4.350   6.174  1.5839 -0.5461  0.2784
  117SOPE    HY12289   5.711   4.457   6.308 -0.0479 -0.3722  0.2435
  117SOPE   O3112290   5.770   4.545   6.135  0.4723  0.0174 -0.1744
  117SOPE   C3112291   5.861   4.482   6.067  0.7609 -0.3860  0.0654
  117SOPE   O3212292   5.880   4.367   6.064  0.2654  0.2640 -0.2184
  117SOPE   C3212293   5.940   4.582   5.983 -0.1733  0.5913  0.0500
  117SOPE   H2X12294   6.038   4.537   5.959 -0.1593 -0.6515  2.1716
  117SOPE   H2Y12295   5.947   4.671   6.049  1.3929 -0.2549  1.1040
  117SOPE   C2312296   5.327   4.684   5.770  0.1232 -0.3119 -0.1421
  117SOPE   H3R12297   5.395   4.771   5.763 -2.0789  1.7504  2.2430
  117SOPE   H3S12298   5.251   4.708   5.847  0.3078 -1.9578  0.6145
  117SOPE   C2412299   5.267   4.651   5.636  0.1149  0.2033 -0.5713
  117SOPE   H4R12300   5.189   4.573   5.652  0.8812 -0.1615  1.6674
  117SOPE   H4S12301   5.214   4.735   5.587  2.2485  2.2450  0.4227
  117SOPE   C2512302   5.366   4.611   5.526  1.2031 -0.3929  0.8386
  117SOPE   H5R12303   5.461   4.668   5.528  0.1964  1.3863 -0.1526
  117SOPE   H5S12304   5.401   4.510   5.556  0.3400 -0.9461  0.0299
  117SOPE   C2612305   5.305   4.632   5.383  0.0356  0.2194 -0.2739
  117SOPE   H6R12306   5.203   4.589   5.375 -0.2687  0.6724  1.0247
  117SOPE   H6S12307   5.286   4.740   5.364  0.4121  0.3213 -0.0707
  117SOPE   C2712308   5.400   4.564   5.284  0.5565  0.6368  0.4506
  117SOPE   H7R12309   5.472   4.642   5.251  1.6239 -0.5090  0.0333
  117SOPE   H7S12310   5.459   4.482   5.330  1.1081  0.1576 -1.0572
  117SOPE   C2812311   5.334   4.519   5.155 -0.4812 -0.2878  0.0296
  117SOPE   H8R12312   5.414   4.500   5.081 -1.7312 -1.9165 -0.9660
  117SOPE   H8S12313   5.285   4.421   5.172  0.4357 -0.7682 -0.0757
  117SOPE   C2912314   5.244   4.628   5.099 -0.3423  0.0346 -0.4275
  117SOPE   H9112315   5.309   4.709   5.061  1.3478 -2.1892 -2.6372
  117SOPE  C21012316   5.110   4.632   5.088  0.1131  1.0135 -0.4777
  117SOPE  H10112317   5.054   4.719   5.050 -4.6638 -1.8511 -0.9038
  117SOPE  C21112318   5.009   4.527   5.136 -0.2123  0.3723 -0.6503
  117SOPE  H11R12319   4.918   4.578   5.174 -1.1990 -1.3124 -0.6663
  117SOPE  H11S12320   5.041   4.474   5.228  1.1748  4.2768  1.3534
  117SOPE  C21212321   4.961   4.431   5.032 -0.1808  0.1375 -0.1536
  117SOPE  H12R12322   4.877   4.487   4.985  0.5738  0.6715 -0.9061
  117SOPE  H12S12323   4.915   4.353   5.095  0.6071  0.1942  0.5073
  117SOPE  C21312324   5.055   4.376   4.926  0.4286 -0.0792 -0.6147
  117SOPE  H13R12325   5.130   4.315   4.981 -0.7043 -1.1776 -0.2372
  117SOPE  H13S12326   5.109   4.452   4.865 -2.8589  1.3144 -2.0149
  117SOPE  C21412327   4.985   4.267   4.834 -0.1189 -0.4904  0.0139
  117SOPE  H14R12328   4.933   4.215   4.917 -0.6227 -0.2331 -0.1406
  117SOPE  H14S12329   5.066   4.203   4.792  0.7536  1.2683 -1.0838
  117SOPE  C21512330   4.906   4.334   4.723  0.1638 -0.4591  0.3110
  117SOPE  H15R12331   4.979   4.400   4.672  0.6185  0.0811  1.6055
  117SOPE  H15S12332   4.817   4.388   4.760  0.4049  0.8912 -0.9852
  117SOPE  C21612333   4.860   4.239   4.609  0.0006 -0.0479  0.0207
  117SOPE  H16R12334   4.789   4.167   4.653  0.8634 -0.2808  1.0697
  117SOPE  H16S12335   4.947   4.181   4.572 -0.3884 -1.2135  0.8884
  117SOPE  C21712336   4.791   4.320   4.501 -0.1560  0.5472 -0.0715
  117SOPE  H17R12337   4.709   4.380   4.546 -0.6325 -0.4293  0.4104
  117SOPE  H17S12338   4.742   4.239   4.443  1.1978 -1.1962  1.0829
  117SOPE  C21812339   4.889   4.402   4.427 -0.3089 -0.2138  0.2855
  117SOPE  H18R12340   4.837   4.439   4.336  0.1931 -1.4852 -0.5461
  117SOPE  H18S12341   4.975   4.347   4.383 -2.2243 -1.1276 -2.6154
  117SOPE  H18T12342   4.936   4.485   4.486 -0.7393  0.5837 -0.4701
  117SOPE   C3312343   5.870   4.625   5.853 -0.5139  0.0921  0.0152
  117SOPE   H3X12344   5.915   4.726   5.839 -1.2289  0.5537  0.9758
  117SOPE   H3Y12345   5.761   4.638   5.871 -0.6985  0.8391 -1.4241
  117SOPE   C3412346   5.908   4.542   5.730 -0.2692  0.6916  1.0438
  117SOPE   H4X12347   5.881   4.436   5.749  0.1656  1.0702  4.2219
  117SOPE   H4Y12348   6.016   4.542   5.703 -0.8831 -0.5616 -1.8912
  117SOPE   C3512349   5.843   4.596   5.604 -0.1556 -0.2982  0.1542
  117SOPE   H5X12350   5.861   4.706   5.597 -0.8187 -0.0883  1.4516
  117SOPE   H5Y12351   5.735   4.574   5.612 -0.1298 -0.1304  1.0227
  117SOPE   C3612352   5.895   4.540   5.468  0.0973 -0.0425  0.4277
  117SOPE   H6X12353   5.880   4.430   5.464 -0.4847  0.0576 -1.7404
  117SOPE   H6Y12354   6.006   4.549   5.476  0.0424  0.4195  0.7305
  117SOPE   C3712355   5.841   4.604   5.341  0.4946 -0.8257 -0.4192
  117SOPE   H7X12356   5.865   4.712   5.337  0.1504 -0.7240  0.1336
  117SOPE   H7Y12357   5.730   4.612   5.339  0.5126  0.4257  1.5976
  117SOPE   C3812358   5.896   4.533   5.212  0.2562 -0.1568 -0.1552
  117SOPE   H8X12359   5.877   4.425   5.229  1.5927 -0.5115 -0.7610
  117SOPE   H8Y12360   6.005   4.544   5.196 -0.0338  0.9765 -1.5637
  117SOPE   C3912361   5.833   4.582   5.082  0.0452 -0.0977  0.7480
  117SOPE   H9X12362   5.864   4.687   5.066  0.7170 -0.6145 -1.8269
  117SOPE   H9Y12363   5.723   4.567   5.083 -0.7565  3.8757 -2.0602
  117SOPE  C31012364   5.879   4.502   4.956  0.6853 -0.4862 -0.9753
  117SOPE  H10X12365   5.833   4.401   4.966  1.5718 -0.8519 -0.4632
  117SOPE  H10Y12366   5.987   4.478   4.965  0.5151 -1.4999 -1.4165
  117SOPE  C31112367   5.845   4.550   4.821 -0.1776 -0.4320 -0.5940
  117SOPE  H11X12368   5.889   4.649   4.795 -0.9750  0.0134 -0.2742
  117SOPE  H11Y12369   5.738   4.576   4.810 -0.4099  0.0781  2.0145
  117SOPE  C31212370   5.891   4.449   4.711 -0.7397 -0.7009 -0.5290
  117SOPE  H12X12371   5.830   4.358   4.730 -0.5269 -0.3784  2.0944
  117SOPE  H12Y12372   5.999   4.437   4.732 -0.3039  1.3472 -1.4087
  117SOPE  C31312373   5.883   4.503   4.565 -0.2039 -0.2369 -0.2828
  117SOPE  H13X12374   5.930   4.437   4.490 -1.2078 -0.5899 -0.6065
  117SOPE  H13Y12375   5.944   4.596   4.578 -1.2273  0.3426  0.5253
  117SOPE  C31412376   5.742   4.542   4.512 -0.1164  0.1015 -0.0128
  117SOPE  H14X12377   5.697   4.618   4.579 -0.9786  1.1427 -1.7068
  117SOPE  H14Y12378   5.686   4.446   4.521  0.9286 -0.5482 -0.2191
  117SOPE  C31512379   5.750   4.587   4.364  0.3846  0.3033 -0.5383
  117SOPE  H15X12380   5.782   4.503   4.299 -0.5204  0.4522 -1.1949
  117SOPE  H15Y12381   5.811   4.681   4.360 -0.7874  1.0584 -1.0593
  117SOPE  C31612382   5.603   4.633   4.319  0.1343  0.0913  0.0653
  117SOPE  H16X12383   5.605   4.677   4.217 -1.1512 -0.0020 -0.0159
  117SOPE  H16Y12384   5.567   4.707   4.393 -0.7366  0.1053 -0.3530
  117SOPE  C31712385   5.501   4.514   4.320 -0.4211 -0.0102 -0.0066
  117SOPE  H17X12386   5.489   4.477   4.424 -2.1475 -0.6330 -0.3946
  117SOPE  H17Y12387   5.543   4.428   4.264 -0.1327 -0.6787  1.2074
  117SOPE  C31812388   5.365   4.545   4.263 -0.1888 -0.3744  0.6342
  117SOPE  H18X12389   5.319   4.635   4.309  1.0945  0.0120  1.2126
  117SOPE  H18Y12390   5.300   4.456   4.271 -1.6681  0.2757 -2.6256
  117SOPE  H18Z12391   5.375   4.563   4.154  0.4578 -2.2464  0.3489
  118SOPE     N12392   1.892   5.394   6.579 -0.1656  0.1748 -0.1875
  118SOPE   HN112393   1.840   5.343   6.653 -0.4706 -2.1728 -1.9262
  118SOPE   HN212394   1.952   5.329   6.524  2.5835  1.0881  1.5113
  118SOPE   HN312395   1.956   5.472   6.605 -2.0382  1.8482 -0.3252
  118SOPE   C1212396   1.786   5.466   6.505  0.1534 -0.2747  0.8391
  118SOPE  H12A12397   1.731   5.397   6.438 -1.0974  0.2696  1.2797
  118SOPE  H12B12398   1.841   5.525   6.428  1.4807 -0.6954  1.4289
  118SOPE   C1112399   1.689   5.535   6.596  1.1065 -0.2586 -0.1743
  118SOPE  H11A12400   1.602   5.587   6.551  0.9458 -0.2992  0.0894
  118SOPE  H11B12401   1.732   5.626   6.644  1.0904 -1.8957  3.2735
  118SOPE     P12402   1.577   5.310   6.695 -0.4886  0.1011  0.0184
  118SOPE   O1312403   1.519   5.256   6.818 -0.0981 -0.5683 -0.1082
  118SOPE   O1412404   1.678   5.216   6.636  0.4394 -0.0252 -0.3922
  118SOPE   O1212405   1.642   5.459   6.714 -0.1286 -0.1505  0.1950
  118SOPE   O1112406   1.469   5.346   6.590  0.1790 -0.5197 -0.8491
  118SOPE    C112407   1.388   5.251   6.528 -0.4206 -0.3695  0.1265
  118SOPE    HA12408   1.300   5.304   6.486  0.6913  1.6476  0.2071
  118SOPE    HB12409   1.363   5.172   6.602  2.4999 -0.8033  0.7603
  118SOPE    C212410   1.455   5.180   6.404  0.0590  0.1461  0.7688
  118SOPE    HS12411   1.550   5.135   6.440 -0.8035 -2.5578 -0.0847
  118SOPE   O2112412   1.467   5.279   6.297  0.8012  0.4545  0.4516
  118SOPE   C2112413   1.568   5.260   6.214 -0.6540 -0.0067  0.0037
  118SOPE   O2212414   1.670   5.198   6.244 -0.2473 -0.2668  0.3852
  118SOPE   C2212415   1.529   5.309   6.071  0.5370 -0.0689  0.2182
  118SOPE   H2R12416   1.565   5.412   6.052  2.9038 -0.9358 -0.3678
  118SOPE   H2S12417   1.418   5.312   6.061  0.4233  0.0993  1.4195
  118SOPE    C312418   1.360   5.064   6.355 -0.0403 -0.3700  0.2144
  118SOPE    HX12419   1.260   5.101   6.323  0.0763  0.0183  0.2918
  118SOPE    HY12420   1.347   5.001   6.446  3.4859 -1.9493 -0.2134
  118SOPE   O3112421   1.408   4.996   6.235  0.1420 -0.2822 -0.3632
  118SOPE   C3112422   1.483   4.888   6.259  0.5185  0.0513  0.1729
  118SOPE   O3212423   1.483   4.830   6.365 -0.5877 -0.2404 -0.0575
  118SOPE   C3212424   1.533   4.825   6.131  0.2137 -0.1552 -0.1759
  118SOPE   H2X12425   1.542   4.907   6.056  1.0040 -1.5834 -1.7067
  118SOPE   H2Y12426   1.459   4.756   6.084  0.8286 -0.7710 -0.2489
  118SOPE   C2312427   1.594   5.208   5.957  0.1451  0.0699  0.7676
  118SOPE   H3R12428   1.513   5.144   5.914  0.1503  0.8363 -0.4117
  118SOPE   H3S12429   1.669   5.137   5.998  1.6339 -0.0068 -1.8761
  118SOPE   C2412430   1.666   5.296   5.854  0.3279  0.5970 -0.1816
  118SOPE   H4R12431   1.596   5.380   5.837  0.1292  0.9885  2.1601
  118SOPE   H4S12432   1.757   5.341   5.900 -0.1997  0.2956  1.2277
  118SOPE   C2512433   1.694   5.233   5.712  0.2231 -0.8121 -0.0876
  118SOPE   H5R12434   1.786   5.170   5.719  0.0165 -1.1338 -0.2463
  118SOPE   H5S12435   1.606   5.173   5.681  0.5181 -1.5242  0.4062
  118SOPE   C2612436   1.722   5.354   5.611  0.1068  0.1141  0.1824
  118SOPE   H6R12437   1.630   5.414   5.627  0.3312  0.5925 -0.3011
  118SOPE   H6S12438   1.811   5.410   5.645 -0.9579  2.6614 -0.9917
  118SOPE   C2712439   1.740   5.310   5.467  0.2414  0.3834  0.0888
  118SOPE   H7R12440   1.838   5.258   5.460  1.5964  2.7592  0.1717
  118SOPE   H7S12441   1.663   5.236   5.436 -0.0560  1.4591 -1.9874
  118SOPE   C2812442   1.728   5.422   5.365  0.4875  0.1419 -0.1758
  118SOPE   H8R12443   1.624   5.458   5.381 -0.7015 -3.6057  2.1605
  118SOPE   H8S12444   1.795   5.504   5.398  1.0758 -0.9416  1.4978
  118SOPE   C2912445   1.745   5.383   5.225 -0.6218 -1.2309  0.6304
  118SOPE   H9112446   1.832   5.319   5.202  0.6249  0.2688  0.9374
  118SOPE  C21012447   1.669   5.419   5.121  1.0148 -0.1732 -0.5831
  118SOPE  H10112448   1.683   5.382   5.018 -2.5588  1.3188 -1.7737
  118SOPE  C21112449   1.539   5.505   5.121 -0.2367  0.1543  0.3123
  118SOPE  H11R12450   1.479   5.475   5.209  1.0982  1.0449  1.5613
  118SOPE  H11S12451   1.469   5.477   5.039 -1.9267 -1.0179  2.0681
  118SOPE  C21212452   1.555   5.658   5.106 -0.6572 -0.1021 -0.6354
  118SOPE  H12R12453   1.605   5.693   5.199 -0.7981  0.9152 -0.9304
  118SOPE  H12S12454   1.458   5.712   5.104 -0.2133  0.7046 -2.8872
  118SOPE  C21312455   1.653   5.698   5.000 -0.6122  0.0244  0.0714
  118SOPE  H13R12456   1.621   5.659   4.901 -0.0161 -0.2598 -0.0149
  118SOPE  H13S12457   1.754   5.656   5.017 -0.1383 -0.6357 -3.5778
  118SOPE  C21412458   1.657   5.849   4.993 -1.2955  0.1656 -0.1087
  118SOPE  H14R12459   1.693   5.891   5.089  0.7335 -0.0679 -0.7063
  118SOPE  H14S12460   1.558   5.891   4.967 -1.2537 -0.3365 -1.1536
  118SOPE  C21512461   1.756   5.908   4.889 -0.8412 -0.3331  0.2844
  118SOPE  H15R12462   1.859   5.871   4.907 -0.2547  0.7148 -0.7647
  118SOPE  H15S12463   1.764   6.018   4.903 -0.4372  0.1213 -2.8787
  118SOPE  C21612464   1.715   5.872   4.743  0.5844 -0.9107 -0.3567
  118SOPE  H16R12465   1.619   5.923   4.719  2.5464  2.8224 -0.9530
  118SOPE  H16S12466   1.698   5.763   4.730 -2.8145 -0.8084  1.9054
  118SOPE  C21712467   1.820   5.924   4.638 -0.1832 -0.0589 -0.6020
  118SOPE  H17R12468   1.917   5.876   4.661 -0.6933 -1.7607 -1.8515
  118SOPE  H17S12469   1.824   6.035   4.637 -0.6713 -0.0057  0.7577
  118SOPE  C21812470   1.788   5.884   4.494 -0.5678 -0.7015  0.7369
  118SOPE  H18R12471   1.790   5.773   4.488  1.1267 -0.6823  0.4566
  118SOPE  H18S12472   1.873   5.907   4.426 -1.9793 -2.7824 -1.9022
  118SOPE  H18T12473   1.693   5.922   4.451  0.2066  0.2016 -0.2174
  118SOPE   C3312474   1.669   4.742   6.128 -0.9504  0.0405  0.6760
  118SOPE   H3X12475   1.654   4.667   6.209 -1.3006  0.6403  1.1807
  118SOPE   H3Y12476   1.740   4.825   6.143  0.6004 -0.7647 -1.7331
  118SOPE   C3412477   1.710   4.674   6.001 -0.0190 -0.0790  0.1339
  118SOPE   H4X12478   1.634   4.593   5.988 -1.2488  0.9296  0.8385
  118SOPE   H4Y12479   1.813   4.634   6.010 -0.3655 -1.3388 -1.0663
  118SOPE   C3512480   1.717   4.767   5.873  0.2682  0.0922 -0.7218
  118SOPE   H5X12481   1.771   4.861   5.898 -1.3123  0.3081  2.3704
  118SOPE   H5Y12482   1.611   4.796   5.861  0.2337  0.4473  0.3351
  118SOPE   C3612483   1.773   4.679   5.753  0.0446  0.0685 -0.2194
  118SOPE   H6X12484   1.724   4.580   5.761 -0.1838 -0.1363 -3.0696
  118SOPE   H6Y12485   1.884   4.671   5.762 -0.0211 -0.2258  0.3601
  118SOPE   C3712486   1.732   4.746   5.625  0.2445  0.1313  0.3097
  118SOPE   H7X12487   1.772   4.849   5.615  1.5644 -0.3141  0.7856
  118SOPE   H7Y12488   1.622   4.758   5.635  0.5574  2.2540  1.8497
  118SOPE   C3812489   1.776   4.675   5.494 -0.5418  0.2483 -1.2652
  118SOPE   H8X12490   1.739   4.571   5.507  1.9555 -0.3744  3.1265
  118SOPE   H8Y12491   1.885   4.670   5.473 -0.3034  1.5589 -0.4774
  118SOPE   C3912492   1.720   4.740   5.370 -0.1284 -0.5093 -0.1313
  118SOPE   H9X12493   1.746   4.848   5.376 -3.4460  0.5165 -1.6104
  118SOPE   H9Y12494   1.610   4.745   5.382  0.1028 -0.0418  2.2836
  118SOPE  C31012495   1.775   4.668   5.248  0.3014 -0.1948 -0.2942
  118SOPE  H10X12496   1.738   4.563   5.259 -1.0575  0.2195 -0.6568
  118SOPE  H10Y12497   1.883   4.674   5.227  0.0759  1.2908 -1.1623
  118SOPE  C31112498   1.718   4.725   5.120  0.6462 -0.3973 -1.1251
  118SOPE  H11X12499   1.757   4.829   5.128 -0.5621 -0.0511  4.8051
  118SOPE  H11Y12500   1.608   4.739   5.129  0.6615 -1.0308  0.2478
  118SOPE  C31212501   1.758   4.643   5.003  0.1734  0.0865  0.7221
  118SOPE  H12X12502   1.693   4.555   4.984 -0.7897  0.9359 -0.0260
  118SOPE  H12Y12503   1.862   4.610   5.021  0.1553 -0.4452 -0.1119
  118SOPE  C31312504   1.744   4.742   4.889 -0.0995  0.4607  0.1619
  118SOPE  H13X12505   1.789   4.838   4.923  1.3915  0.3270 -1.3302
  118SOPE  H13Y12506   1.639   4.765   4.860  1.0819  2.3103 -3.2281
  118SOPE  C31412507   1.806   4.695   4.762 -0.1251 -0.0348  0.2422
  118SOPE  H14X12508   1.791   4.761   4.673  5.2950  0.5916 -0.6045
  118SOPE  H14Y12509   1.775   4.591   4.739 -2.0588  0.5596  0.0589
  118SOPE  C31512510   1.962   4.711   4.767 -0.3003 -1.4403  1.1451
  118SOPE  H15X12511   1.991   4.718   4.874 -0.3248  0.5044  1.0475
  118SOPE  H15Y12512   1.988   4.811   4.727 -0.2072 -1.4513  1.1775
  118SOPE  C31612513   2.031   4.598   4.692 -0.7698 -0.0474 -0.1708
  118SOPE  H16X12514   1.999   4.592   4.585  1.6275 -3.9776 -0.8693
  118SOPE  H16Y12515   1.988   4.502   4.727 -0.2436 -1.0350 -2.1040
  118SOPE  C31712516   2.179   4.596   4.729 -0.5117  0.5129  0.0883
  118SOPE  H17X12517   2.185   4.614   4.839  0.5809 -0.2312  0.1636
  118SOPE  H17Y12518   2.232   4.684   4.687 -0.7587  1.6398  1.9908
  118SOPE  C31812519   2.246   4.464   4.701 -0.0362  0.4459  0.2578
  118SOPE  H18X12520   2.222   4.440   4.595  2.2902 -0.6683 -0.0761
  118SOPE  H18Y12521   2.195   4.392   4.767  0.7201 -2.3466 -1.9902
  118SOPE  H18Z12522   2.357   4.461   4.710  0.2743 -0.1635 -2.5920
  119SOPE     N12523   1.408   6.582   6.731  0.1128 -1.1786  0.5764
  119SOPE   HN112524   1.403   6.513   6.809 -2.2791 -0.7993  0.8157
  119SOPE   HN212525   1.471   6.545   6.657 -0.0157  0.3503 -0.3268
  119SOPE   HN312526   1.455   6.666   6.770 -2.1387 -0.3675  1.7422
  119SOPE   C1212527   1.276   6.627   6.682  0.1198  0.5816  0.1191
  119SOPE  H12A12528   1.290   6.689   6.591  1.6887  1.9090  1.2268
  119SOPE  H12B12529   1.223   6.691   6.756 -1.7412  0.0945 -0.7170
  119SOPE   C1112530   1.177   6.516   6.664 -0.0836  0.1342 -0.3507
  119SOPE  H11A12531   1.206   6.456   6.575 -3.9385  0.7327 -2.1993
  119SOPE  H11B12532   1.084   6.565   6.631 -0.0808 -0.3419 -1.0834
  119SOPE     P12533   1.025   6.368   6.807  0.9101 -0.4476  0.0095
  119SOPE   O1312534   0.937   6.484   6.831  0.5457  0.4047  0.2086
  119SOPE   O1412535   1.036   6.264   6.906 -0.7167 -0.6320  0.1237
  119SOPE   O1212536   1.171   6.424   6.784 -0.0712 -0.6652  0.4146
  119SOPE   O1112537   0.987   6.304   6.673 -0.8101  0.1471  0.5310
  119SOPE    C112538   1.017   6.175   6.617  0.5090  0.0677  0.1173
  119SOPE    HA12539   0.995   6.095   6.691 -0.4454 -1.4248 -1.6915
  119SOPE    HB12540   1.122   6.177   6.581 -0.9254  0.1642 -4.7516
  119SOPE    C212541   0.936   6.150   6.495  0.1974  0.5509 -0.3691
  119SOPE    HS12542   0.828   6.159   6.522 -0.0734 -1.2787 -0.7161
  119SOPE   O2112543   0.976   6.016   6.454 -0.5215 -0.3528  0.1978
  119SOPE   C2112544   0.880   5.949   6.390  0.2477  0.1472  0.2548
  119SOPE   O2212545   0.762   5.985   6.389  0.3757 -0.6865 -0.4605
  119SOPE   C2212546   0.932   5.815   6.334  0.0024 -0.5071 -0.7233
  119SOPE   H2R12547   0.847   5.755   6.295  1.7676 -2.6572 -1.4620
  119SOPE   H2S12548   0.976   5.766   6.423  0.7432  1.8917  0.3078
  119SOPE    C312549   0.971   6.260   6.388 -0.2118 -0.2114 -0.0582
  119SOPE    HX12550   1.082   6.256   6.383 -0.1387  1.6606 -0.5478
  119SOPE    HY12551   0.935   6.359   6.420 -1.2201  0.3990 -2.8456
  119SOPE   O3112552   0.917   6.230   6.259  0.6059  0.1084  0.6542
  119SOPE   C3112553   0.950   6.329   6.182  0.1168 -1.0104  0.2419
  119SOPE   O3212554   1.017   6.428   6.214 -0.5256 -0.1358  0.0046
  119SOPE   C3212555   0.882   6.322   6.042 -0.1151 -0.5837 -0.5990
  119SOPE   H2X12556   0.802   6.399   6.046  0.6798  0.2235  0.3264
  119SOPE   H2Y12557   0.830   6.225   6.033 -0.6244 -0.1934 -2.2241
  119SOPE   C2312558   1.039   5.836   6.221  0.9983  0.5090 -0.1227
  119SOPE   H3R12559   1.078   5.735   6.195 -2.0664 -0.9260  0.3670
  119SOPE   H3S12560   1.123   5.899   6.258  1.4525 -0.0889 -0.1044
  119SOPE   C2412561   0.985   5.897   6.089  0.1359 -0.2927 -0.3250
  119SOPE   H4R12562   0.910   5.824   6.052  1.8628 -1.9988 -0.6369
  119SOPE   H4S12563   0.945   5.999   6.107 -0.1714 -0.7416  1.8500
  119SOPE   C2512564   1.103   5.906   5.983  0.2205  0.7960 -0.2290
  119SOPE   H5R12565   1.184   5.981   6.001  0.3245  1.2164 -2.2422
  119SOPE   H5S12566   1.145   5.803   5.988 -0.2570  0.6437  1.3362
  119SOPE   C2612567   1.045   5.935   5.842  0.4173 -0.3587 -0.1382
  119SOPE   H6R12568   0.954   5.876   5.817  0.6840  0.3984 -3.2365
  119SOPE   H6S12569   1.014   6.042   5.840  2.2110  0.1841 -0.6137
  119SOPE   C2712570   1.143   5.913   5.726  0.5981  0.4039 -0.3806
  119SOPE   H7R12571   1.243   5.946   5.761  0.8409 -0.4108 -0.2864
  119SOPE   H7S12572   1.151   5.805   5.701  1.4159  0.4438 -0.3150
  119SOPE   C2812573   1.095   5.997   5.603 -0.8312  0.2787  0.0943
  119SOPE   H8R12574   0.992   5.969   5.572 -0.1504  0.0822 -2.1531
  119SOPE   H8S12575   1.107   6.106   5.621 -1.3936  0.5715 -1.2259
  119SOPE   C2912576   1.175   5.951   5.488 -0.1345 -0.8911 -0.4352
  119SOPE   H9112577   1.243   5.872   5.524  2.2081  0.4958 -1.5235
  119SOPE  C21012578   1.165   5.992   5.355  0.1779 -0.3404  0.7944
  119SOPE  H10112579   1.245   5.957   5.288 -0.4149 -0.3533  0.0877
  119SOPE  C21112580   1.077   6.094   5.291 -0.6113  0.1032 -1.0422
  119SOPE  H11R12581   1.024   6.157   5.366  0.9306 -0.5054  0.6299
  119SOPE  H11S12582   1.001   6.029   5.243 -1.5128 -0.3630  0.9265
  119SOPE  C21212583   1.158   6.189   5.197  0.2546  0.2638  0.9496
  119SOPE  H12R12584   1.238   6.248   5.247  0.6427 -0.7077  1.5144
  119SOPE  H12S12585   1.077   6.259   5.168  0.1087 -0.3761 -0.2733
  119SOPE  C21312586   1.209   6.117   5.069 -0.6462 -0.3652 -0.7883
  119SOPE  H13R12587   1.129   6.041   5.057 -0.2465 -1.2761  1.7541
  119SOPE  H13S12588   1.309   6.071   5.076 -0.8385 -0.8226 -1.0492
  119SOPE  C21412589   1.199   6.199   4.933 -0.9600 -0.1883  0.0552
  119SOPE  H14R12590   1.250   6.297   4.935 -0.5363 -0.3591 -1.3849
  119SOPE  H14S12591   1.092   6.211   4.904 -0.7939  1.5319  0.0962
  119SOPE  C21512592   1.289   6.133   4.821  0.3112  0.7403 -0.2293
  119SOPE  H15R12593   1.242   6.035   4.796  2.0718  0.2339 -1.8341
  119SOPE  H15S12594   1.392   6.119   4.860  0.6093 -0.0841 -1.2617
  119SOPE  C21612595   1.308   6.211   4.694 -0.6578 -0.3322 -0.1110
  119SOPE  H16R12596   1.345   6.313   4.718 -1.3048 -0.0664 -0.2080
  119SOPE  H16S12597   1.205   6.217   4.651 -0.6184 -3.5659 -0.9190
  119SOPE  C21712598   1.402   6.131   4.600  0.9237 -0.9968  0.0601
  119SOPE  H17R12599   1.358   6.029   4.597  1.8263 -1.4211  0.8603
  119SOPE  H17S12600   1.505   6.120   4.640  0.9818 -0.3033  0.1171
  119SOPE  C21812601   1.412   6.194   4.460  0.4347 -0.2432 -0.3561
  119SOPE  H18R12602   1.475   6.128   4.395  1.8700  0.2981  0.4426
  119SOPE  H18S12603   1.453   6.297   4.462 -0.0278 -0.0498 -0.6720
  119SOPE  H18T12604   1.309   6.198   4.419 -0.8915 -2.6091  2.3803
  119SOPE   C3312605   0.974   6.358   5.929 -0.5822  0.4427  0.7912
  119SOPE   H3X12606   1.068   6.298   5.919 -0.8603  0.3433 -4.7812
  119SOPE   H3Y12607   1.004   6.464   5.942 -0.9842  0.7832 -0.8349
  119SOPE   C3412608   0.896   6.349   5.797  0.0203  1.5674 -0.4851
  119SOPE   H4X12609   0.798   6.400   5.809  0.8712  3.0247  0.7092
  119SOPE   H4Y12610   0.878   6.241   5.775  0.6629  1.4295 -0.3771
  119SOPE   C3512611   0.978   6.406   5.679  0.1461  0.4512 -0.4764
  119SOPE   H5X12612   1.077   6.356   5.687 -1.1446 -1.9906  1.4849
  119SOPE   H5Y12613   0.984   6.517   5.688 -0.3243  0.6600 -2.2357
  119SOPE   C3612614   0.930   6.362   5.543  0.5515 -0.0253  0.0462
  119SOPE   H6X12615   0.918   6.253   5.531  0.0882  0.2437 -2.2836
  119SOPE   H6Y12616   1.013   6.376   5.470  0.9295 -0.5443  0.3685
  119SOPE   C3712617   0.804   6.433   5.499  0.8955 -0.1966  0.8602
  119SOPE   H7X12618   0.820   6.543   5.498 -0.8237  0.0747 -0.0301
  119SOPE   H7Y12619   0.722   6.410   5.570 -2.2258  1.2429 -2.0551
  119SOPE   C3812620   0.745   6.390   5.365 -0.3207  0.4683  0.2567
  119SOPE   H8X12621   0.637   6.416   5.359 -0.3292  0.3583 -0.1497
  119SOPE   H8Y12622   0.740   6.279   5.358  1.9944  0.2727  0.7969
  119SOPE   C3912623   0.821   6.444   5.242 -0.3156  0.0575 -0.1608
  119SOPE   H9X12624   0.927   6.412   5.249 -0.2891 -0.3003 -1.6657
  119SOPE   H9Y12625   0.828   6.555   5.249 -1.0955  0.1371 -0.5004
  119SOPE  C31012626   0.760   6.400   5.109  0.3697  0.2878  0.1266
  119SOPE  H10X12627   0.657   6.441   5.096  0.7723  0.7792 -1.9332
  119SOPE  H10Y12628   0.754   6.290   5.108  0.5696  0.1853  2.8567
  119SOPE  C31112629   0.838   6.443   4.993 -0.7598  0.5102  0.6750
  119SOPE  H11X12630   0.946   6.428   5.014 -1.3891 -0.9287  3.2974
  119SOPE  H11Y12631   0.821   6.553   4.988 -3.8360  0.2315  2.4458
  119SOPE  C31212632   0.797   6.375   4.860 -0.4829  0.2160  0.6115
  119SOPE  H12X12633   0.800   6.264   4.874  1.1485 -0.1996 -2.2357
  119SOPE  H12Y12634   0.871   6.401   4.782  1.4465 -1.9179  1.6083
  119SOPE  C31312635   0.660   6.419   4.800  0.0166 -0.1700 -0.3072
  119SOPE  H13X12636   0.663   6.530   4.799  0.8229 -0.1174  2.0864
  119SOPE  H13Y12637   0.573   6.397   4.865 -1.7013  0.9797 -2.1005
  119SOPE  C31412638   0.635   6.353   4.662 -0.2896 -0.5675  0.3592
  119SOPE  H14X12639   0.651   6.243   4.669  0.4458 -0.5368 -0.6100
  119SOPE  H14Y12640   0.719   6.390   4.599 -1.4759  1.1510 -0.2842
  119SOPE  C31512641   0.494   6.382   4.605  1.1932  0.4106 -0.3796
  119SOPE  H15X12642   0.471   6.485   4.637 -0.2307  0.0564 -0.2101
  119SOPE  H15Y12643   0.429   6.315   4.665 -0.5194  0.2484 -2.3287
  119SOPE  C31612644   0.485   6.361   4.455  0.1648 -0.7860 -0.6367
  119SOPE  H16X12645   0.548   6.429   4.393  0.9742 -1.4857 -0.6089
  119SOPE  H16Y12646   0.383   6.371   4.414  0.2199  3.2174 -0.1158
  119SOPE  C31712647   0.529   6.220   4.409  0.8118 -0.5062  0.0837
  119SOPE  H17X12648   0.640   6.212   4.411  1.3473  4.2182  0.4643
  119SOPE  H17Y12649   0.512   6.219   4.299 -1.1733  1.9343  0.2905
  119SOPE  C31812650   0.456   6.102   4.470  0.3565  1.0222 -0.2355
  119SOPE  H18X12651   0.345   6.112   4.471  0.0623 -1.6075  0.0805
  119SOPE  H18Y12652   0.498   6.085   4.571 -0.4520 -0.5636 -0.1346
  119SOPE  H18Z12653   0.487   6.009   4.418  1.3808 -0.4022  2.7064
  120SOPE     N12654   3.020   5.358   6.753  0.6951  0.1550  0.1160
  120SOPE   HN112655   2.951   5.299   6.703  1.1799  0.1871 -0.5966
  120SOPE   HN212656   3.097   5.299   6.791  1.4152  2.3817  2.3803
  120SOPE   HN312657   2.958   5.398   6.827  1.1435 -2.2255  1.9008
  120SOPE   C1212658   3.070   5.457   6.655  0.1606  0.3766  0.3408
  120SOPE  H12A12659   3.127   5.535   6.711 -1.0931  1.4757  0.1242
  120SOPE  H12B12660   2.981   5.519   6.632  0.4899  0.7484  0.0565
  120SOPE   C1112661   3.143   5.378   6.546 -0.1749  0.1508  0.1476
  120SOPE  H11A12662   3.178   5.451   6.470  0.2791 -1.6861 -1.5036
  120SOPE  H11B12663   3.065   5.315   6.497 -0.5991  0.1911  0.7602
  120SOPE     P12664   3.315   5.183   6.494  0.4849  0.2671  0.0851
  120SOPE   O1312665   3.248   5.055   6.534 -0.6533  0.3735  0.2442
  120SOPE   O1412666   3.463   5.183   6.499  0.3043  0.1356 -0.7477
  120SOPE   O1212667   3.256   5.304   6.592  0.8194 -0.1410 -0.0860
  120SOPE   O1112668   3.264   5.223   6.354  0.2381  0.2025  0.6239
  120SOPE    C112669   3.241   5.119   6.251 -0.3365 -0.5196 -0.2295
  120SOPE    HA12670   3.199   5.025   6.293 -1.1948 -0.8861 -1.8252
  120SOPE    HB12671   3.338   5.089   6.206  0.5080 -0.4139  1.4441
  120SOPE    C212672   3.137   5.165   6.137  0.0278 -0.0510 -0.1611
  120SOPE    HS12673   3.125   5.073   6.076 -3.4602  0.1928 -0.0506
  120SOPE   O2112674   3.183   5.283   6.062  0.0959  0.0617 -0.0018
  120SOPE   C2112675   3.273   5.245   5.982  0.1319  0.2552 -0.4576
  120SOPE   O2212676   3.311   5.133   5.962 -0.2734 -0.6262 -0.4073
  120SOPE   C2212677   3.336   5.370   5.922  0.5817  0.8490  1.2900
  120SOPE   H2R12678   3.397   5.423   5.999 -0.0724  0.2934  2.2191
  120SOPE   H2S12679   3.260   5.437   5.875  2.6535  1.4797 -1.3726
  120SOPE    C312680   2.998   5.187   6.204 -0.0802  0.7223 -0.4685
  120SOPE    HX12681   2.994   5.286   6.256  1.4825  0.7255 -0.3315
  120SOPE    HY12682   2.987   5.104   6.277 -0.5655  0.2052 -1.1065
  120SOPE   O3112683   2.892   5.193   6.110  0.1563 -0.2751 -0.0588
  120SOPE   C3112684   2.836   5.085   6.055  0.0036 -0.4047 -0.6121
  120SOPE   O3212685   2.862   4.965   6.079  0.1334  0.6935  0.2649
  120SOPE   C3212686   2.729   5.122   5.962  0.2906  0.1089 -0.3452
  120SOPE   H2X12687   2.638   5.137   6.024  0.1203  1.5241 -0.9062
  120SOPE   H2Y12688   2.707   5.037   5.894  1.0237  0.3088 -0.8428
  120SOPE   C2312689   3.435   5.333   5.809 -0.3466 -0.8883  0.5159
  120SOPE   H3R12690   3.511   5.268   5.857  1.2571  1.1908  0.9574
  120SOPE   H3S12691   3.490   5.429   5.794 -1.4000 -0.3887 -0.2681
  120SOPE   C2412692   3.369   5.293   5.682  0.7644 -0.4137  0.4441
  120SOPE   H4R12693   3.296   5.212   5.701 -1.8911  1.8812  0.6847
  120SOPE   H4S12694   3.314   5.378   5.636 -0.5171 -2.5460 -2.1915
  120SOPE   C2512695   3.471   5.258   5.569  0.7017  0.1121  0.3949
  120SOPE   H5R12696   3.518   5.352   5.532  2.0498 -1.1036 -1.1109
  120SOPE   H5S12697   3.563   5.215   5.615  0.1816  2.3868  3.9763
  120SOPE   C2612698   3.413   5.165   5.460 -0.2589 -0.1313 -0.0649
  120SOPE   H6R12699   3.492   5.092   5.434  0.2326 -0.0711  1.1931
  120SOPE   H6S12700   3.323   5.116   5.503  0.0897 -2.3705 -1.7365
  120SOPE   C2712701   3.368   5.231   5.330 -0.0057 -0.3831 -0.3557
  120SOPE   H7R12702   3.288   5.175   5.278  1.2762 -0.9705 -1.7522
  120SOPE   H7S12703   3.318   5.328   5.355  3.1999  1.4109 -0.4138
  120SOPE   C2812704   3.480   5.261   5.233  0.1892 -1.0548 -0.0376
  120SOPE   H8R12705   3.545   5.326   5.295  1.8233 -2.1795 -0.5080
  120SOPE   H8S12706   3.538   5.167   5.222  0.9954 -0.7695  1.4412
  120SOPE   C2912707   3.431   5.336   5.111  0.5364  0.5467  0.9990
  120SOPE   H9112708   3.457   5.443   5.101 -1.4322  1.0424  0.8070
  120SOPE  C21012709   3.377   5.271   5.002 -1.2030  0.0379 -0.3924
  120SOPE  H10112710   3.325   5.331   4.925 -2.1121 -0.6632 -0.3404
  120SOPE  C21112711   3.361   5.122   4.988  0.9040 -0.0707 -0.1504
  120SOPE  H11R12712   3.256   5.106   4.956  1.4362  0.2617 -2.2404
  120SOPE  H11S12713   3.376   5.069   5.084  1.6000  1.9516  0.9237
  120SOPE  C21212714   3.434   5.065   4.866  0.6127 -0.0859 -0.1546
  120SOPE  H12R12715   3.540   5.050   4.896  0.3549 -1.7520 -0.0309
  120SOPE  H12S12716   3.432   5.148   4.792  1.3076  0.1872  0.1234
  120SOPE  C21312717   3.365   4.942   4.803 -0.4830 -0.3353  0.0022
  120SOPE  H13R12718   3.264   4.964   4.760 -0.8528 -1.5526  0.2125
  120SOPE  H13S12719   3.341   4.870   4.884  0.2633 -1.2424 -0.5572
  120SOPE  C21412720   3.445   4.874   4.693  0.0232 -0.4302  0.3859
  120SOPE  H14R12721   3.403   4.777   4.659 -2.6925  0.9700 -0.4973
  120SOPE  H14S12722   3.551   4.868   4.726  0.0568  1.7148  0.8308
  120SOPE  C21512723   3.438   4.958   4.560 -0.0166 -0.3553  0.1649
  120SOPE  H15R12724   3.449   5.067   4.578  0.4352  0.0911 -2.3795
  120SOPE  H15S12725   3.340   4.937   4.512  0.4572 -0.8919 -0.5984
  120SOPE  C21612726   3.545   4.945   4.451  0.6353  0.1345  0.3342
  120SOPE  H16R12727   3.641   4.939   4.506  0.2521 -2.3190  0.8270
  120SOPE  H16S12728   3.533   5.022   4.371  0.3822 -1.9352 -1.7157
  120SOPE  C21712729   3.536   4.812   4.373  0.3545 -0.9359 -0.2037
  120SOPE  H17R12730   3.431   4.778   4.360  0.2462 -0.6504 -0.0574
  120SOPE  H17S12731   3.586   4.737   4.438  0.3316 -1.4384 -0.7504
  120SOPE  C21812732   3.611   4.821   4.240 -0.1147  0.7108  0.2657
  120SOPE  H18R12733   3.592   4.729   4.182  2.4424 -0.0358  0.4974
  120SOPE  H18S12734   3.721   4.838   4.248  0.0656  0.4252 -1.3698
  120SOPE  H18T12735   3.571   4.912   4.190  1.0898  0.9767 -0.2636
  120SOPE   C3312736   2.734   5.247   5.874  0.9163 -0.1461  0.1710
  120SOPE   H3X12737   2.836   5.247   5.829 -0.0528 -2.0505 -2.2722
  120SOPE   H3Y12738   2.715   5.343   5.925 -0.3028 -0.9806  1.3419
  120SOPE   C3412739   2.633   5.232   5.753 -0.0168 -0.3501 -0.1479
  120SOPE   H4X12740   2.533   5.260   5.792  1.1003  0.1653  2.6091
  120SOPE   H4Y12741   2.626   5.124   5.729 -1.8249 -0.7851  2.0088
  120SOPE   C3512742   2.658   5.313   5.627  0.0727 -0.5428 -0.8490
  120SOPE   H5X12743   2.767   5.321   5.608 -0.0696 -1.8446 -2.4059
  120SOPE   H5Y12744   2.609   5.413   5.620  1.8497  0.5434  0.9437
  120SOPE   C3612745   2.600   5.250   5.502  0.6435  0.1794 -0.2772
  120SOPE   H6X12746   2.489   5.245   5.506  0.6288 -1.3690 -1.3937
  120SOPE   H6Y12747   2.635   5.144   5.510  0.6967  0.2446  0.3600
  120SOPE   C3712748   2.639   5.319   5.374 -0.6317 -0.2139  0.0574
  120SOPE   H7X12749   2.748   5.337   5.372 -0.6522 -0.1501 -0.9305
  120SOPE   H7Y12750   2.598   5.422   5.368 -0.2598 -0.1094 -0.8693
  120SOPE   C3812751   2.596   5.237   5.248 -0.3082 -0.2129  0.0061
  120SOPE   H8X12752   2.487   5.254   5.255 -0.1641  0.4197  0.9508
  120SOPE   H8Y12753   2.626   5.132   5.268 -4.0603 -1.0725  1.9394
  120SOPE   C3912754   2.646   5.301   5.108 -0.0113 -0.2914 -0.7133
  120SOPE   H9X12755   2.757   5.294   5.106 -0.0404 -1.9697  0.9044
  120SOPE   H9Y12756   2.618   5.408   5.117 -0.1950 -0.3518 -0.5643
  120SOPE  C31012757   2.603   5.236   4.976 -0.2149  0.3422  0.4476
  120SOPE  H10X12758   2.492   5.227   4.980 -0.2273  0.6647  1.1465
  120SOPE  H10Y12759   2.647   5.134   4.979  0.5759  0.6831  2.0425
  120SOPE  C31112760   2.649   5.316   4.848 -0.0125 -0.2122  0.5488
  120SOPE  H11X12761   2.760   5.313   4.850 -0.0039 -0.9142 -0.2208
  120SOPE  H11Y12762   2.606   5.417   4.865 -1.8272 -1.1046  1.5075
  120SOPE  C31212763   2.593   5.249   4.721 -0.3684 -0.0263 -0.8218
  120SOPE  H12X12764   2.483   5.252   4.732 -0.0978  1.7603  3.2680
  120SOPE  H12Y12765   2.637   5.147   4.724 -2.6666 -1.0783 -0.3672
  120SOPE  C31312766   2.623   5.312   4.582  0.1124  0.2606 -0.4542
  120SOPE  H13X12767   2.732   5.301   4.565  0.0536 -0.5515 -0.3313
  120SOPE  H13Y12768   2.603   5.421   4.577 -0.6940  0.1553  0.2501
  120SOPE  C31412769   2.558   5.239   4.457  0.7314  0.0506  0.9864
  120SOPE  H14X12770   2.450   5.267   4.458  0.9796  1.4671 -2.0721
  120SOPE  H14Y12771   2.571   5.130   4.479  0.6381 -0.1428  0.1179
  120SOPE  C31512772   2.621   5.284   4.328  0.6370 -1.0427  0.3683
  120SOPE  H15X12773   2.724   5.242   4.325  1.3872  0.7396 -0.0254
  120SOPE  H15Y12774   2.636   5.394   4.338 -1.9115 -0.3662 -2.0020
  120SOPE  C31612775   2.540   5.258   4.198  0.2175 -0.7001 -0.4345
  120SOPE  H16X12776   2.437   5.298   4.200 -0.1700 -1.5528 -1.9556
  120SOPE  H16Y12777   2.520   5.149   4.191  0.2256 -0.6216 -1.9850
  120SOPE  C31712778   2.589   5.331   4.077 -0.3918 -0.3190 -0.4160
  120SOPE  H17X12779   2.694   5.296   4.075 -0.6839 -1.2237 -1.7497
  120SOPE  H17Y12780   2.596   5.441   4.092  2.7223 -0.2555 -1.6329
  120SOPE  C31812781   2.529   5.281   3.946  0.6490  0.2573  0.8128
  120SOPE  H18X12782   2.429   5.327   3.930 -0.0596 -1.4293  0.1324
  120SOPE  H18Y12783   2.510   5.172   3.944  1.0787  0.1723  1.3466
  120SOPE  H18Z12784   2.584   5.302   3.852 -0.2497  1.2163  0.4734
  121SOPE     N12785   3.738   4.526   6.197 -0.6004  0.5081 -0.5304
  121SOPE   HN112786   3.719   4.524   6.300  4.1402 -0.4703  0.5501
  121SOPE   HN212787   3.841   4.528   6.185 -0.6160  0.9491 -0.6263
  121SOPE   HN312788   3.695   4.607   6.148 -1.6556 -0.9435 -2.0901
  121SOPE   C1212789   3.686   4.402   6.123  0.5675  0.1430 -0.1884
  121SOPE  H12A12790   3.590   4.431   6.076  1.6173  1.2201 -1.7749
  121SOPE  H12B12791   3.657   4.339   6.210 -0.8355  2.3090  0.9967
  121SOPE   C1112792   3.788   4.324   6.039 -0.4603 -0.1000 -0.3332
  121SOPE  H11A12793   3.820   4.403   5.967 -2.3907  0.3097 -0.8009
  121SOPE  H11B12794   3.727   4.243   5.994  0.8233 -0.7534 -0.9863
  121SOPE     P12795   4.032   4.353   6.119 -0.4748  0.0691 -0.1099
  121SOPE   O1312796   4.126   4.279   6.203  0.1241  0.3656  0.0635
  121SOPE   O1412797   3.995   4.487   6.162 -0.1438 -0.4182  0.7888
  121SOPE   O1212798   3.900   4.267   6.111 -0.1198  0.2448  0.7376
  121SOPE   O1112799   4.091   4.366   5.974  0.0431  0.0309  0.0567
  121SOPE    C112800   4.147   4.245   5.907  0.3948  0.0779 -0.1937
  121SOPE    HA12801   4.065   4.171   5.891  0.5502  0.2730 -2.1235
  121SOPE    HB12802   4.219   4.189   5.971 -0.3353  0.7879  1.2909
  121SOPE    C212803   4.209   4.290   5.769  0.9257  0.1372  0.9309
  121SOPE    HS12804   4.226   4.202   5.704  1.6116  0.9870 -0.0798
  121SOPE   O2112805   4.328   4.367   5.797 -0.3187  0.3181 -0.4275
  121SOPE   C2112806   4.422   4.361   5.709 -0.3610 -0.7711  0.0031
  121SOPE   O2212807   4.428   4.301   5.606 -0.1301 -0.1123  0.3451
  121SOPE   C2212808   4.524   4.465   5.750 -0.0990  1.0207  0.5069
  121SOPE   H2R12809   4.590   4.412   5.822 -0.3330 -0.0033 -0.0193
  121SOPE   H2S12810   4.481   4.555   5.800 -0.1428 -0.2283  2.8750
  121SOPE    C312811   4.107   4.372   5.678  0.4623  0.1367 -0.8092
  121SOPE    HX12812   4.084   4.454   5.749  0.8105 -1.8234  1.7060
  121SOPE    HY12813   4.019   4.306   5.670  1.2074 -0.8582 -0.9605
  121SOPE   O3112814   4.160   4.430   5.560  0.2514  0.1173  0.5278
  121SOPE   C3112815   4.116   4.362   5.450  0.0686 -0.0917  0.7059
  121SOPE   O3212816   4.030   4.277   5.447 -0.2591 -0.5159  0.1175
  121SOPE   C3212817   4.173   4.422   5.322  0.3407  0.3406 -0.2398
  121SOPE   H2X12818   4.208   4.527   5.329 -1.5755  1.1208 -1.4725
  121SOPE   H2Y12819   4.086   4.416   5.252 -0.0930  1.0421  0.2260
  121SOPE   C2312820   4.622   4.496   5.631  0.2678 -0.0531 -0.3669
  121SOPE   H3R12821   4.669   4.398   5.610  0.2038 -0.1831  0.0939
  121SOPE   H3S12822   4.711   4.541   5.680 -0.5360 -0.7973  1.9132
  121SOPE   C2412823   4.567   4.574   5.510  0.2157  0.2994 -0.6654
  121SOPE   H4R12824   4.518   4.490   5.455  2.3536 -0.8321 -0.9339
  121SOPE   H4S12825   4.496   4.654   5.539 -0.3024 -1.3788  3.3372
  121SOPE   C2512826   4.681   4.630   5.433  0.1237  0.4883  0.0914
  121SOPE   H5R12827   4.735   4.696   5.504  2.5757 -0.6237 -0.6275
  121SOPE   H5S12828   4.750   4.546   5.412 -0.8462 -0.5693  0.9627
  121SOPE   C2612829   4.650   4.724   5.318  0.1307 -0.1402 -0.4080
  121SOPE   H6R12830   4.562   4.783   5.352  0.0570 -1.2439  1.4770
  121SOPE   H6S12831   4.735   4.794   5.302  1.4687 -1.8287 -1.0924
  121SOPE   C2712832   4.620   4.655   5.184  0.4165 -0.0683 -0.8507
  121SOPE   H7R12833   4.713   4.596   5.164  0.9619 -0.0918  1.4824
  121SOPE   H7S12834   4.534   4.587   5.201 -0.4506  1.4059  1.1236
  121SOPE   C2812835   4.593   4.738   5.057 -0.0331  0.9134  0.3667
  121SOPE   H8R12836   4.495   4.790   5.070 -0.0052  0.4070  3.1932
  121SOPE   H8S12837   4.670   4.814   5.031  0.7994  0.3776  1.2066
  121SOPE   C2912838   4.578   4.633   4.943 -0.0657 -0.5947  0.0421
  121SOPE   H9112839   4.492   4.564   4.948  0.8556 -1.6739  2.2723
  121SOPE  C21012840   4.658   4.633   4.831  0.3478  0.1622 -0.3112
  121SOPE  H10112841   4.651   4.562   4.747  2.4080 -0.5589  0.0687
  121SOPE  C21112842   4.765   4.728   4.797 -0.0234 -0.6686 -0.6051
  121SOPE  H11R12843   4.858   4.672   4.771 -0.8422 -1.5861 -1.6351
  121SOPE  H11S12844   4.794   4.783   4.889  2.5833 -2.7480 -0.0373
  121SOPE  C21212845   4.723   4.828   4.686  0.2521  0.2052 -0.1706
  121SOPE  H12R12846   4.816   4.886   4.668  1.8339 -1.4817  2.0278
  121SOPE  H12S12847   4.647   4.894   4.734  1.0436  0.3900  0.8657
  121SOPE  C21312848   4.679   4.765   4.552 -0.3741 -0.4809 -0.4559
  121SOPE  H13R12849   4.608   4.680   4.550 -2.7766  1.4090 -3.5035
  121SOPE  H13S12850   4.771   4.727   4.503  1.1113  0.8230  1.1695
  121SOPE  C21412851   4.616   4.876   4.473  0.3803  0.0712  0.4702
  121SOPE  H14R12852   4.692   4.955   4.455  1.1326 -0.8616 -0.5149
  121SOPE  H14S12853   4.537   4.928   4.531  0.8317  1.3968 -0.0617
  121SOPE  C21512854   4.555   4.819   4.346  0.4684 -0.0175  0.3775
  121SOPE  H15R12855   4.444   4.820   4.352  0.3397 -2.4912 -0.3992
  121SOPE  H15S12856   4.588   4.714   4.334  1.7660  0.3691  0.4330
  121SOPE  C21612857   4.597   4.892   4.217 -0.6755 -0.0929 -0.2789
  121SOPE  H16R12858   4.565   4.998   4.220  1.5890  0.6158 -0.0670
  121SOPE  H16S12859   4.530   4.844   4.142 -0.2419 -2.1445  0.5769
  121SOPE  C21712860   4.746   4.882   4.180  0.1606 -0.5199  0.3527
  121SOPE  H17R12861   4.797   4.929   4.266 -0.0595 -0.9589  0.7266
  121SOPE  H17S12862   4.764   4.942   4.088  0.1376 -0.3670  0.4478
  121SOPE  C21812863   4.798   4.743   4.151  0.4554  0.1007  0.0030
  121SOPE  H18R12864   4.895   4.732   4.099 -0.0875 -1.6068 -0.7403
  121SOPE  H18S12865   4.725   4.686   4.090  1.4276  0.4214 -1.5073
  121SOPE  H18T12866   4.803   4.700   4.253  1.6498  0.5618  0.1577
  121SOPE   C3312867   4.296   4.339   5.264 -0.0213 -0.3100  0.5662
  121SOPE   H3X12868   4.371   4.340   5.346  0.2047 -1.1474  0.3690
  121SOPE   H3Y12869   4.333   4.408   5.185 -1.5573  0.1673  0.2295
  121SOPE   C3412870   4.267   4.196   5.215  0.2059 -0.7678 -0.4065
  121SOPE   H4X12871   4.248   4.140   5.310  0.5520 -1.4254 -0.7160
  121SOPE   H4Y12872   4.355   4.152   5.164  0.0132 -1.8649  0.1483
  121SOPE   C3512873   4.151   4.180   5.123  0.0440 -0.4957 -0.1039
  121SOPE   H5X12874   4.162   4.253   5.040 -1.2216  2.3221  2.0095
  121SOPE   H5Y12875   4.057   4.218   5.167  1.3128  2.1522  0.5562
  121SOPE   C3612876   4.131   4.040   5.069  0.8593 -0.6051 -0.4028
  121SOPE   H6X12877   4.064   3.983   5.137  0.9677 -1.1490 -0.7434
  121SOPE   H6Y12878   4.226   3.984   5.058  0.4058 -1.2124 -1.5218
  121SOPE   C3712879   4.072   4.057   4.925  0.3598  0.2583 -0.5258
  121SOPE   H7X12880   4.158   4.087   4.861  1.8289 -1.3923  0.5765
  121SOPE   H7Y12881   3.994   4.136   4.922 -0.3796 -0.4963 -2.0100
  121SOPE   C3812882   4.013   3.935   4.864 -0.1992 -0.0680  0.0651
  121SOPE   H8X12883   3.952   3.887   4.944 -1.8665  0.2358 -0.9825
  121SOPE   H8Y12884   4.092   3.863   4.833  1.4261  2.0528 -1.0122
  121SOPE   C3912885   3.918   3.965   4.739  0.0074 -0.0458  0.1006
  121SOPE   H9X12886   3.831   4.029   4.763 -0.7745 -0.9985 -0.1130
  121SOPE   H9Y12887   3.878   3.877   4.684  1.3563  0.2192 -1.3678
  121SOPE  C31012888   3.990   4.061   4.636  0.0745  0.0176  0.1122
  121SOPE  H10X12889   4.096   4.029   4.634  0.4761  1.3495 -0.8432
  121SOPE  H10Y12890   3.988   4.165   4.675  1.7037  0.3300 -0.5854
  121SOPE  C31112891   3.929   4.054   4.493 -0.3637 -0.4492 -0.8639
  121SOPE  H11X12892   3.819   4.065   4.495 -0.3596  0.2066  2.5616
  121SOPE  H11Y12893   3.951   3.955   4.448 -0.6113 -0.5169 -0.8369
  121SOPE  C31212894   3.993   4.157   4.408  0.0033 -0.3829 -0.0320
  121SOPE  H12X12895   4.104   4.161   4.408  0.1837 -2.7771  2.1054
  121SOPE  H12Y12896   3.962   4.252   4.457 -1.5195 -0.6035 -0.5245
  121SOPE  C31312897   3.952   4.137   4.256 -0.0744  0.5179 -0.1888
  121SOPE  H13X12898   3.842   4.133   4.249 -0.2479  0.1216  2.1327
  121SOPE  H13Y12899   3.983   4.035   4.225  0.3131  0.5070  0.2229
  121SOPE  C31412900   4.011   4.240   4.160 -0.6766  0.1646 -0.7514
  121SOPE  H14X12901   4.120   4.240   4.178 -0.7016  1.7490 -0.5168
  121SOPE  H14Y12902   3.970   4.338   4.192 -1.3696 -1.0285  2.4688
  121SOPE  C31512903   3.987   4.196   4.019 -0.2079  0.3172 -0.1440
  121SOPE  H15X12904   4.010   4.280   3.951 -0.2240 -0.2989 -0.9202
  121SOPE  H15Y12905   3.880   4.174   3.999  0.2587 -0.5143 -1.8841
  121SOPE  C31612906   4.076   4.074   3.984 -0.1959  0.1767 -0.6514
  121SOPE  H16X12907   4.066   3.987   4.053  0.8367 -0.7121 -1.5904
  121SOPE  H16Y12908   4.182   4.101   4.003  0.0564 -1.3254  0.2500
  121SOPE  C31712909   4.062   4.022   3.837 -0.0356  0.3831  0.1436
  121SOPE  H17X12910   4.057   4.111   3.771 -0.2521  2.0002  2.2508
  121SOPE  H17Y12911   3.964   3.971   3.827  0.2033  0.0192 -0.3638
  121SOPE  C31812912   4.176   3.927   3.801 -0.5783 -0.0302  0.1107
  121SOPE  H18X12913   4.272   3.973   3.769  1.3043 -1.2453  3.4956
  121SOPE  H18Y12914   4.147   3.869   3.711 -1.2224  0.5066 -0.0370
  121SOPE  H18Z12915   4.195   3.845   3.874  0.6367 -2.3584 -2.6585
  122SOPE     N12916   5.875   5.366   6.327  0.5108 -1.0609 -0.3366
  122SOPE   HN112917   5.877   5.311   6.239 -0.6634  0.0231 -1.0822
  122SOPE   HN212918   5.784   5.413   6.350  0.8233 -0.7847  0.3719
  122SOPE   HN312919   5.952   5.436   6.333 -0.8847  0.4540  1.4449
  122SOPE   C1212920   5.893   5.271   6.444 -0.1674  0.2295 -0.5577
  122SOPE  H12A12921   5.901   5.330   6.538  1.0176 -1.4648  0.4492
  122SOPE  H12B12922   5.983   5.209   6.427  0.0843  0.5411 -0.3891
  122SOPE   C1112923   5.765   5.182   6.471 -0.0759  0.0552  0.0494
  122SOPE  H11A12924   5.789   5.125   6.564  0.5892 -0.4825 -0.4353
  122SOPE  H11B12925   5.750   5.112   6.386  0.1413 -0.9671  0.8355
  122SOPE     P12926   5.512   5.203   6.480  0.0142 -0.1258 -0.1886
  122SOPE   O1312927   5.415   5.304   6.527 -0.8245  0.4276  0.1424
  122SOPE   O1412928   5.517   5.080   6.558 -0.0766 -0.4349  0.6227
  122SOPE   O1212929   5.654   5.268   6.490  0.0426  0.0518  0.2766
  122SOPE   O1112930   5.504   5.168   6.325 -0.3173  0.7117 -0.4292
  122SOPE    C112931   5.460   5.262   6.231 -0.2043  0.3426  0.7246
  122SOPE    HA12932   5.544   5.333   6.213  0.5446 -0.2489  1.8142
  122SOPE    HB12933   5.378   5.326   6.271 -0.5389 -0.3071  1.0864
  122SOPE    C212934   5.396   5.187   6.110 -0.3686 -0.9568  0.2064
  122SOPE    HS12935   5.470   5.136   6.045  2.0887  1.0634  1.2224
  122SOPE   O2112936   5.322   5.281   6.034 -0.3544  0.0857 -0.0238
  122SOPE   C2112937   5.395   5.372   5.980  0.5667  0.6737  0.0525
  122SOPE   O2212938   5.514   5.372   5.981 -0.4172 -0.7777 -0.7577
  122SOPE   C2212939   5.304   5.479   5.913 -0.1461  0.2723 -0.1695
  122SOPE   H2R12940   5.332   5.576   5.958  0.9021 -0.0250 -0.1533
  122SOPE   H2S12941   5.197   5.456   5.933  0.1850 -0.0034  1.3736
  122SOPE    C312942   5.293   5.074   6.153 -0.0635 -0.1570 -0.1020
  122SOPE    HX12943   5.226   5.135   6.216  1.4432 -0.4714  1.9393
  122SOPE    HY12944   5.344   5.003   6.223  0.2955 -0.3579 -0.5621
  122SOPE   O3112945   5.241   5.001   6.048  0.0880 -0.3549  0.3930
  122SOPE   C3112946   5.136   5.048   5.987  0.3863  0.0212 -0.1333
  122SOPE   O3212947   5.069   5.145   6.024  0.7303  0.1441  0.5789
  122SOPE   C3212948   5.102   4.954   5.868  0.3887 -0.1655 -0.5107
  122SOPE   H2X12949   5.061   4.862   5.914 -1.8331  1.1436  0.2484
  122SOPE   H2Y12950   5.198   4.933   5.815  0.7404  1.0399 -0.3756
  122SOPE   C2312951   5.336   5.478   5.764 -0.0701 -0.4291  0.3736
  122SOPE   H3R12952   5.446   5.475   5.752  0.0055 -0.6175  1.0778
  122SOPE   H3S12953   5.289   5.565   5.714  0.7361 -0.2533 -0.1018
  122SOPE   C2412954   5.266   5.359   5.693  0.2115  0.3299  0.1409
  122SOPE   H4R12955   5.276   5.264   5.750  2.8013 -0.4189 -1.3860
  122SOPE   H4S12956   5.159   5.383   5.678  0.3300 -0.4654 -2.6492
  122SOPE   C2512957   5.324   5.318   5.553 -0.2477  0.1016 -0.6791
  122SOPE   H5R12958   5.305   5.398   5.479  0.6102  0.5107 -0.4763
  122SOPE   H5S12959   5.435   5.315   5.564 -0.5041 -1.1588  2.7165
  122SOPE   C2612960   5.273   5.182   5.505  0.2475  0.5257 -0.3216
  122SOPE   H6R12961   5.339   5.153   5.420  3.3067  0.3602  1.9190
  122SOPE   H6S12962   5.274   5.103   5.582 -1.7061 -1.3489 -2.0881
  122SOPE   C2712963   5.129   5.184   5.447 -0.5942 -0.3946  0.1853
  122SOPE   H7R12964   5.056   5.216   5.524  0.7571  2.2769  0.4817
  122SOPE   H7S12965   5.124   5.267   5.373 -2.0320 -1.2545 -0.7314
  122SOPE   C2812966   5.072   5.059   5.384 -0.0617 -0.0796  0.7187
  122SOPE   H8R12967   5.083   4.981   5.463  0.3271 -1.3922 -0.5983
  122SOPE   H8S12968   4.962   5.072   5.376  0.2380  2.3340 -0.3935
  122SOPE   C2912969   5.130   5.016   5.256  0.3572  0.1749 -0.1465
  122SOPE   H9112970   5.233   4.978   5.254  1.4126  2.7986  0.1474
  122SOPE  C21012971   5.052   4.989   5.151 -0.3968  0.3765  0.1856
  122SOPE  H10112972   5.100   4.958   5.058  0.3296  2.2956 -0.1285
  122SOPE  C21112973   4.908   5.016   5.122 -0.0584 -0.3407  0.0278
  122SOPE  H11R12974   4.861   5.081   5.198  0.8761 -0.1823  0.4906
  122SOPE  H11S12975   4.846   4.924   5.122  0.1525 -0.5324 -2.3785
  122SOPE  C21212976   4.885   5.083   4.982 -0.0647 -0.1386 -0.3878
  122SOPE  H12R12977   4.918   5.012   4.903  1.9397  0.2120  0.0733
  122SOPE  H12S12978   4.950   5.173   4.980 -3.4987  2.5509 -0.1586
  122SOPE  C21312979   4.741   5.132   4.969 -0.1069  0.0953 -0.3519
  122SOPE  H13R12980   4.706   5.200   5.050 -0.5814  0.2345 -0.6632
  122SOPE  H13S12981   4.674   5.045   4.987  1.0549 -0.9248 -0.7862
  122SOPE  C21412982   4.712   5.212   4.846 -0.5485 -0.0380 -0.3332
  122SOPE  H14R12983   4.739   5.141   4.765 -4.0805 -0.4425 -1.3239
  122SOPE  H14S12984   4.785   5.295   4.843 -0.7400  0.1524  0.0835
  122SOPE  C21512985   4.569   5.264   4.834  0.3011  0.5471  0.8456
  122SOPE  H15R12986   4.550   5.348   4.904 -0.0945  1.6787 -0.5731
  122SOPE  H15S12987   4.497   5.182   4.855 -1.1138  1.7347  0.7413
  122SOPE  C21612988   4.552   5.311   4.690 -0.4063 -0.7423 -0.6964
  122SOPE  H16R12989   4.632   5.376   4.649  0.8469 -1.5859  0.3462
  122SOPE  H16S12990   4.457   5.370   4.693  0.8684  1.3839  1.7944
  122SOPE  C21712991   4.533   5.199   4.592 -0.1851 -0.3260 -0.2668
  122SOPE  H17R12992   4.441   5.141   4.614 -0.5019 -0.5096 -1.9614
  122SOPE  H17S12993   4.622   5.134   4.608  2.4595  3.2496  1.0885
  122SOPE  C21812994   4.533   5.253   4.454 -0.4446  0.2787  0.3885
  122SOPE  H18R12995   4.471   5.346   4.455 -0.8232  0.0603 -1.0198
  122SOPE  H18S12996   4.487   5.180   4.384  1.4029 -1.8432  1.2672
  122SOPE  H18T12997   4.634   5.271   4.413 -0.0813 -4.4517 -1.4188
  122SOPE   C3312998   4.985   5.002   5.778 -0.4715 -0.0962  0.7428
  122SOPE   H3X12999   5.031   5.057   5.693 -0.0381 -2.0157 -0.3270
  122SOPE   H3Y13000   4.920   5.067   5.840 -0.3697  0.4797  0.2561
  122SOPE   C3413001   4.890   4.901   5.715 -0.3480 -0.2517 -0.2946
  122SOPE   H4X13002   4.879   4.832   5.801  2.0577 -0.9406 -0.4704
  122SOPE   H4Y13003   4.936   4.856   5.625 -0.9209  2.2773 -1.9591
  122SOPE   C3513004   4.755   4.968   5.677 -0.2545 -0.1868 -0.3971
  122SOPE   H5X13005   4.757   5.051   5.750  1.3391 -0.3505 -0.2266
  122SOPE   H5Y13006   4.668   4.905   5.705 -0.0186 -0.4973 -0.3568
  122SOPE   C3613007   4.760   5.024   5.536  0.3861 -0.4191  0.4416
  122SOPE   H6X13008   4.782   4.951   5.455 -2.1596 -0.8289  0.0292
  122SOPE   H6Y13009   4.838   5.103   5.531 -1.2023  1.4790  3.0525
  122SOPE   C3713010   4.628   5.086   5.504  0.1061  0.0172 -0.1561
  122SOPE   H7X13011   4.608   5.163   5.582 -1.7204  0.6577 -1.1970
  122SOPE   H7Y13012   4.553   5.007   5.523  1.1253 -0.0355  5.2979
  122SOPE   C3813013   4.607   5.141   5.362  0.4152 -0.5383 -0.4113
  122SOPE   H8X13014   4.608   5.066   5.280 -1.4176  0.4698 -1.4359
  122SOPE   H8Y13015   4.684   5.216   5.335  0.7336 -1.2979 -1.7365
  122SOPE   C3913016   4.476   5.223   5.358  0.8332 -0.0925  0.6386
  122SOPE   H9X13017   4.478   5.295   5.441  3.5168  1.4394 -0.6250
  122SOPE   H9Y13018   4.395   5.148   5.367  2.3559 -2.2452 -1.9354
  122SOPE  C31013019   4.452   5.291   5.221 -0.3192 -0.1913 -0.2065
  122SOPE  H10X13020   4.470   5.221   5.136  0.0796  1.0789 -1.1900
  122SOPE  H10Y13021   4.533   5.363   5.198 -0.8134  0.3434 -0.2857
  122SOPE  C31113022   4.308   5.354   5.203  0.1197  0.6506  0.3908
  122SOPE  H11X13023   4.283   5.425   5.284 -1.8918 -1.4155  1.6916
  122SOPE  H11Y13024   4.240   5.266   5.206 -1.1622  1.4203 -2.4871
  122SOPE  C31213025   4.290   5.407   5.063 -0.5332 -0.2108  0.0447
  122SOPE  H12X13026   4.315   5.328   4.990  0.9817 -1.9887  2.3354
  122SOPE  H12Y13027   4.372   5.482   5.064 -0.2469 -0.5239  0.1491
  122SOPE  C31313028   4.153   5.479   5.032 -0.4026 -0.1884  0.2693
  122SOPE  H13X13029   4.180   5.580   5.070  0.5016 -1.4833  3.4034
  122SOPE  H13Y13030   4.074   5.433   5.095  0.2290 -0.3989  0.9218
  122SOPE  C31413031   4.110   5.466   4.892 -0.2804 -0.6023 -0.2337
  122SOPE  H14X13032   4.014   5.519   4.877  0.4130  0.2674 -1.8588
  122SOPE  H14Y13033   4.094   5.359   4.867 -1.1361 -0.4503 -0.3555
  122SOPE  C31513034   4.215   5.522   4.796 -0.3435 -0.4923  0.0221
  122SOPE  H15X13035   4.307   5.459   4.788  0.7110  1.0104 -0.2316
  122SOPE  H15Y13036   4.230   5.629   4.823  4.1846 -1.3538  1.9947
  122SOPE  C31613037   4.170   5.520   4.651 -0.2505  0.1922  0.2674
  122SOPE  H16X13038   4.254   5.555   4.588  0.3383 -0.1137  0.8765
  122SOPE  H16Y13039   4.092   5.598   4.640  0.9554  1.3693 -0.1591
  122SOPE  C31713040   4.131   5.385   4.590  0.1143 -0.3525 -0.9549
  122SOPE  H17X13041   4.026   5.373   4.622  0.2512 -0.5581 -0.5809
  122SOPE  H17Y13042   4.194   5.303   4.631 -0.9759  0.0656  1.7305
  122SOPE  C31813043   4.141   5.375   4.437  0.3107 -0.1878 -0.7226
  122SOPE  H18X13044   4.161   5.267   4.424 -1.7352 -1.0521  2.1772
  122SOPE  H18Y13045   4.227   5.435   4.399  1.7029  0.2996  2.7971
  122SOPE  H18Z13046   4.046   5.406   4.389 -0.7909 -1.6021  0.4270
  123SOPE     N13047   1.974   5.773   1.502  0.7483 -0.7819 -0.8236
  123SOPE   HN113048   1.904   5.705   1.464 -0.0143 -1.7460  2.0722
  123SOPE   HN213049   2.053   5.756   1.437  1.0532  2.2998 -1.4055
  123SOPE   HN313050   2.000   5.735   1.595  1.1690 -0.1045 -0.6553
  123SOPE   C1213051   1.944   5.922   1.490 -0.2009  0.4824  0.3306
  123SOPE  H12A13052   1.841   5.950   1.520  0.4536  1.6395  1.5604
  123SOPE  H12B13053   1.967   5.943   1.383  3.4714  0.5613  0.9979
  123SOPE   C1113054   2.044   6.005   1.585  0.7135 -0.5114 -0.2822
  123SOPE  H11A13055   1.999   6.003   1.687 -1.4068 -1.0140 -1.1544
  123SOPE  H11B13056   2.038   6.114   1.564 -2.6315 -0.5683 -0.2266
  123SOPE     P13057   2.312   6.027   1.578  0.0881 -0.2074 -0.1597
  123SOPE   O1313058   2.314   6.122   1.464 -0.1857  0.2858  0.3908
  123SOPE   O1413059   2.419   5.928   1.591 -0.2098 -0.2556  0.5222
  123SOPE   O1213060   2.175   5.949   1.588 -0.4154 -0.3209 -0.3028
  123SOPE   O1113061   2.320   6.115   1.714  1.2037  0.5851  0.2402
  123SOPE    C113062   2.274   6.057   1.834 -0.9009  0.6286  0.1634
  123SOPE    HA13063   2.201   5.974   1.825  0.2069 -0.2212 -1.5136
  123SOPE    HB13064   2.230   6.140   1.893 -2.5714  0.1656 -0.3713
  123SOPE    C213065   2.390   5.988   1.916 -0.8426 -0.2707 -0.3247
  123SOPE    HS13066   2.417   5.895   1.862  1.6631 -0.0553  0.4005
  123SOPE   O2113067   2.329   5.959   2.049  0.6867 -0.1331  0.5532
  123SOPE   C2113068   2.368   5.854   2.110 -0.1539 -0.0979  1.4317
  123SOPE   O2213069   2.456   5.781   2.068 -0.1871  0.3940 -0.3429
  123SOPE   C2213070   2.290   5.851   2.249  0.2893 -0.2731 -0.1201
  123SOPE   H2R13071   2.230   5.758   2.236  1.8891 -1.5123  1.0068
  123SOPE   H2S13072   2.219   5.937   2.250 -0.5799 -0.9234 -1.6316
  123SOPE    C313073   2.504   6.091   1.933  0.3786 -0.8373  0.0413
  123SOPE    HX13074   2.469   6.192   1.962  2.1654 -0.0281 -0.4342
  123SOPE    HY13075   2.553   6.110   1.835 -1.3124  1.8376 -0.3916
  123SOPE   O3113076   2.600   6.043   2.030 -0.0223 -0.1049  0.2025
  123SOPE   C3113077   2.679   5.949   1.991  0.1826 -0.0005  0.0362
  123SOPE   O3213078   2.692   5.921   1.871  0.2478  0.3958  0.2306
  123SOPE   C3213079   2.771   5.889   2.097  0.3629 -0.0384  0.2870
  123SOPE   H2X13080   2.877   5.908   2.073  0.0669  1.5398  0.1045
  123SOPE   H2Y13081   2.741   5.782   2.091 -2.8825  0.7567  0.1359
  123SOPE   C2313082   2.388   5.835   2.366  0.0264  0.9424  0.3360
  123SOPE   H3R13083   2.450   5.926   2.376 -0.2378  1.0747  0.8116
  123SOPE   H3S13084   2.451   5.747   2.340  0.1092  1.6592 -2.1224
  123SOPE   C2413085   2.316   5.808   2.500  0.1087 -0.3799 -0.8938
  123SOPE   H4R13086   2.259   5.898   2.532 -0.2481 -0.6378 -0.7937
  123SOPE   H4S13087   2.241   5.727   2.485  0.0068  0.0406 -2.8652
  123SOPE   C2513088   2.405   5.764   2.612 -0.2691 -1.0209  0.4699
  123SOPE   H5R13089   2.434   5.660   2.587 -2.7925 -1.1606 -2.6038
  123SOPE   H5S13090   2.484   5.841   2.613 -0.9828 -0.2823  0.9154
  123SOPE   C2613091   2.337   5.740   2.747  0.3588 -0.3534  1.4486
  123SOPE   H6R13092   2.276   5.829   2.774  0.7181 -0.0064  1.1424
  123SOPE   H6S13093   2.263   5.660   2.728  0.3686  0.0267 -0.3370
  123SOPE   C2713094   2.431   5.688   2.858  0.0651 -0.4716  0.5324
  123SOPE   H7R13095   2.487   5.602   2.815  0.4037 -0.3988  0.8223
  123SOPE   H7S13096   2.517   5.756   2.876  0.9494 -1.7350  1.3175
  123SOPE   C2813097   2.361   5.654   2.988 -0.1426 -0.2847 -0.7327
  123SOPE   H8R13098   2.301   5.738   3.027  2.3684  0.1533  2.5880
  123SOPE   H8S13099   2.306   5.558   2.981  0.7233 -0.7916 -0.8119
  123SOPE   C2913100   2.471   5.629   3.088  0.3672 -0.1587 -0.1985
  123SOPE   H9113101   2.573   5.636   3.047 -0.0136 -2.5214 -1.6937
  123SOPE  C21013102   2.463   5.587   3.214  0.2515  0.0350  0.1078
  123SOPE  H10113103   2.550   5.584   3.280  0.4398 -1.4799 -0.1699
  123SOPE  C21113104   2.331   5.569   3.285  0.2694 -0.4399  0.3014
  123SOPE  H11R13105   2.248   5.562   3.212  0.3922 -2.3448  0.3127
  123SOPE  H11S13106   2.317   5.668   3.335 -0.4016 -0.5529  0.3462
  123SOPE  C21213107   2.319   5.458   3.383  0.9016  0.9626 -0.0967
  123SOPE  H12R13108   2.315   5.362   3.327 -1.8724  0.0235  1.5214
  123SOPE  H12S13109   2.215   5.473   3.419 -0.3414  1.4771 -3.4843
  123SOPE  C21313110   2.421   5.461   3.492  0.3712 -0.5312 -0.1412
  123SOPE  H13R13111   2.521   5.439   3.447  0.0883  0.1963 -1.1817
  123SOPE  H13S13112   2.398   5.377   3.560  0.5143 -0.8277 -0.4572
  123SOPE  C21413113   2.422   5.595   3.569  0.0297  0.7000 -0.7432
  123SOPE  H14R13114   2.324   5.645   3.583  0.2702  1.1583 -0.6928
  123SOPE  H14S13115   2.479   5.674   3.516  1.9425  0.4211  0.7365
  123SOPE  C21513116   2.487   5.584   3.712  0.2877 -0.6885  0.2857
  123SOPE  H15R13117   2.597   5.565   3.706  0.3176 -0.5043  0.2621
  123SOPE  H15S13118   2.448   5.500   3.773  0.9032  0.1212  1.8474
  123SOPE  C21613119   2.475   5.707   3.801  0.6825  0.7912  0.4339
  123SOPE  H16R13120   2.369   5.731   3.823 -0.5096 -0.2687 -3.3681
  123SOPE  H16S13121   2.519   5.792   3.744  1.9735 -0.4578 -0.5063
  123SOPE  C21713122   2.547   5.698   3.937  0.1680  0.3043  0.3715
  123SOPE  H17R13123   2.647   5.653   3.920  0.4529  1.2590 -0.6226
  123SOPE  H17S13124   2.502   5.630   4.011  4.3191 -2.3948  0.7215
  123SOPE  C21813125   2.564   5.834   4.002  0.4733 -0.4404  0.2613
  123SOPE  H18R13126   2.463   5.879   4.012  1.2980  1.5758 -0.0877
  123SOPE  H18S13127   2.630   5.900   3.943 -1.1656 -0.6249 -1.9037
  123SOPE  H18T13128   2.598   5.829   4.108 -0.2235  1.1980  0.5967
  123SOPE   C3313129   2.730   5.922   2.246 -0.7303 -0.5355 -0.8019
  123SOPE   H3X13130   2.627   5.887   2.269 -0.3176 -0.5692  1.2105
  123SOPE   H3Y13131   2.731   6.032   2.259 -0.1093 -0.5949 -0.2690
  123SOPE   C3413132   2.839   5.859   2.342  0.2564 -0.5146 -0.2198
  123SOPE   H4X13133   2.936   5.914   2.336  0.5343 -0.6800  1.9514
  123SOPE   H4Y13134   2.846   5.752   2.313 -0.2975 -0.6847  0.2561
  123SOPE   C3513135   2.785   5.867   2.488 -0.1009  0.5327 -1.0443
  123SOPE   H5X13136   2.681   5.829   2.487 -0.4874  1.2095  2.4483
  123SOPE   H5Y13137   2.796   5.970   2.528  1.3215  0.4473 -1.1616
  123SOPE   C3613138   2.866   5.772   2.580 -0.2460 -0.5782  0.4908
  123SOPE   H6X13139   2.970   5.808   2.568 -1.5011  3.5422  0.3953
  123SOPE   H6Y13140   2.857   5.665   2.553  0.5630 -0.4511 -0.2906
  123SOPE   C3713141   2.827   5.806   2.730 -0.5133 -0.2070 -0.2810
  123SOPE   H7X13142   2.718   5.790   2.742 -0.0365 -2.4204  1.9210
  123SOPE   H7Y13143   2.867   5.903   2.767 -0.2363 -0.1839 -0.6414
  123SOPE   C3813144   2.891   5.701   2.830  0.5969 -0.0413  0.6345
  123SOPE   H8X13145   3.001   5.690   2.815  0.2261 -1.6142 -1.3133
  123SOPE   H8Y13146   2.856   5.604   2.787 -0.0809  1.1691 -1.6763
  123SOPE   C3913147   2.847   5.733   2.974  0.0474 -0.1603  0.1145
  123SOPE   H9X13148   2.739   5.709   2.977  0.0763 -0.6427 -1.6709
  123SOPE   H9Y13149   2.868   5.840   2.993 -2.2236  0.7133 -1.8281
  123SOPE  C31013150   2.920   5.641   3.072  0.2654  0.2894 -1.1730
  123SOPE  H10X13151   3.030   5.655   3.079  0.5294 -2.3005  1.5616
  123SOPE  H10Y13152   2.908   5.535   3.043 -0.2348  0.1898 -0.6162
  123SOPE  C31113153   2.866   5.653   3.220 -0.0106 -1.1290  0.3286
  123SOPE  H11X13154   2.757   5.636   3.235  0.1243 -0.1404  3.0907
  123SOPE  H11Y13155   2.884   5.760   3.245 -1.3197 -1.1932  1.7153
  123SOPE  C31213156   2.953   5.575   3.317  0.0574 -0.6071  0.0196
  123SOPE  H12X13157   3.058   5.609   3.302  0.2869 -1.0782  0.4884
  123SOPE  H12Y13158   2.933   5.467   3.296 -2.3350  0.0566 -1.4023
  123SOPE  C31313159   2.919   5.586   3.461 -0.2040  0.5006 -0.1475
  123SOPE  H13X13160   2.813   5.556   3.473  0.3563 -2.1001 -1.1095
  123SOPE  H13Y13161   2.938   5.690   3.496  1.7547  0.8694 -2.0736
  123SOPE  C31413162   3.007   5.499   3.554 -0.3000  0.0209  0.1500
  123SOPE  H14X13163   3.113   5.525   3.537  0.3638  0.0680  3.6193
  123SOPE  H14Y13164   2.986   5.393   3.527 -3.3345  0.0613  1.8745
  123SOPE  C31513165   2.969   5.519   3.699 -0.2425  0.2920 -0.7002
  123SOPE  H15X13166   2.864   5.486   3.714  0.1529 -0.9506 -0.5111
  123SOPE  H15Y13167   2.983   5.621   3.740  1.5722  0.1328 -0.8427
  123SOPE  C31613168   3.059   5.419   3.792  0.5700 -0.5586 -0.2738
  123SOPE  H16X13169   3.164   5.452   3.780 -0.0654  1.2304 -1.1716
  123SOPE  H16Y13170   3.035   5.320   3.747 -0.4044  1.1572 -3.9595
  123SOPE  C31713171   3.013   5.438   3.938  0.7709  0.1589 -0.3579
  123SOPE  H17X13172   2.918   5.381   3.945  0.2504  1.0784  0.2298
  123SOPE  H17Y13173   2.985   5.544   3.955  1.1345  0.4686 -1.5717
  123SOPE  C31813174   3.125   5.389   4.041  0.0605  0.5073  0.1949
  123SOPE  H18X13175   3.142   5.279   4.043  1.8741  0.7021 -1.3894
  123SOPE  H18Y13176   3.092   5.429   4.139 -1.2777  0.1851 -0.1013
  123SOPE  H18Z13177   3.217   5.447   4.019  1.2001 -0.6019  1.8157
  124SOPE     N13178   5.420   5.031   2.195  0.2527 -0.3865 -0.7079
  124SOPE   HN113179   5.488   5.108   2.178 -0.6435  0.6369  0.1672
  124SOPE   HN213180   5.434   5.001   2.294  0.9553  2.2139  0.0460
  124SOPE   HN313181   5.442   4.950   2.133  0.8805 -0.6110 -0.2081
  124SOPE   C1213182   5.281   5.077   2.179  0.2920  0.2232 -0.3443
  124SOPE  H12A13183   5.265   5.176   2.227  2.5249  1.5938 -2.1970
  124SOPE  H12B13184   5.212   5.001   2.221 -1.1256  2.2537  1.2397
  124SOPE   C1113185   5.261   5.108   2.033 -0.1996 -0.4948  0.8376
  124SOPE  H11A13186   5.155   5.113   2.001  0.0645  1.3889  0.1297
  124SOPE  H11B13187   5.304   5.022   1.977 -1.8556 -1.1669  0.5363
  124SOPE     P13188   5.296   5.359   1.951 -0.0528  0.2263 -0.2422
  124SOPE   O1313189   5.175   5.355   1.870 -0.0542 -0.0599 -0.0588
  124SOPE   O1413190   5.409   5.427   1.890 -0.5031  0.6446  0.2370
  124SOPE   O1213191   5.348   5.218   1.985 -0.2261  0.6827 -0.4077
  124SOPE   O1113192   5.271   5.428   2.096 -0.6660  0.4407  0.0970
  124SOPE    C113193   5.363   5.518   2.154 -0.1553  0.1393 -0.3244
  124SOPE    HA13194   5.397   5.590   2.076  0.6553  2.2929  1.8813
  124SOPE    HB13195   5.453   5.464   2.190 -0.2348  0.1329 -0.1306
  124SOPE    C213196   5.286   5.602   2.266  0.1474  0.3991 -0.3390
  124SOPE    HS13197   5.194   5.648   2.224 -0.5856 -2.0805 -1.6669
  124SOPE   O2113198   5.380   5.692   2.331 -0.0087 -0.2549  0.6088
  124SOPE   C2113199   5.402   5.814   2.292  0.4441  0.1900  0.2293
  124SOPE   O2213200   5.339   5.865   2.199  0.4630 -0.3178 -0.4241
  124SOPE   C2213201   5.512   5.878   2.372  1.2802 -0.3947  0.0408
  124SOPE   H2R13202   5.535   5.970   2.314 -1.6082 -0.2839 -1.1367
  124SOPE   H2S13203   5.597   5.809   2.389  0.7888 -0.6449  1.5886
  124SOPE    C313204   5.233   5.500   2.372  0.2856 -0.1427  0.0513
  124SOPE    HX13205   5.314   5.436   2.413  0.1971 -0.4123 -0.1962
  124SOPE    HY13206   5.149   5.442   2.327 -3.1657  2.1291  2.9611
  124SOPE   O3113207   5.176   5.567   2.488 -0.8822 -0.2173  0.4295
  124SOPE   C3113208   5.060   5.627   2.472  0.5993  0.0947 -0.6191
  124SOPE   O3213209   4.982   5.617   2.380 -0.5231 -0.2837  0.0087
  124SOPE   C3213210   5.032   5.698   2.597 -0.5080  0.4881  0.3898
  124SOPE   H2X13211   5.123   5.753   2.628  0.3124 -1.2230  1.1379
  124SOPE   H2Y13212   5.023   5.616   2.671  0.7542 -0.2955 -0.2948
  124SOPE   C2313213   5.461   5.933   2.507  0.4110 -0.2057 -0.0014
  124SOPE   H3R13214   5.553   5.952   2.567  0.9918 -2.2866 -0.1532
  124SOPE   H3S13215   5.407   5.843   2.543  2.3001 -1.2201  0.4360
  124SOPE   C2413216   5.357   6.041   2.498  0.4709  0.1101 -0.5059
  124SOPE   H4R13217   5.414   6.127   2.457 -0.3865  1.1782  0.5144
  124SOPE   H4S13218   5.271   6.014   2.433  0.9119  0.0454 -1.0787
  124SOPE   C2513219   5.287   6.100   2.626  0.0218  0.1927 -0.7294
  124SOPE   H5R13220   5.240   6.199   2.609 -0.5891  0.5603  2.5264
  124SOPE   H5S13221   5.217   6.022   2.664 -0.5437  1.0560  0.0457
  124SOPE   C2613222   5.378   6.132   2.747 -0.6301  0.6064 -0.3625
  124SOPE   H6R13223   5.463   6.061   2.754 -1.1825 -0.0459 -0.0325
  124SOPE   H6S13224   5.421   6.231   2.721 -0.3083  0.3972 -0.6279
  124SOPE   C2713225   5.302   6.119   2.879  0.4667 -0.4211 -0.8081
  124SOPE   H7R13226   5.367   6.167   2.955 -0.2539  2.6352 -1.9899
  124SOPE   H7S13227   5.204   6.166   2.854  0.1248 -0.3033  0.7063
  124SOPE   C2813228   5.291   5.969   2.916 -0.3749 -0.1442  0.1298
  124SOPE   H8R13229   5.249   5.920   2.826  0.8111 -0.3022 -0.3519
  124SOPE   H8S13230   5.396   5.935   2.934 -0.0860 -0.0593 -1.2643
  124SOPE   C2913231   5.201   5.942   3.035  0.9243  0.0269  0.2498
  124SOPE   H9113232   5.109   6.002   3.028 -0.6125 -2.2491  0.1246
  124SOPE  C21013233   5.226   5.861   3.142 -0.1633 -0.8657 -0.4759
  124SOPE  H10113234   5.151   5.856   3.223 -0.4200 -1.3173 -0.7351
  124SOPE  C21113235   5.345   5.764   3.147  0.2531  0.6930 -0.3201
  124SOPE  H11R13236   5.399   5.756   3.050  0.0863 -0.3482 -0.3419
  124SOPE  H11S13237   5.307   5.663   3.174 -0.0123  0.6863 -0.7101
  124SOPE  C21213238   5.451   5.807   3.251  0.5404 -0.3883 -0.5416
  124SOPE  H12R13239   5.396   5.812   3.348  1.4087 -2.4650  0.1135
  124SOPE  H12S13240   5.487   5.909   3.228 -0.2708 -0.1359 -0.7189
  124SOPE  C21313241   5.565   5.707   3.277 -0.8747 -0.3056  0.2930
  124SOPE  H13R13242   5.537   5.604   3.308 -0.4248 -0.3630  0.5084
  124SOPE  H13S13243   5.622   5.749   3.363  0.6684 -3.2560  0.8516
  124SOPE  C21413244   5.668   5.692   3.163 -0.2977  0.4234  0.0053
  124SOPE  H14R13245   5.686   5.792   3.117  0.2905 -0.5795 -2.0390
  124SOPE  H14S13246   5.633   5.618   3.088  0.6691 -0.3944  0.3500
  124SOPE  C21513247   5.801   5.633   3.222  0.1303  0.3923 -0.0598
  124SOPE  H15R13248   5.796   5.526   3.250 -0.1777  0.4867  0.2448
  124SOPE  H15S13249   5.820   5.693   3.313 -3.8560  2.2465 -0.2148
  124SOPE  C21613250   5.914   5.660   3.141 -0.5171 -0.1773 -0.1894
  124SOPE  H16R13251   6.016   5.645   3.183 -0.4717 -0.8524 -0.5216
  124SOPE  H16S13252   5.925   5.767   3.113  0.0106 -0.8532 -2.8696
  124SOPE  C21713253   5.907   5.592   3.010  0.4508 -0.1373 -0.1119
  124SOPE  H17R13254   5.825   5.637   2.951  0.0364 -0.4626  0.2040
  124SOPE  H17S13255   5.875   5.486   3.014 -2.4411  0.7003  1.9155
  124SOPE  C21813256   6.042   5.618   2.929  0.6020  0.3734 -0.1927
  124SOPE  H18R13257   6.045   5.719   2.884 -0.3122  0.8655  0.8019
  124SOPE  H18S13258   6.046   5.546   2.844 -3.7411 -0.7671  0.3254
  124SOPE  H18T13259   6.135   5.612   2.989  0.1052 -0.5372  0.5205
  124SOPE   C3313260   4.905   5.783   2.606 -0.1168  0.1631 -0.2429
  124SOPE   H3X13261   4.814   5.719   2.605  0.3527 -0.6089  1.4915
  124SOPE   H3Y13262   4.883   5.860   2.530 -0.3605 -0.1534 -0.4985
  124SOPE   C3413263   4.892   5.859   2.743 -0.4405 -0.2270 -0.6065
  124SOPE   H4X13264   4.794   5.912   2.744 -0.2937  0.1308 -2.5164
  124SOPE   H4Y13265   4.984   5.920   2.748  0.3541 -1.4728  0.7929
  124SOPE   C3513266   4.906   5.772   2.876 -0.0282 -0.5931 -0.8488
  124SOPE   H5X13267   4.881   5.827   2.969  1.4989 -2.3360  0.6918
  124SOPE   H5Y13268   5.009   5.733   2.889 -0.4514 -1.2376  0.7718
  124SOPE   C3613269   4.821   5.651   2.886  0.0148  0.6252 -0.3773
  124SOPE   H6X13270   4.861   5.572   2.820 -0.2811  1.0136 -1.0343
  124SOPE   H6Y13271   4.718   5.664   2.846 -0.3340 -0.5148  0.0976
  124SOPE   C3713272   4.809   5.593   3.030  0.4158 -0.7419  0.9400
  124SOPE   H7X13273   4.766   5.492   3.019  0.0851 -0.3835 -2.2129
  124SOPE   H7Y13274   4.745   5.663   3.088 -0.6297 -1.4088  0.6107
  124SOPE   C3813275   4.940   5.575   3.109 -0.6379 -0.3358  0.0825
  124SOPE   H8X13276   4.982   5.675   3.133 -3.5085  1.0355 -0.1448
  124SOPE   H8Y13277   5.019   5.524   3.051 -0.9948 -2.3223  1.2538
  124SOPE   C3913278   4.928   5.489   3.232 -0.2676 -0.7137 -0.4121
  124SOPE   H9X13279   5.031   5.487   3.274  0.4380 -0.9793 -2.0568
  124SOPE   H9Y13280   4.888   5.389   3.205 -3.9463  0.4096  0.3148
  124SOPE  C31013281   4.827   5.555   3.327 -0.5936 -0.2468  0.1145
  124SOPE  H10X13282   4.723   5.545   3.290 -0.5795 -1.8945  0.4502
  124SOPE  H10Y13283   4.852   5.662   3.344  0.5137 -0.3928 -0.4814
  124SOPE  C31113284   4.826   5.487   3.469 -0.2130  0.1141  0.4806
  124SOPE  H11X13285   4.878   5.555   3.540 -1.2263  0.7941  0.5917
  124SOPE  H11Y13286   4.876   5.388   3.465  0.5312  0.5155 -1.0063
  124SOPE  C31213287   4.681   5.465   3.528 -0.3592 -0.1546  0.3065
  124SOPE  H12X13288   4.611   5.417   3.457 -2.5324  1.6275  1.1166
  124SOPE  H12Y13289   4.638   5.567   3.536 -1.0309 -0.4144  0.0431
  124SOPE  C31313290   4.683   5.385   3.653 -0.2219 -0.4752  0.1408
  124SOPE  H13X13291   4.727   5.432   3.744 -1.3994 -1.0160  1.0329
  124SOPE  H13Y13292   4.730   5.286   3.640  1.0619  0.3024 -1.5082
  124SOPE  C31413293   4.538   5.344   3.682 -0.0994 -0.3834  0.1929
  124SOPE  H14X13294   4.500   5.261   3.619 -0.6597  0.2262 -0.2844
  124SOPE  H14Y13295   4.469   5.431   3.682 -0.8276 -0.9525  0.3537
  124SOPE  C31513296   4.521   5.307   3.835 -0.1360 -0.1429 -0.2186
  124SOPE  H15X13297   4.558   5.394   3.893 -0.2401 -0.0395 -0.3073
  124SOPE  H15Y13298   4.589   5.225   3.865  0.5047  0.9740  1.5630
  124SOPE  C31613299   4.378   5.295   3.879  0.0423 -0.8482 -0.6172
  124SOPE  H16X13300   4.335   5.217   3.811 -0.4187 -0.3707 -0.8845
  124SOPE  H16Y13301   4.307   5.378   3.858 -0.4539 -0.9006  0.7223
  124SOPE  C31713302   4.366   5.254   4.027  0.4732 -0.3340 -0.3177
  124SOPE  H17X13303   4.438   5.323   4.075  2.1030 -1.6909 -0.7144
  124SOPE  H17Y13304   4.410   5.152   4.037 -1.5281 -1.4233 -1.7257
  124SOPE  C31813305   4.224   5.267   4.087  0.6819 -0.6406 -0.1411
  124SOPE  H18X13306   4.157   5.200   4.029 -1.7796  0.7030  1.0178
  124SOPE  H18Y13307   4.187   5.371   4.080  0.9882 -0.4794  0.5019
  124SOPE  H18Z13308   4.224   5.232   4.193 -3.6343 -1.0480 -0.1175
  125SOPE     N13309   1.384   6.425   2.256  0.1752  0.3129  0.2020
  125SOPE   HN113310   1.359   6.526   2.260 -0.0652  0.2152  1.1774
  125SOPE   HN213311   1.333   6.364   2.323 -0.9210 -0.9964 -1.6969
  125SOPE   HN313312   1.486   6.422   2.275 -0.1439  1.8381  2.5072
  125SOPE   C1213313   1.358   6.378   2.120  0.6898 -0.6399 -0.3028
  125SOPE  H12A13314   1.421   6.287   2.107 -1.8123 -2.8673  1.7921
  125SOPE  H12B13315   1.391   6.448   2.040  0.2577 -1.9215 -1.6556
  125SOPE   C1113316   1.214   6.322   2.113  0.0932 -0.1669 -0.3649
  125SOPE  H11A13317   1.209   6.263   2.018  0.6511  0.1665 -0.6029
  125SOPE  H11B13318   1.155   6.415   2.106 -1.4234 -1.1035 -0.5639
  125SOPE     P13319   1.027   6.224   2.249 -0.1352  0.1289  0.0499
  125SOPE   O1313320   1.008   6.130   2.362 -0.3087  0.1357 -0.0744
  125SOPE   O1413321   0.961   6.182   2.121 -0.2567  0.2216 -0.0444
  125SOPE   O1213322   1.176   6.247   2.221 -0.0923 -0.7587 -0.1418
  125SOPE   O1113323   0.978   6.370   2.281 -0.4206 -0.5492  0.3225
  125SOPE    C113324   1.025   6.452   2.392 -0.6558  1.0205  0.3751
  125SOPE    HA13325   1.065   6.541   2.341 -0.2321 -0.0973 -1.3389
  125SOPE    HB13326   1.102   6.410   2.460  0.2689 -0.1555 -1.3026
  125SOPE    C213327   0.898   6.512   2.469 -0.2412  1.0803  0.2520
  125SOPE    HS13328   0.932   6.581   2.549 -1.5885  1.0707  0.8569
  125SOPE   O2113329   0.820   6.407   2.534 -0.6835 -0.3276  0.3416
  125SOPE   C2113330   0.869   6.336   2.625  0.0671  0.8101  0.0208
  125SOPE   O2213331   0.975   6.344   2.680 -0.1043 -0.4224 -0.0269
  125SOPE   C2213332   0.770   6.218   2.650  0.1433 -0.0245 -0.0146
  125SOPE   H2R13333   0.837   6.130   2.650  1.1214  0.6839 -0.9700
  125SOPE   H2S13334   0.701   6.211   2.563 -0.3184 -1.4429  0.4395
  125SOPE    C313335   0.812   6.604   2.374  0.1680  0.2331 -0.1910
  125SOPE    HX13336   0.777   6.535   2.295 -0.8748 -0.2070  0.6257
  125SOPE    HY13337   0.883   6.680   2.334 -2.0167  2.2001 -0.5474
  125SOPE   O3113338   0.697   6.658   2.439  0.0567  0.3495  0.2370
  125SOPE   C3113339   0.710   6.766   2.516  1.1004 -0.1909 -0.1230
  125SOPE   O3213340   0.820   6.817   2.533 -0.3085  0.4116  0.6055
  125SOPE   C3213341   0.579   6.811   2.573 -0.6177 -0.0325 -0.4712
  125SOPE   H2X13342   0.510   6.806   2.486 -2.5095 -0.3794  0.9801
  125SOPE   H2Y13343   0.585   6.919   2.597 -3.2142  0.2862 -1.0594
  125SOPE   C2313344   0.698   6.251   2.780  0.2961  0.3649  0.3051
  125SOPE   H3R13345   0.636   6.342   2.768 -0.1786  0.5567  3.3986
  125SOPE   H3S13346   0.774   6.279   2.856 -0.4122 -0.4590  1.3543
  125SOPE   C2413347   0.623   6.131   2.838  0.1406  0.4961 -0.0047
  125SOPE   H4R13348   0.556   6.093   2.758  3.3782 -2.4833 -1.6091
  125SOPE   H4S13349   0.691   6.051   2.875 -0.6605 -0.3987 -0.4309
  125SOPE   C2513350   0.523   6.156   2.959 -0.5410 -0.3367  0.5897
  125SOPE   H5R13351   0.459   6.246   2.947  0.1540  0.0427 -0.4070
  125SOPE   H5S13352   0.449   6.075   2.946 -0.1312 -0.5150 -0.7445
  125SOPE   C2613353   0.593   6.168   3.097  0.5420 -0.5915 -0.1056
  125SOPE   H6R13354   0.624   6.065   3.122  0.6949 -0.7824 -1.0154
  125SOPE   H6S13355   0.678   6.240   3.090  0.1906 -0.2195 -0.6872
  125SOPE   C2713356   0.495   6.208   3.203  0.8037  0.1972 -0.0513
  125SOPE   H7R13357   0.451   6.305   3.171 -0.2860 -0.4968 -0.7224
  125SOPE   H7S13358   0.411   6.135   3.203  1.4755 -0.5990 -0.8982
  125SOPE   C2813359   0.565   6.217   3.346 -0.5511 -0.1678  1.1031
  125SOPE   H8R13360   0.578   6.112   3.379  0.0864 -0.6050 -0.4654
  125SOPE   H8S13361   0.665   6.265   3.344 -0.1534 -0.9258  1.9892
  125SOPE   C2913362   0.482   6.291   3.439  0.2895  0.7304 -0.6828
  125SOPE   H9113363   0.417   6.363   3.388  0.4787  1.6903  0.3781
  125SOPE  C21013364   0.478   6.269   3.576 -0.2130 -0.5124 -0.5716
  125SOPE  H10113365   0.418   6.340   3.634  0.8319  2.0830 -2.4659
  125SOPE  C21113366   0.564   6.173   3.657 -0.4380  0.0580 -0.0361
  125SOPE  H11R13367   0.659   6.221   3.689  0.2157 -0.8048 -0.6157
  125SOPE  H11S13368   0.592   6.083   3.599 -0.2896  0.5449 -0.7231
  125SOPE  C21213369   0.486   6.124   3.784  1.1306 -0.9814 -0.1713
  125SOPE  H12R13370   0.402   6.069   3.737 -0.5048  2.3282 -1.4249
  125SOPE  H12S13371   0.450   6.212   3.842  0.0573 -2.4350  1.4346
  125SOPE  C21313372   0.574   6.037   3.884  0.5247 -0.0082  0.1692
  125SOPE  H13R13373   0.591   5.942   3.829 -1.3062 -0.4284  0.2516
  125SOPE  H13S13374   0.520   6.017   3.979  1.3142  1.2005  0.9046
  125SOPE  C21413375   0.701   6.109   3.926  0.3637  0.4251 -0.0312
  125SOPE  H14R13376   0.679   6.206   3.974  1.3116  0.3421  0.6110
  125SOPE  H14S13377   0.765   6.130   3.838  0.3057 -1.7916 -0.6603
  125SOPE  C21513378   0.773   6.035   4.039 -0.2472  0.3927  0.4526
  125SOPE  H15R13379   0.812   5.936   4.007  0.9903  0.6919  0.9657
  125SOPE  H15S13380   0.697   6.010   4.115 -0.8142 -1.3164 -0.6158
  125SOPE  C21613381   0.893   6.120   4.087  0.1855 -0.2416 -0.0227
  125SOPE  H16R13382   0.883   6.219   4.037 -1.3106 -0.2658  0.1983
  125SOPE  H16S13383   0.977   6.078   4.028  0.7914  0.0223  0.6392
  125SOPE  C21713384   0.912   6.134   4.234 -0.4201  0.4829  0.2713
  125SOPE  H17R13385   0.911   6.031   4.274 -0.5657  0.2623 -0.2838
  125SOPE  H17S13386   0.824   6.191   4.271 -2.3861 -1.2706 -1.4105
  125SOPE  C21813387   1.044   6.202   4.262 -0.1773  0.3066  0.1693
  125SOPE  H18R13388   1.056   6.305   4.222  1.2422  0.2285  0.3271
  125SOPE  H18S13389   1.135   6.150   4.225 -0.0245  0.1939  0.6939
  125SOPE  H18T13390   1.060   6.204   4.372 -0.4060 -1.6370  0.2804
  125SOPE   C3313391   0.535   6.723   2.698  0.2232  0.0053 -0.0179
  125SOPE   H3X13392   0.523   6.616   2.673 -0.4153  0.2987 -1.0146
  125SOPE   H3Y13393   0.441   6.766   2.737  0.7233  0.7740  0.3658
  125SOPE   C3413394   0.630   6.726   2.824  0.1739 -0.4874  0.4837
  125SOPE   H4X13395   0.567   6.708   2.914 -0.1782  0.1903  0.3767
  125SOPE   H4Y13396   0.656   6.831   2.847  0.0932 -0.4007  0.1774
  125SOPE   C3513397   0.759   6.636   2.814 -1.0065 -0.2020  0.0033
  125SOPE   H5X13398   0.822   6.670   2.729 -1.9851  0.4030 -0.4935
  125SOPE   H5Y13399   0.726   6.533   2.789  1.1615 -0.7172 -1.0161
  125SOPE   C3613400   0.862   6.637   2.928 -0.0219 -0.0500 -0.5236
  125SOPE   H6X13401   0.906   6.739   2.925 -0.1227 -0.0261 -1.5587
  125SOPE   H6Y13402   0.947   6.569   2.909  0.1136  0.5237 -2.1167
  125SOPE   C3713403   0.797   6.594   3.056 -0.3419 -0.3490  0.1529
  125SOPE   H7X13404   0.745   6.496   3.045 -0.6651 -0.1431 -0.1940
  125SOPE   H7Y13405   0.711   6.664   3.067 -0.9096 -0.9131 -0.5074
  125SOPE   C3813406   0.885   6.606   3.183  1.3345 -0.0400  0.2200
  125SOPE   H8X13407   0.925   6.709   3.178  2.0836 -0.3233  0.2828
  125SOPE   H8Y13408   0.962   6.526   3.191  0.2789 -1.1070  0.1861
  125SOPE   C3913409   0.794   6.584   3.306  0.3231 -0.1774  0.2760
  125SOPE   H9X13410   0.767   6.476   3.311 -1.0189  0.2029  2.7705
  125SOPE   H9Y13411   0.698   6.638   3.290  0.0016 -0.8305 -0.0502
  125SOPE  C31013412   0.864   6.620   3.437 -0.0288 -0.0774 -0.0558
  125SOPE  H10X13413   0.875   6.729   3.450  1.1981  0.1137 -2.1947
  125SOPE  H10Y13414   0.965   6.574   3.438  0.0171  0.0140 -0.4632
  125SOPE  C31113415   0.799   6.567   3.571 -0.2117  0.6897  0.6557
  125SOPE  H11X13416   0.796   6.457   3.552 -1.5529  1.0115 -1.3018
  125SOPE  H11Y13417   0.694   6.600   3.582 -0.3549  0.5972 -0.2950
  125SOPE  C31213418   0.890   6.601   3.687  0.4909 -0.0352 -0.4105
  125SOPE  H12X13419   0.923   6.707   3.679  0.9549  0.0856  2.2089
  125SOPE  H12Y13420   0.976   6.531   3.686  1.6993  1.3529  0.7742
  125SOPE  C31313421   0.813   6.559   3.818 -0.3217  0.8745  0.7638
  125SOPE  H13X13422   0.771   6.458   3.800  3.2563 -0.6332 -0.0865
  125SOPE  H13Y13423   0.735   6.635   3.839 -1.2369  0.1631  0.0257
  125SOPE  C31413424   0.898   6.556   3.943 -0.4116 -0.0003 -0.1851
  125SOPE  H14X13425   0.944   6.657   3.944 -0.8293  0.1998  0.7011
  125SOPE  H14Y13426   0.984   6.487   3.947  0.7278  1.3872  2.8600
  125SOPE  C31513427   0.827   6.521   4.073 -0.4246  0.1657 -0.9699
  125SOPE  H15X13428   0.815   6.412   4.091 -1.2865  0.6100  1.4462
  125SOPE  H15Y13429   0.725   6.562   4.083 -1.2734 -2.2734  1.8541
  125SOPE  C31613430   0.904   6.590   4.190 -0.0657  0.1911  0.1218
  125SOPE  H16X13431   0.893   6.700   4.179 -2.7734 -0.0720 -0.6084
  125SOPE  H16Y13432   1.009   6.562   4.169 -0.1516  0.2420 -0.3832
  125SOPE  C31713433   0.840   6.539   4.326  1.0769  0.9056 -0.8262
  125SOPE  H17X13434   0.831   6.428   4.315  0.0897  1.0245 -1.2733
  125SOPE  H17Y13435   0.741   6.588   4.335  1.2525  1.0241  0.8768
  125SOPE  C31813436   0.913   6.567   4.467  0.2080  0.2017  0.8959
  125SOPE  H18X13437   0.982   6.481   4.483  1.0848  0.9490  1.1590
  125SOPE  H18Y13438   0.838   6.562   4.549 -1.1258 -3.7992 -0.3025
  125SOPE  H18Z13439   0.975   6.659   4.471  3.2688 -1.7469  2.2967
  126SOPE     N13440   2.090   6.647   1.980 -0.6341  0.0006 -0.3003
  126SOPE   HN113441   2.062   6.559   2.027 -1.6469 -1.1230 -2.8498
  126SOPE   HN213442   2.185   6.636   1.938 -0.9756  1.4190 -1.5587
  126SOPE   HN313443   2.098   6.728   2.044 -0.0925  2.4895 -3.2544
  126SOPE   C1213444   1.989   6.671   1.873  0.3490  0.0259  0.3773
  126SOPE  H12A13445   1.967   6.568   1.839  0.9228  0.3874 -1.1617
  126SOPE  H12B13446   2.041   6.740   1.802  2.2437  1.0264  2.5875
  126SOPE   C1113447   1.862   6.723   1.937 -0.2520  0.2029 -0.2274
  126SOPE  H11A13448   1.788   6.741   1.856 -0.9861  2.1577  0.8209
  126SOPE  H11B13449   1.888   6.821   1.983  1.3486 -1.0056  1.6369
  126SOPE     P13450   1.678   6.679   2.118 -0.4728 -0.4663  0.1932
  126SOPE   O1313451   1.614   6.551   2.155  0.4977  0.4615 -0.0745
  126SOPE   O1413452   1.599   6.774   2.036  0.5549 -0.7862  0.0746
  126SOPE   O1213453   1.815   6.637   2.041 -0.2751 -0.4420  0.1856
  126SOPE   O1113454   1.741   6.742   2.254  0.0009 -0.6376  0.2573
  126SOPE    C113455   1.865   6.698   2.307 -0.4294 -0.5515  0.0841
  126SOPE    HA13456   1.895   6.775   2.382  2.4667 -0.3449 -1.1697
  126SOPE    HB13457   1.939   6.705   2.225 -1.4686  0.8997 -0.7925
  126SOPE    C213458   1.859   6.568   2.378 -0.3895  0.0076 -1.0649
  126SOPE    HS13459   1.830   6.500   2.295  0.9022 -0.9865 -0.7267
  126SOPE   O2113460   1.759   6.576   2.483  0.2468  0.1625 -0.0191
  126SOPE   C2113461   1.714   6.463   2.526 -0.1180  0.3503  0.5593
  126SOPE   O2213462   1.719   6.352   2.475 -0.1481 -0.0852  0.5827
  126SOPE   C2213463   1.626   6.488   2.662 -0.8131  0.5719  0.2884
  126SOPE   H2R13464   1.527   6.508   2.616 -0.8367  0.7758  0.4288
  126SOPE   H2S13465   1.654   6.580   2.717 -0.3947  1.1411 -0.8598
  126SOPE    C313466   2.001   6.526   2.426 -0.4334  0.5708  0.2149
  126SOPE    HX13467   2.041   6.611   2.486 -0.2774  1.3201 -0.9227
  126SOPE    HY13468   2.061   6.534   2.333  1.9133  1.1972  1.6747
  126SOPE   O3113469   2.003   6.395   2.498 -0.1600 -0.7420 -0.1905
  126SOPE   C3113470   2.029   6.290   2.424  0.5333 -0.0328  0.7259
  126SOPE   O3213471   2.053   6.294   2.302 -0.5563  0.1832  0.3237
  126SOPE   C3213472   2.008   6.161   2.517 -0.1755  0.0594  0.0159
  126SOPE   H2X13473   2.073   6.080   2.479 -0.9059 -1.2279  1.4007
  126SOPE   H2Y13474   1.902   6.132   2.501 -1.1367  2.7754  0.9043
  126SOPE   C2313475   1.612   6.367   2.761  0.4539  1.3246  0.4516
  126SOPE   H3R13476   1.686   6.287   2.739 -1.6658 -0.2873 -1.3308
  126SOPE   H3S13477   1.511   6.322   2.755  0.0021  2.0923  1.7118
  126SOPE   C2413478   1.625   6.415   2.908  0.6757  0.6464  0.3855
  126SOPE   H4R13479   1.730   6.443   2.934  0.8991 -2.1538  3.0432
  126SOPE   H4S13480   1.566   6.505   2.934 -1.7043 -0.9088  0.6038
  126SOPE   C2513481   1.575   6.304   3.008 -0.3250  0.1615  0.6201
  126SOPE   H5R13482   1.466   6.290   3.018  0.1669 -4.0886  2.1748
  126SOPE   H5S13483   1.634   6.215   2.978  0.3746  0.3662  1.3428
  126SOPE   C2613484   1.628   6.333   3.146 -0.4384 -0.3313 -0.1360
  126SOPE   H6R13485   1.731   6.375   3.148 -0.3563 -0.5566  0.4933
  126SOPE   H6S13486   1.552   6.404   3.186 -0.9258 -0.4612 -0.8194
  126SOPE   C2713487   1.604   6.216   3.245 -0.6098  0.2632  0.2829
  126SOPE   H7R13488   1.587   6.254   3.348 -1.5797  0.1403  0.1741
  126SOPE   H7S13489   1.521   6.145   3.222  2.0989 -3.0547 -0.0568
  126SOPE   C2813490   1.735   6.123   3.268  0.1338  0.7476  0.3890
  126SOPE   H8R13491   1.701   6.028   3.313  3.0405 -0.9049 -0.6293
  126SOPE   H8S13492   1.782   6.095   3.171  0.0928  1.6939  0.0858
  126SOPE   C2913493   1.831   6.207   3.349  0.1642 -0.0042 -0.0193
  126SOPE   H9113494   1.901   6.262   3.284 -0.1871  0.6163  0.1153
  126SOPE  C21013495   1.827   6.227   3.485 -0.5437 -0.0086 -0.3064
  126SOPE  H10113496   1.889   6.300   3.539 -2.0613  0.4095  0.9341
  126SOPE  C21113497   1.735   6.149   3.577 -0.3600 -0.4747 -0.1259
  126SOPE  H11R13498   1.731   6.042   3.549  0.1797 -0.9521  1.4875
  126SOPE  H11S13499   1.635   6.195   3.567  0.2583  1.6232  2.1728
  126SOPE  C21213500   1.782   6.163   3.722 -0.3108 -0.2369 -0.7800
  126SOPE  H12R13501   1.690   6.127   3.773 -0.3216 -0.2469 -0.8064
  126SOPE  H12S13502   1.806   6.266   3.754  1.0024 -0.9676  0.6982
  126SOPE  C21313503   1.904   6.081   3.765 -0.1281  0.8076  0.3300
  126SOPE  H13R13504   1.998   6.116   3.719 -0.4869 -0.0658 -1.1463
  126SOPE  H13S13505   1.899   5.975   3.731 -2.1623  1.1176 -0.5212
  126SOPE  C21413506   1.915   6.086   3.921 -0.1358  0.4357 -0.5342
  126SOPE  H14R13507   1.839   6.019   3.966  0.1510  1.2127  1.1700
  126SOPE  H14S13508   1.904   6.193   3.950  1.3162  0.8810 -1.5127
  126SOPE  C21513509   2.052   6.034   3.960 -0.2860  0.0468  0.2002
  126SOPE  H15R13510   2.134   6.100   3.923 -0.0464  0.7692  1.9272
  126SOPE  H15S13511   2.068   5.942   3.900  2.2371  1.1696 -1.0085
  126SOPE  C21613512   2.075   6.004   4.115 -0.2290 -0.1905 -0.2736
  126SOPE  H16R13513   2.177   5.963   4.131 -0.7192 -0.9761  0.9342
  126SOPE  H16S13514   2.005   5.920   4.136 -0.5784  0.3402  0.7436
  126SOPE  C21713515   2.043   6.127   4.205 -0.2293 -0.2484  0.0047
  126SOPE  H17R13516   1.968   6.092   4.279  0.1869 -0.4809  0.3208
  126SOPE  H17S13517   1.992   6.207   4.147  0.5694 -0.5452 -1.1498
  126SOPE  C21813518   2.166   6.187   4.281  1.0439 -0.2658 -0.5985
  126SOPE  H18R13519   2.187   6.123   4.370 -2.9494 -0.8438  0.1333
  126SOPE  H18S13520   2.132   6.283   4.324 -2.1351 -1.8559  0.7951
  126SOPE  H18T13521   2.252   6.208   4.214 -0.1116 -0.0298 -2.0582
  126SOPE   C3313522   2.035   6.189   2.660  0.5492 -0.6167 -0.0165
  126SOPE   H3X13523   1.988   6.282   2.697 -0.3669 -0.6783 -0.9885
  126SOPE   H3Y13524   2.145   6.196   2.678  0.4132  0.9258  0.3040
  126SOPE   C3413525   1.977   6.081   2.756 -0.3420 -0.0437  1.0894
  126SOPE   H4X13526   2.041   5.992   2.738 -0.5907 -0.0131 -0.0510
  126SOPE   H4Y13527   1.878   6.050   2.717  0.1981  0.3419 -0.6868
  126SOPE   C3513528   1.990   6.123   2.905 -0.1544 -0.3784 -0.7420
  126SOPE   H5X13529   1.951   6.044   2.972  0.8794  0.0232  0.3687
  126SOPE   H5Y13530   1.930   6.215   2.918  1.2458  0.3026  1.4827
  126SOPE   C3613531   2.139   6.125   2.948 -0.0976  0.9626 -0.1479
  126SOPE   H6X13532   2.198   6.206   2.899  0.1096  0.5783 -0.5466
  126SOPE   H6Y13533   2.183   6.033   2.903  2.8017  2.4843 -0.6789
  126SOPE   C3713534   2.155   6.144   3.100  0.8307  0.0462  0.1162
  126SOPE   H7X13535   2.097   6.061   3.146 -0.8119  0.1887 -1.6173
  126SOPE   H7Y13536   2.111   6.239   3.137 -2.4179 -1.5715  0.7228
  126SOPE   C3813537   2.301   6.127   3.152 -0.0165 -0.5539  0.5052
  126SOPE   H8X13538   2.365   6.189   3.085  0.3496 -0.3196  1.0563
  126SOPE   H8Y13539   2.318   6.018   3.140  1.0212 -0.3305 -0.1920
  126SOPE   C3913540   2.316   6.157   3.303 -0.0002 -0.2610 -0.2680
  126SOPE   H9X13541   2.247   6.245   3.305  0.0285 -0.2038 -1.1188
  126SOPE   H9Y13542   2.420   6.184   3.329  0.0430 -0.0970 -0.6002
  126SOPE  C31013543   2.271   6.038   3.393 -0.0421  0.5677 -0.4343
  126SOPE  H10X13544   2.333   5.947   3.385 -0.0917  0.6309 -1.8396
  126SOPE  H10Y13545   2.169   6.008   3.358 -1.4662 -0.7941  4.2074
  126SOPE  C31113546   2.270   6.088   3.536 -0.3406 -0.4654 -0.2776
  126SOPE  H11X13547   2.228   6.010   3.603 -0.4181  0.4855  0.8246
  126SOPE  H11Y13548   2.208   6.180   3.540 -0.1928 -0.3775  2.8629
  126SOPE  C31213549   2.401   6.116   3.611  0.5552  0.1995  0.4728
  126SOPE  H12X13550   2.443   6.206   3.562 -0.4528  0.8480  0.7904
  126SOPE  H12Y13551   2.462   6.024   3.597 -0.8033 -1.3074  3.5094
  126SOPE  C31313552   2.378   6.135   3.763  0.0084 -0.4330  0.5569
  126SOPE  H13X13553   2.478   6.143   3.810  0.7384  2.1207 -1.1833
  126SOPE  H13Y13554   2.325   6.046   3.802  0.4656 -0.8389  0.2552
  126SOPE  C31413555   2.300   6.272   3.779 -0.2250 -0.1062 -0.1798
  126SOPE  H14X13556   2.192   6.254   3.756  0.1491 -2.5428 -0.2514
  126SOPE  H14Y13557   2.333   6.344   3.701  1.9496 -0.1879  0.6207
  126SOPE  C31513558   2.318   6.346   3.913 -0.0655  0.9465  0.7162
  126SOPE  H15X13559   2.424   6.347   3.944  0.1219  1.6787  0.0652
  126SOPE  H15Y13560   2.270   6.286   3.993 -1.5004  1.0959 -0.0045
  126SOPE  C31613561   2.249   6.482   3.911 -0.1292  0.4957 -0.5571
  126SOPE  H16X13562   2.304   6.551   3.844  0.4171  0.4759 -0.1320
  126SOPE  H16Y13563   2.254   6.540   4.006 -1.1899  1.7413 -1.2350
  126SOPE  C31713564   2.098   6.496   3.867  0.4097  0.4756 -0.0310
  126SOPE  H17X13565   2.038   6.419   3.921 -2.6172  1.7958 -1.3151
  126SOPE  H17Y13566   2.099   6.470   3.759  3.0733  0.1373 -0.0082
  126SOPE  C31813567   2.040   6.634   3.899 -0.0089 -0.4333 -0.3939
  126SOPE  H18X13568   1.936   6.649   3.864  0.5174  1.9610 -1.0932
  126SOPE  H18Y13569   2.106   6.708   3.848 -0.1245 -0.6433 -0.8500
  126SOPE  H18Z13570   2.044   6.655   4.008 -0.0020 -0.9105 -0.3035
  127SOPE     N13571   3.527   4.464   1.463  0.4499  0.1693  0.0906
  127SOPE   HN113572   3.461   4.523   1.408  0.2247 -0.1271  0.0413
  127SOPE   HN213573   3.613   4.523   1.461 -0.4929  1.5869 -0.2198
  127SOPE   HN313574   3.539   4.372   1.416 -0.2938  0.8481 -1.5098
  127SOPE   C1213575   3.448   4.448   1.584  0.2878 -0.7117 -0.7160
  127SOPE  H12A13576   3.487   4.363   1.642  0.2867 -0.0639  0.2527
  127SOPE  H12B13577   3.343   4.425   1.553 -0.1258 -0.8644  0.7326
  127SOPE   C1113578   3.470   4.563   1.690  0.0424 -0.2595  0.1435
  127SOPE  H11A13579   3.402   4.549   1.777  0.9817  2.9950  1.5575
  127SOPE  H11B13580   3.434   4.654   1.636  1.4318  0.1101 -0.2068
  127SOPE     P13581   3.665   4.718   1.753 -0.1102 -0.3884  0.0762
  127SOPE   O1313582   3.645   4.788   1.623 -0.1476 -0.1892  0.0047
  127SOPE   O1413583   3.800   4.718   1.812 -0.3144  0.8525 -1.2242
  127SOPE   O1213584   3.611   4.571   1.728 -0.4393 -0.4532 -0.0634
  127SOPE   O1113585   3.575   4.787   1.862  0.1610 -0.1336 -0.0976
  127SOPE    C113586   3.540   4.712   1.983 -0.0997  0.0181  0.4300
  127SOPE    HA13587   3.595   4.750   2.071 -2.1806  0.7579  1.4866
  127SOPE    HB13588   3.575   4.606   1.981 -0.7705 -0.2185  0.8020
  127SOPE    C213589   3.392   4.728   2.025 -0.4469  0.4457  0.8891
  127SOPE    HS13590   3.339   4.672   1.945 -0.1719 -0.5605  1.3913
  127SOPE   O2113591   3.345   4.865   2.016  0.4541 -0.2418 -0.5690
  127SOPE   C2113592   3.208   4.870   2.013 -1.1858 -0.1641 -0.1353
  127SOPE   O2213593   3.140   4.768   2.009  0.1352  0.1642  0.4758
  127SOPE   C2213594   3.164   5.017   2.020 -0.8426  0.9677  0.3103
  127SOPE   H2R13595   3.177   5.049   1.914 -0.2216  3.7363  1.1381
  127SOPE   H2S13596   3.232   5.071   2.089 -0.3437  0.4674  0.2153
  127SOPE    C313597   3.370   4.667   2.168 -0.4455 -0.6634 -0.4346
  127SOPE    HX13598   3.414   4.566   2.182  0.5612 -0.2688 -0.6787
  127SOPE    HY13599   3.260   4.657   2.187 -0.1836  0.1180  1.7962
  127SOPE   O3113600   3.441   4.760   2.259  0.3670  0.7545 -0.0372
  127SOPE   C3113601   3.364   4.798   2.365  0.0369 -0.1695 -0.7216
  127SOPE   O3213602   3.251   4.764   2.392 -0.5079 -0.0250 -0.1461
  127SOPE   C3213603   3.452   4.900   2.442 -0.5365  0.2770 -0.1161
  127SOPE   H2X13604   3.487   4.978   2.370  0.4477 -1.2667 -1.3994
  127SOPE   H2Y13605   3.547   4.853   2.476 -0.2766  1.3009  0.6040
  127SOPE   C2313606   3.017   5.026   2.072 -0.2565 -0.2246 -0.4653
  127SOPE   H3R13607   2.950   4.961   2.012 -2.8409  0.8473  1.0824
  127SOPE   H3S13608   2.969   5.124   2.048 -0.4660  0.3121  1.9068
  127SOPE   C2413609   3.013   4.988   2.218 -0.0647 -0.0134  0.4812
  127SOPE   H4R13610   3.059   4.892   2.247  1.5490  0.9548  1.2720
  127SOPE   H4S13611   3.085   5.060   2.263  0.9791 -0.3889 -0.5619
  127SOPE   C2513612   2.879   5.003   2.284  0.0727 -0.2385 -0.0030
  127SOPE   H5R13613   2.866   5.108   2.318  0.6339 -0.2381  0.2278
  127SOPE   H5S13614   2.805   4.983   2.204 -0.8048  1.0121  0.4729
  127SOPE   C2613615   2.858   4.935   2.422  0.3756  0.7962  0.3151
  127SOPE   H6R13616   2.747   4.938   2.423  0.3458  0.0593 -0.3641
  127SOPE   H6S13617   2.898   4.831   2.427 -1.2220  0.0958 -0.7944
  127SOPE   C2713618   2.920   5.016   2.533  0.4391  0.3132 -0.8678
  127SOPE   H7R13619   3.029   4.994   2.539  0.0925 -1.5407 -0.9712
  127SOPE   H7S13620   2.907   5.125   2.515  0.6577  0.4279 -0.3483
  127SOPE   C2813621   2.868   4.983   2.678  0.4881 -0.0282 -0.1585
  127SOPE   H8R13622   2.925   5.053   2.743  1.4454 -0.0763 -0.9191
  127SOPE   H8S13623   2.760   5.010   2.673  0.4402 -0.1524  0.1945
  127SOPE   C2913624   2.908   4.848   2.719  0.5296  0.2048 -0.2691
  127SOPE   H9113625   2.995   4.804   2.669 -0.4547 -1.6607 -0.4029
  127SOPE  C21013626   2.872   4.779   2.832 -0.1701  0.9344 -0.1203
  127SOPE  H10113627   2.927   4.684   2.841 -1.0307  0.5648  1.6597
  127SOPE  C21113628   2.759   4.808   2.931 -0.1704  0.0289 -0.3592
  127SOPE  H11R13629   2.691   4.720   2.925  0.0864 -0.1429 -0.7530
  127SOPE  H11S13630   2.693   4.888   2.892 -2.0768 -0.7621  1.0867
  127SOPE  C21213631   2.800   4.832   3.078 -0.1526 -0.2009  0.3712
  127SOPE  H12R13632   2.716   4.871   3.139 -0.3164 -0.8805  0.5886
  127SOPE  H12S13633   2.868   4.919   3.067  0.9553 -1.1827 -1.0741
  127SOPE  C21313634   2.883   4.707   3.126  0.0272  0.1489  0.0799
  127SOPE  H13R13635   2.971   4.692   3.060  0.8301 -1.8434  1.4953
  127SOPE  H13S13636   2.823   4.617   3.098 -0.4478  1.0656 -2.0952
  127SOPE  C21413637   2.927   4.706   3.272 -0.3195 -0.0826 -0.2611
  127SOPE  H14R13638   2.850   4.728   3.349 -1.3855  0.8161 -1.5138
  127SOPE  H14S13639   3.016   4.771   3.282  1.7695 -2.5742 -1.4171
  127SOPE  C21513640   2.981   4.568   3.317 -0.2138 -0.2909  0.1089
  127SOPE  H15R13641   3.071   4.544   3.257  0.9033 -0.5005  1.8208
  127SOPE  H15S13642   2.907   4.484   3.313 -0.1844 -0.4219  1.8396
  127SOPE  C21613643   3.031   4.578   3.460 -0.2091  0.0709 -0.4735
  127SOPE  H16R13644   3.086   4.673   3.477  0.7989 -0.5941  0.1364
  127SOPE  H16S13645   3.115   4.505   3.467  1.1416  1.5267 -0.8354
  127SOPE  C21713646   2.923   4.546   3.560  0.5501  0.1717 -0.0394
  127SOPE  H17R13647   2.901   4.437   3.556 -0.4241  0.3810 -1.1538
  127SOPE  H17S13648   2.829   4.595   3.526 -0.4037 -0.6222  1.3419
  127SOPE  C21813649   2.952   4.604   3.699  0.3215  0.4934  0.1666
  127SOPE  H18R13650   2.928   4.712   3.702  0.3624  0.4824  1.7459
  127SOPE  H18S13651   3.056   4.579   3.729 -0.3534 -1.7708  0.8411
  127SOPE  H18T13652   2.886   4.560   3.777  2.1672 -1.4128  0.7711
  127SOPE   C3313653   3.367   4.973   2.543  0.5892 -0.4802 -0.7435
  127SOPE   H3X13654   3.267   4.996   2.499  1.0240 -0.1126 -1.5555
  127SOPE   H3Y13655   3.414   5.070   2.571 -2.4921  0.0450  3.7258
  127SOPE   C3413656   3.348   4.885   2.671 -0.2465 -0.4401  0.1137
  127SOPE   H4X13657   3.450   4.861   2.708 -0.1068  0.2546  0.1996
  127SOPE   H4Y13658   3.301   4.790   2.638  1.7581 -1.5060  0.1629
  127SOPE   C3513659   3.263   4.958   2.777 -0.5190  0.8437 -0.3824
  127SOPE   H5X13660   3.158   4.956   2.742 -0.3960 -0.5216 -0.7285
  127SOPE   H5Y13661   3.296   5.061   2.801  0.5422  0.6391 -0.9104
  127SOPE   C3613662   3.260   4.872   2.900 -0.0179 -0.0928 -0.2710
  127SOPE   H6X13663   3.358   4.840   2.941  0.3410  0.5825 -0.5838
  127SOPE   H6Y13664   3.193   4.784   2.886 -1.9877  1.2819  0.0572
  127SOPE   C3713665   3.194   4.946   3.017  0.5364 -0.3496 -0.6624
  127SOPE   H7X13666   3.139   4.867   3.073 -0.4426  1.8433  1.6483
  127SOPE   H7Y13667   3.117   5.018   2.981 -0.3771 -1.2310 -0.5413
  127SOPE   C3813668   3.285   5.032   3.104  0.2807  0.5592 -0.4576
  127SOPE   H8X13669   3.222   5.090   3.175 -1.5760 -0.0700 -1.5202
  127SOPE   H8Y13670   3.343   5.104   3.042  3.7326 -1.3546  0.3395
  127SOPE   C3913671   3.382   4.956   3.197 -0.8184 -0.2057  0.2020
  127SOPE   H9X13672   3.453   5.023   3.251 -1.2855  1.4930 -1.1854
  127SOPE   H9Y13673   3.450   4.904   3.125 -0.0799  0.9232  0.0422
  127SOPE  C31013674   3.325   4.864   3.302 -0.9244  0.1990  1.2038
  127SOPE  H10X13675   3.264   4.790   3.245  0.6906 -1.0872  1.0775
  127SOPE  H10Y13676   3.259   4.915   3.376 -0.9007  3.6360 -0.9661
  127SOPE  C31113677   3.436   4.785   3.376 -0.1157  0.2811  0.4001
  127SOPE  H11X13678   3.492   4.845   3.450  0.8844 -0.7804  0.5314
  127SOPE  H11Y13679   3.511   4.747   3.304  2.1390  0.2798  2.5945
  127SOPE  C31213680   3.395   4.653   3.459 -0.0665  0.2298  0.4059
  127SOPE  H12X13681   3.343   4.590   3.384  0.6242 -0.9442  0.8889
  127SOPE  H12Y13682   3.319   4.679   3.536 -0.8422  0.5408 -0.4404
  127SOPE  C31313683   3.515   4.588   3.531 -0.0941  0.6771 -0.2126
  127SOPE  H13X13684   3.602   4.584   3.461 -0.5433 -2.4898 -0.7328
  127SOPE  H13Y13685   3.481   4.487   3.560  0.3452  0.9162  1.1874
  127SOPE  C31413686   3.571   4.656   3.657  0.9156  0.6327  0.6185
  127SOPE  H14X13687   3.485   4.677   3.725  1.2705  1.8155  0.7271
  127SOPE  H14Y13688   3.616   4.751   3.620  0.4115  0.1233 -1.4525
  127SOPE  C31513689   3.678   4.565   3.712  0.5894 -0.6080 -0.2360
  127SOPE  H15X13690   3.762   4.564   3.639 -0.8477 -1.9019 -1.9588
  127SOPE  H15Y13691   3.640   4.461   3.724 -3.0623  0.5426 -0.4262
  127SOPE  C31613692   3.716   4.618   3.856  0.2283 -0.9112 -0.1788
  127SOPE  H16X13693   3.630   4.605   3.926  0.8076 -2.3213  0.3080
  127SOPE  H16Y13694   3.740   4.726   3.850 -0.6479 -0.6339  0.9081
  127SOPE  C31713695   3.841   4.542   3.911  0.4993 -0.5265 -0.0867
  127SOPE  H17X13696   3.906   4.511   3.827 -1.1497  1.2437 -2.1581
  127SOPE  H17Y13697   3.800   4.449   3.955 -3.2407 -0.2924 -2.5828
  127SOPE  C31813698   3.937   4.612   4.017 -0.0147  0.0445  0.7300
  127SOPE  H18X13699   3.878   4.649   4.104  0.2668  1.4988  0.3279
  127SOPE  H18Y13700   3.980   4.705   3.976 -1.4952  0.8343  0.9003
  127SOPE  H18Z13701   4.021   4.546   4.048  0.9563 -0.1247 -2.0466
  128SOPE     N13702   2.593   4.332   1.966  0.4479  0.3083 -0.1771
  128SOPE   HN113703   2.519   4.344   2.038  0.3605  1.7203 -0.4637
  128SOPE   HN213704   2.557   4.291   1.878 -0.2040  0.6583 -0.0825
  128SOPE   HN313705   2.660   4.259   1.996  0.8203  0.9228  0.5307
  128SOPE   C1213706   2.648   4.469   1.939  0.4228 -0.6992  0.6497
  128SOPE  H12A13707   2.568   4.515   1.878  0.6836  2.2591  2.3258
  128SOPE  H12B13708   2.742   4.464   1.880 -1.0454  0.4201 -1.9712
  128SOPE   C1113709   2.673   4.551   2.066 -0.2782 -0.1615  0.3773
  128SOPE  H11A13710   2.732   4.643   2.044  1.6983 -1.2665  0.8185
  128SOPE  H11B13711   2.753   4.498   2.122  0.9398  0.9129 -0.2685
  128SOPE     P13712   2.497   4.494   2.254 -0.0506 -0.4740  0.0435
  128SOPE   O1313713   2.463   4.363   2.193  0.9168  0.6702 -0.3392
  128SOPE   O1413714   2.379   4.565   2.315 -0.2782 -0.2738  0.0957
  128SOPE   O1213715   2.550   4.584   2.135 -0.1834 -0.0270  0.5980
  128SOPE   O1113716   2.613   4.488   2.360 -0.8506  0.4320 -0.0042
  128SOPE    C113717   2.679   4.606   2.412  0.0130  0.4291  0.3370
  128SOPE    HA13718   2.674   4.688   2.337 -0.4009 -0.3121 -0.4716
  128SOPE    HB13719   2.785   4.576   2.430  0.1405 -0.3532 -1.4398
  128SOPE    C213720   2.624   4.648   2.556  0.8216 -0.4745 -0.3545
  128SOPE    HS13721   2.699   4.716   2.603  0.5047 -1.5909  1.8840
  128SOPE   O2113722   2.598   4.542   2.653 -0.2829 -0.1639 -0.1411
  128SOPE   C2113723   2.706   4.470   2.672  0.4255  0.0945 -0.1302
  128SOPE   O2213724   2.819   4.508   2.643 -0.5400 -0.0845 -0.3244
  128SOPE   C2213725   2.685   4.335   2.735 -0.1291  0.5990 -0.8286
  128SOPE   H2R13726   2.667   4.259   2.657 -1.8543 -1.8338  1.7636
  128SOPE   H2S13727   2.588   4.343   2.787  0.6782 -0.2839  0.9012
  128SOPE    C313728   2.503   4.742   2.540  0.1183  0.1083  1.1299
  128SOPE    HX13729   2.419   4.671   2.529  0.2312  0.1821 -0.5442
  128SOPE    HY13730   2.517   4.797   2.444  0.5454 -2.2636 -0.2506
  128SOPE   O3113731   2.502   4.834   2.652  0.3642  0.1946 -0.2305
  128SOPE   C3113732   2.388   4.906   2.650  0.9159 -0.2799 -0.2304
  128SOPE   O3213733   2.304   4.904   2.568  0.7517 -1.3257  0.2746
  128SOPE   C3213734   2.392   5.002   2.769 -0.0805  0.1632 -0.5606
  128SOPE   H2X13735   2.316   5.082   2.757  0.5656  0.8320 -0.2694
  128SOPE   H2Y13736   2.487   5.059   2.766 -0.1312  0.1990 -1.5784
  128SOPE   C2313737   2.802   4.286   2.821 -0.6312 -0.4170 -0.2033
  128SOPE   H3R13738   2.891   4.276   2.754 -0.1252 -0.1597  0.4198
  128SOPE   H3S13739   2.773   4.185   2.857 -0.8689  0.6081  2.7088
  128SOPE   C2413740   2.842   4.376   2.943  0.2317  0.0563 -0.3545
  128SOPE   H4R13741   2.892   4.468   2.907  1.6755  0.3614  2.1850
  128SOPE   H4S13742   2.758   4.410   3.008 -0.2842 -2.4624  0.4015
  128SOPE   C2513743   2.941   4.296   3.035 -0.1769 -0.4750 -0.3496
  128SOPE   H5R13744   2.926   4.332   3.139 -0.6153  1.4265 -1.0383
  128SOPE   H5S13745   2.905   4.190   3.040 -0.0750 -0.4502  3.0001
  128SOPE   C2613746   3.088   4.324   2.988  0.0227  0.0107  0.0999
  128SOPE   H6R13747   3.083   4.309   2.878 -4.0288 -0.3363  0.1803
  128SOPE   H6S13748   3.125   4.428   3.006  2.9242 -0.9515  0.2346
  128SOPE   C2713749   3.190   4.218   3.047 -0.0825 -0.7695 -0.5335
  128SOPE   H7R13750   3.159   4.214   3.154  1.8221  0.6078  0.1346
  128SOPE   H7S13751   3.170   4.128   2.986  0.1065 -0.7200 -0.6717
  128SOPE   C2813752   3.342   4.246   3.035 -0.4785 -0.1937 -0.4597
  128SOPE   H8R13753   3.399   4.156   3.066 -0.8568 -0.1123  0.4797
  128SOPE   H8S13754   3.376   4.257   2.929 -1.5616 -2.4866 -1.1056
  128SOPE   C2913755   3.372   4.362   3.122 -0.3390  0.5994  0.0777
  128SOPE   H9113756   3.323   4.459   3.102  0.2461  1.1958  1.3945
  128SOPE  C21013757   3.451   4.349   3.226 -0.4360  0.3959  0.6026
  128SOPE  H10113758   3.471   4.437   3.290 -2.5377  1.3257  0.0658
  128SOPE  C21113759   3.532   4.222   3.268  0.6095  0.6001  0.1686
  128SOPE  H11R13760   3.614   4.213   3.193 -0.5829  3.0701 -1.5643
  128SOPE  H11S13761   3.468   4.132   3.275  2.7068 -0.9270  0.8316
  128SOPE  C21213762   3.604   4.252   3.404 -0.3293  0.0249 -0.4307
  128SOPE  H12R13763   3.531   4.278   3.484 -1.1389 -1.4156 -0.6675
  128SOPE  H12S13764   3.674   4.337   3.394  0.2304 -0.3908 -0.0526
  128SOPE  C21313765   3.676   4.127   3.462  0.0062  0.2189 -0.4206
  128SOPE  H13R13766   3.745   4.083   3.388  1.2310  0.8492  0.3187
  128SOPE  H13S13767   3.591   4.057   3.480  1.8699 -1.3112  3.6357
  128SOPE  C21413768   3.756   4.145   3.593  0.5478 -0.5197 -0.2568
  128SOPE  H14R13769   3.822   4.055   3.601  0.6285 -0.3734  0.9526
  128SOPE  H14S13770   3.685   4.141   3.679  0.4908  1.7506 -0.1425
  128SOPE  C21513771   3.849   4.263   3.594  0.0949  0.2614  0.4612
  128SOPE  H15R13772   3.883   4.269   3.700 -1.7748 -0.6069  1.1626
  128SOPE  H15S13773   3.787   4.350   3.565  1.6040  1.1338 -0.2612
  128SOPE  C21613774   3.980   4.265   3.507 -0.1117 -0.0916  0.2815
  128SOPE  H16R13775   3.959   4.256   3.399 -0.0152  1.2757  0.1369
  128SOPE  H16S13776   4.042   4.182   3.550 -1.2859 -0.3101  1.6263
  128SOPE  C21713777   4.072   4.385   3.531  0.2927  0.1719 -0.3878
  128SOPE  H17R13778   4.116   4.375   3.633 -0.0132  0.9127 -0.1794
  128SOPE  H17S13779   4.008   4.475   3.526  0.0701  0.0473  0.1763
  128SOPE  C21813780   4.190   4.401   3.440 -0.2052  0.3759 -0.1791
  128SOPE  H18R13781   4.255   4.311   3.450 -1.3063 -0.7998 -2.7395
  128SOPE  H18S13782   4.242   4.495   3.468 -3.1737  2.1991 -0.3876
  128SOPE  H18T13783   4.150   4.410   3.337 -0.1358  0.2515 -0.2163
  128SOPE   C3313784   2.368   4.919   2.900 -0.2681 -0.3939 -0.0158
  128SOPE   H3X13785   2.433   4.829   2.896 -1.4934 -1.3772  1.0948
  128SOPE   H3Y13786   2.268   4.870   2.905 -0.1965 -0.4385  1.2495
  128SOPE   C3413787   2.398   4.996   3.032 -0.2542 -0.2384  0.8195
  128SOPE   H4X13788   2.508   5.013   3.028 -0.1178 -1.2341  0.1603
  128SOPE   H4Y13789   2.375   4.933   3.121 -0.2189 -1.1027  0.2221
  128SOPE   C3513790   2.321   5.131   3.043 -0.4269 -0.4099 -0.3277
  128SOPE   H5X13791   2.344   5.199   2.958  0.2266  0.4020  0.4750
  128SOPE   H5Y13792   2.361   5.201   3.120 -2.4192 -2.0937  2.4053
  128SOPE   C3613793   2.170   5.122   3.070 -0.2953 -0.4656  0.1134
  128SOPE   H6X13794   2.139   5.023   3.030 -1.2845 -3.0870  6.1587
  128SOPE   H6Y13795   2.122   5.207   3.017  1.7584 -0.9353 -2.7339
  128SOPE   C3713796   2.130   5.131   3.216 -0.5752  0.5055 -0.6104
  128SOPE   H7X13797   2.033   5.080   3.229  0.9998 -2.0326  2.9893
  128SOPE   H7Y13798   2.132   5.232   3.262  0.8935 -0.1429  0.8653
  128SOPE   C3813799   2.213   5.049   3.321 -0.1181 -0.0755 -0.0256
  128SOPE   H8X13800   2.304   5.110   3.341 -0.6267  0.8271 -0.4252
  128SOPE   H8Y13801   2.245   4.948   3.288 -0.1269 -0.1445  0.1759
  128SOPE   C3913802   2.131   5.037   3.449 -0.3249 -0.2027  0.0259
  128SOPE   H9X13803   2.049   4.963   3.434  0.3280 -1.1337  0.9282
  128SOPE   H9Y13804   2.103   5.143   3.468  1.5180  0.1154  1.1128
  128SOPE  C31013805   2.217   4.997   3.566 -0.1919 -0.3326 -0.0299
  128SOPE  H10X13806   2.310   5.058   3.565  0.1805 -0.8636 -2.1035
  128SOPE  H10Y13807   2.251   4.891   3.560  3.1362  0.6904 -1.8309
  128SOPE  C31113808   2.152   5.015   3.697  0.5583 -1.0817 -0.2559
  128SOPE  H11X13809   2.066   4.944   3.697  2.2636 -3.3611 -3.3480
  128SOPE  H11Y13810   2.105   5.116   3.708  1.9406 -0.4848  0.3577
  128SOPE  C31213811   2.254   4.995   3.816 -0.6238  0.1477  0.2012
  128SOPE  H12X13812   2.346   5.057   3.805 -1.5982  1.4867 -0.7632
  128SOPE  H12Y13813   2.299   4.896   3.796 -0.6168  0.8532 -4.5197
  128SOPE  C31313814   2.214   5.017   3.959 -0.3085  0.2101  0.1640
  128SOPE  H13X13815   2.191   5.125   3.970  0.9973  0.5904 -0.6761
  128SOPE  H13Y13816   2.285   4.980   4.036 -0.7546  1.3270  1.1484
  128SOPE  C31413817   2.082   4.942   3.985  0.0072 -0.0406  0.2169
  128SOPE  H14X13818   2.105   4.834   3.978  2.0552  0.4060 -0.7385
  128SOPE  H14Y13819   2.004   4.965   3.909 -3.0001 -1.4322  2.6381
  128SOPE  C31513820   2.013   4.995   4.117 -0.1375  0.7407  0.3057
  128SOPE  H15X13821   1.907   4.962   4.115 -0.8809  2.9734 -0.3074
  128SOPE  H15Y13822   2.011   5.106   4.111  0.6549  0.7988  0.9457
  128SOPE  C31613823   2.082   4.953   4.248 -0.6866  0.1923 -0.5082
  128SOPE  H16X13824   2.192   4.947   4.240 -0.7604 -2.9370 -0.5866
  128SOPE  H16Y13825   2.051   4.846   4.258  0.7631 -0.0659  1.7753
  128SOPE  C31713826   2.050   5.036   4.374 -0.4078  0.2951 -0.5695
  128SOPE  H17X13827   1.942   5.059   4.384 -0.1411  1.2098  0.4854
  128SOPE  H17Y13828   2.102   5.134   4.374  1.3814 -0.5948  0.7088
  128SOPE  C31813829   2.098   4.982   4.512 -0.6234 -0.0123 -0.4759
  128SOPE  H18X13830   2.081   5.056   4.593  1.6756 -2.0634  2.0693
  128SOPE  H18Y13831   2.208   4.962   4.515 -0.6775 -0.3365 -0.6470
  128SOPE  H18Z13832   2.046   4.891   4.547 -0.4476  0.8176  2.1150
  129OSM      N13833   0.674   3.054   7.167 -0.7903  0.2907 -0.0301
  129OSM    C1513834   0.531   3.062   7.202  0.0740  0.0901  0.5799
  129OSM   H15A13835   0.467   3.109   7.129  1.4216  1.4845  0.2569
  129OSM   H15B13836   0.503   3.113   7.293 -0.3997  0.4217  0.2484
  129OSM   H15C13837   0.489   2.963   7.214  0.1361  0.0324  0.3237
  129OSM    C1413838   0.729   3.193   7.149 -0.4278  0.5775  0.0271
  129OSM   H14A13839   0.716   3.262   7.231  1.3962  1.2942 -0.2393
  129OSM   H14B13840   0.669   3.234   7.069 -2.1958 -0.6806  0.6450
  129OSM   H14C13841   0.834   3.200   7.127 -0.1322 -0.8662  0.9140
  129OSM    C1313842   0.741   2.994   7.283  0.5821  0.2768 -0.0701
  129OSM   H13A13843   0.849   2.994   7.279  0.5884 -1.4336 -0.4777
  129OSM   H13B13844   0.707   2.892   7.292 -1.1494  0.3097 -4.1472
  129OSM   H13C13845   0.699   3.054   7.362 -3.5493 -1.2142 -0.9036
  129OSM    C1213846   0.706   2.977   7.036  0.6783 -0.3540  0.2314
  129OSM   H12A13847   0.701   2.870   7.051  0.2320 -0.7639 -2.4485
  129OSM   H12B13848   0.812   2.989   7.019  0.5860  0.0667 -0.0556
  129OSM    C1113849   0.647   3.020   6.903 -0.2600 -1.1619 -0.4366
  129OSM   H11A13850   0.699   3.115   6.876  1.3330 -2.3311 -1.6466
  129OSM   H11B13851   0.539   3.044   6.913 -0.2966 -0.9416 -1.2567
  129OSM      P13852   0.601   2.783   6.814 -0.0167 -0.5445 -0.1678
  129OSM    O1313853   0.641   2.708   6.932  0.0209  0.6773 -0.1303
  129OSM    O1413854   0.454   2.802   6.787  0.0415 -0.1974  0.0831
  129OSM    O1113855   0.650   2.714   6.680 -0.0996 -0.6541  0.0449
  129OSM    O1213856   0.671   2.921   6.809 -0.1284  0.7346  0.2164
  129OSM    C1S13857   0.627   2.769   6.552 -0.1339  0.1316 -0.0758
  129OSM    H1S13858   0.711   2.839   6.534 -0.2478  0.2107 -0.3132
  129OSM    H1T13859   0.540   2.838   6.549 -1.4405 -1.4668 -1.8997
  129OSM     NF13860   0.628   2.703   6.307  0.2748  0.4871  0.1242
  129OSM    HNF13861   0.546   2.678   6.257 -0.5376  0.6598  1.3143
  129OSM    C2S13862   0.633   2.653   6.443  0.0053 -0.2676  1.0205
  129OSM    H2S13863   0.729   2.601   6.464 -0.6981 -1.5851  1.0852
  129OSM    C3S13864   0.537   2.534   6.459 -0.0815  0.0197  0.2861
  129OSM    H3S13865   0.443   2.579   6.421  1.0873  0.2861 -2.5437
  129OSM     O313866   0.520   2.494   6.590  0.3054 -0.5356  0.2959
  129OSM    HO313867   0.569   2.566   6.630 -0.3058  0.5476 -0.8386
  129OSM    C4S13868   0.583   2.427   6.363 -0.4425  0.5793  0.5262
  129OSM    H4S13869   0.692   2.408   6.365 -0.9517 -2.9342  1.4188
  129OSM    C5S13870   0.509   2.359   6.273 -0.5457 -0.3828  0.3035
  129OSM    H5S13871   0.400   2.373   6.277 -0.9449 -1.9431 -2.6348
  129OSM    C6S13872   0.555   2.270   6.159 -0.1652  0.2531  0.3795
  129OSM    H6S13873   0.473   2.256   6.085 -0.5964 -1.4138  1.1178
  129OSM    H6T13874   0.582   2.169   6.196 -1.1316 -0.8614 -1.7722
  129OSM    C7S13875   0.663   2.333   6.069 -0.8531 -0.1816  0.6840
  129OSM    H7S13876   0.760   2.332   6.123  0.9259 -1.2152 -2.2830
  129OSM    H7T13877   0.638   2.441   6.053 -1.8559 -0.1067  2.4872
  129OSM    C8S13878   0.677   2.264   5.930  0.3467 -0.1089 -0.1169
  129OSM    H8S13879   0.585   2.281   5.870 -0.6168  0.9758  1.5820
  129OSM    H8T13880   0.697   2.155   5.937  0.9134 -0.0145 -0.2824
  129OSM    C9S13881   0.790   2.325   5.842 -0.2186 -0.1549 -0.6667
  129OSM    H9S13882   0.781   2.270   5.746  1.9557 -1.5647 -0.1428
  129OSM    H9T13883   0.894   2.312   5.880 -0.5497  0.4460  0.4956
  129OSM   C10S13884   0.778   2.473   5.824  0.1310 -0.1707  0.3507
  129OSM   H10S13885   0.812   2.520   5.919 -1.3593 -0.7876  1.2202
  129OSM   H10T13886   0.673   2.504   5.807  0.9415  2.3237 -0.6776
  129OSM   C11S13887   0.866   2.540   5.715  0.9139 -0.1293 -0.6494
  129OSM   H11S13888   0.964   2.491   5.734  0.9169 -0.0237 -0.3910
  129OSM   H11T13889   0.883   2.649   5.720 -0.6840  0.2443 -2.0811
  129OSM   C12S13890   0.823   2.494   5.574  0.5547  0.0235 -0.2940
  129OSM   H12S13891   0.736   2.560   5.554 -1.4006 -2.3852 -0.2224
  129OSM   H12T13892   0.778   2.393   5.587  2.2882 -0.5883  1.4017
  129OSM   C13S13893   0.924   2.493   5.461  0.3878  0.0425  0.0255
  129OSM   H13S13894   1.026   2.464   5.493  0.0885  1.3726  2.4636
  129OSM   H13T13895   0.923   2.603   5.444  0.6194 -0.1743 -1.5313
  129OSM   C14S13896   0.878   2.413   5.335 -0.4836  0.3177  0.3551
  129OSM   H14S13897   0.776   2.450   5.311 -0.5451  0.3635  0.6960
  129OSM   H14T13898   0.884   2.304   5.357  4.5908  0.2197 -0.2907
  129OSM   C15S13899   0.977   2.450   5.224  0.0048  0.3773  0.2601
  129OSM   H15S13900   1.081   2.448   5.263 -0.2334  0.4860  0.9111
  129OSM   H15T13901   0.959   2.558   5.204  2.8097  1.1460  1.3921
  129OSM   C16S13902   0.958   2.369   5.097 -0.3745  0.0966  0.0096
  129OSM   H16S13903   0.859   2.405   5.063 -0.6477  0.0093  0.6811
  129OSM   H16T13904   0.960   2.258   5.105  5.1964 -0.1290 -0.4665
  129OSM   C17S13905   1.067   2.402   4.994  0.5150  0.4322 -0.5422
  129OSM   H17S13906   1.038   2.355   4.897  0.5385  3.4149 -2.1129
  129OSM   H17T13907   1.163   2.358   5.028 -0.3634  0.3726  2.0237
  129OSM   C18S13908   1.090   2.548   4.949 -0.2669  0.6592  0.3100
  129OSM   H18S13909   1.131   2.612   5.031 -0.4583  0.8839  0.2313
  129OSM   H18T13910   0.991   2.588   4.918 -0.4619 -0.3638 -0.4378
  129OSM   H18U13911   1.172   2.544   4.875  1.5276 -0.4725  2.2325
  129OSM    C1F13912   0.717   2.790   6.253  0.0981 -0.4537  0.3752
  129OSM     OF13913   0.818   2.836   6.309 -0.1225  0.6254 -0.5661
  129OSM    C2F13914   0.665   2.828   6.115  0.4147 -0.4063  0.1243
  129OSM    H2F13915   0.593   2.911   6.129  1.2594  0.2068  0.9497
  129OSM    H2G13916   0.606   2.744   6.071  0.0181  0.3803 -0.8757
  129OSM    C3F13917   0.787   2.874   6.035  0.1281 -0.5033  0.6780
  129OSM    H3F13918   0.871   2.802   6.044 -1.1337 -1.9327  1.6425
  129OSM    H3G13919   0.827   2.973   6.066 -1.3462  0.4264 -0.2763
  129OSM    C4F13920   0.746   2.884   5.888  0.0777 -0.5286  0.4548
  129OSM    H4F13921   0.689   2.795   5.856  0.7503 -1.5716  2.0068
  129OSM    H4G13922   0.839   2.894   5.828  0.6207 -0.2319  1.3169
  129OSM    C5F13923   0.672   3.022   5.859  0.2572 -0.1688  0.1733
  129OSM    H5F13924   0.747   3.104   5.862  0.5921 -0.5095  1.8968
  129OSM    H5G13925   0.598   3.033   5.941  0.3368 -0.3786  0.2733
  129OSM    C6F13926   0.588   3.018   5.730 -0.3865  0.2013  0.2334
  129OSM    H6F13927   0.531   3.113   5.731  0.2770  0.6112  0.1659
  129OSM    H6G13928   0.525   2.928   5.744  0.6298 -0.2459  2.3987
  129OSM    C7F13929   0.670   3.005   5.603 -0.2342  0.1358  0.0697
  129OSM    H7F13930   0.770   3.053   5.616  0.5910 -1.8368  1.6421
  129OSM    H7G13931   0.630   3.066   5.520 -1.8009 -2.1363 -0.9599
  129OSM    C8F13932   0.687   2.861   5.551 -0.5409  0.3352 -0.4867
  129OSM    H8F13933   0.582   2.828   5.535 -0.4633  0.2255 -0.7848
  129OSM    H8G13934   0.729   2.797   5.632 -1.5374  2.3254  1.7150
  129OSM    C9F13935   0.761   2.845   5.418  0.2609  0.9447 -0.4250
  129OSM    H9F13936   0.857   2.792   5.426 -0.6250 -0.5138  1.4426
  129OSM   C10F13937   0.717   2.880   5.304  0.3663 -0.0657  0.1025
  129OSM   H10F13938   0.780   2.859   5.217 -1.0794  0.0013 -0.9847
  129OSM   C11F13939   0.586   2.950   5.275 -0.5998  0.5393  0.1402
  129OSM   H11F13940   0.551   3.007   5.364 -1.4239  0.3199 -0.0379
  129OSM   H11G13941   0.503   2.884   5.243 -0.1866  1.0092 -2.0870
  129OSM   C12F13942   0.609   3.040   5.154 -0.0478 -0.1453 -0.0197
  129OSM   H12F13943   0.695   3.107   5.172 -0.5260  0.1673  1.1479
  129OSM   H12G13944   0.513   3.095   5.140  0.0319  0.1065  0.4111
  129OSM   C13F13945   0.618   2.968   5.019 -0.3819 -0.2002 -0.2164
  129OSM   H13F13946   0.533   2.981   4.948 -1.8184 -2.6779  0.8756
  129OSM   H13G13947   0.625   2.859   5.040 -0.5019 -0.0323  0.7641
  129OSM   C14F13948   0.760   2.991   4.957 -0.6164  0.2313  0.1070
  129OSM   H14F13949   0.838   2.985   5.035 -1.8753  0.0326  1.3923
  129OSM   H14G13950   0.766   3.097   4.926 -1.4436  0.3020  0.1660
  129OSM   C15F13951   0.789   2.906   4.832  0.0580 -0.2443  0.2091
  129OSM   H15F13952   0.716   2.929   4.751  1.6966 -0.3746 -1.3793
  129OSM   H15G13953   0.784   2.797   4.852  0.4483 -0.2748  0.1494
  129OSM   C16F13954   0.918   2.949   4.772 -0.0487 -0.0100 -0.0344
  129OSM   H16F13955   0.997   2.909   4.838 -1.1269  1.2552  2.1207
  129OSM   H16G13956   0.935   3.058   4.767 -1.2797  0.1955 -0.1987
  129OSM   C17F13957   0.950   2.902   4.631 -0.3760  0.2871  0.1232
  129OSM   H17F13958   0.893   2.970   4.565  3.5360  0.7370 -3.1757
  129OSM   H17G13959   0.925   2.796   4.608  0.8144 -0.6907  2.9353
  129OSM   C18F13960   1.096   2.921   4.595  0.0385  0.0836  0.5200
  129OSM   H18F13961   1.163   2.883   4.675 -0.2272  1.6004  1.5159
  129OSM   H18G13962   1.131   3.022   4.563  2.2964 -1.2034 -1.4642
  129OSM   H18H13963   1.106   2.878   4.493 -2.2219 -0.1615  0.3566
  130OSM      N13964   3.242   4.291   6.935  0.2652 -0.4097  0.2997
  130OSM    C1513965   3.199   4.363   7.064 -0.3385  0.2389 -0.4610
  130OSM   H15A13966   3.228   4.467   7.074  0.7060 -0.2212  2.0142
  130OSM   H15B13967   3.248   4.304   7.140  0.0214  0.1175 -0.7819
  130OSM   H15C13968   3.092   4.350   7.070 -0.1282 -2.2884 -1.2528
  130OSM    C1413969   3.385   4.306   6.913  0.5722  0.2533  0.4599
  130OSM   H14A13970   3.416   4.262   6.820  1.1985  1.0596  0.2723
  130OSM   H14B13971   3.449   4.259   6.986  4.5721 -0.4881 -3.1365
  130OSM   H14C13972   3.422   4.407   6.916  1.2321  0.0002  1.6902
  130OSM    C1313973   3.203   4.150   6.940  0.3723  0.4678  0.3805
  130OSM   H13A13974   3.111   4.137   6.995  0.1211 -2.1460 -0.5532
  130OSM   H13B13975   3.277   4.082   6.981 -0.7773 -0.4052  1.0825
  130OSM   H13C13976   3.168   4.126   6.841  1.4446 -0.1179  0.1362
  130OSM    C1213977   3.165   4.361   6.821 -0.0254 -0.1085 -0.5051
  130OSM   H12A13978   3.191   4.308   6.730 -0.6830  1.1476 -1.4414
  130OSM   H12B13979   3.210   4.458   6.811 -0.2823 -0.0492 -1.1057
  130OSM    C1113980   3.010   4.387   6.832 -0.2589 -0.0528  0.7910
  130OSM   H11A13981   2.988   4.459   6.751  0.5887  0.7680  1.2648
  130OSM   H11B13982   2.989   4.439   6.928 -0.8844 -0.6050  0.9635
  130OSM      P13983   2.937   4.157   6.717 -0.2967  0.7515  0.2373
  130OSM    O1313984   2.986   4.036   6.781 -0.2884 -0.5265 -0.3568
  130OSM    O1413985   2.800   4.143   6.659 -0.3136 -0.1019  0.2923
  130OSM    O1113986   3.045   4.210   6.611  0.5433  0.0384  0.2018
  130OSM    O1213987   2.938   4.265   6.824 -0.0735 -0.3795  0.2541
  130OSM    C1S13988   3.044   4.152   6.480 -0.0856  0.0394 -0.3999
  130OSM    H1S13989   3.007   4.047   6.486  1.9792 -0.9264 -2.6854
  130OSM    H1T13990   3.146   4.145   6.436 -0.1624  0.4173 -0.6472
  130OSM     NF13991   2.961   4.147   6.241 -0.1305 -0.0337 -0.3031
  130OSM    HNF13992   3.002   4.192   6.162  2.6785 -2.4118 -0.3547
  130OSM    C2S13993   2.955   4.226   6.365  0.3000  0.3223 -0.2244
  130OSM    H2S13994   2.849   4.224   6.398  1.0466 -0.4115  2.3769
  130OSM    C3S13995   2.996   4.377   6.360 -0.0614  0.8811 -0.3674
  130OSM    H3S13996   3.107   4.379   6.362  0.3142 -4.1356 -1.9046
  130OSM     O313997   2.967   4.444   6.478  0.1279  0.4972 -0.7506
  130OSM    HO313998   2.936   4.377   6.539  2.0257  1.7268  1.7472
  130OSM    C4S13999   2.942   4.440   6.238  0.0594  0.1503  0.4875
  130OSM    H4S14000   2.996   4.434   6.142 -1.7368  2.3907 -0.7880
  130OSM    C5S14001   2.818   4.487   6.224  0.0462  0.5924 -0.9072
  130OSM    H5S14002   2.757   4.479   6.315  2.9515  1.1023  1.2462
  130OSM    C6S14003   2.745   4.526   6.097  0.3560 -0.4320 -0.2804
  130OSM    H6S14004   2.655   4.466   6.070  0.0925 -0.4901  0.6900
  130OSM    H6T14005   2.819   4.519   6.014 -0.8292 -2.5815 -1.2526
  130OSM    C7S14006   2.697   4.672   6.121  0.5173 -0.1375  0.3972
  130OSM    H7S14007   2.784   4.740   6.133 -0.7078  1.4354  0.7470
  130OSM    H7T14008   2.631   4.665   6.210  1.3952 -0.0486  1.0627
  130OSM    C8S14009   2.599   4.729   6.016  0.1884  0.1677  0.5477
  130OSM    H8S14010   2.581   4.836   6.038 -0.9830 -0.2740  1.8906
  130OSM    H8T14011   2.496   4.693   6.039  1.1722 -1.5418  2.7445
  130OSM    C9S14012   2.632   4.699   5.874 -0.3231 -0.4328 -0.4374
  130OSM    H9S14013   2.625   4.589   5.862 -2.2111 -0.4574  0.4807
  130OSM    H9T14014   2.738   4.723   5.851 -1.1964  1.2610 -3.0103
  130OSM   C10S14015   2.551   4.781   5.771  0.5005 -0.3698  0.0017
  130OSM   H10S14016   2.560   4.891   5.784 -1.4436 -0.2054  0.2621
  130OSM   H10T14017   2.449   4.755   5.807  0.8433  1.3271  2.4122
  130OSM   C11S14018   2.573   4.744   5.625  0.0279  0.3571 -1.0692
  130OSM   H11S14019   2.578   4.634   5.614 -0.3157 -0.3663  3.7903
  130OSM   H11T14020   2.680   4.773   5.619  0.3355  0.7300  3.0826
  130OSM   C12S14021   2.484   4.823   5.529 -0.3471 -0.0971 -0.1748
  130OSM   H12S14022   2.494   4.930   5.556 -1.0423 -0.8057  3.3512
  130OSM   H12T14023   2.381   4.783   5.543  0.0636 -1.5550 -1.1639
  130OSM   C13S14024   2.522   4.807   5.381  0.7588  0.7441  0.4681
  130OSM   H13S14025   2.523   4.697   5.369  2.2795  0.3161  3.4145
  130OSM   H13T14026   2.627   4.842   5.369  1.6319 -1.9044 -0.2678
  130OSM   C14S14027   2.430   4.880   5.286 -0.0828 -1.1740 -0.5906
  130OSM   H14S14028   2.425   4.991   5.299 -0.4936 -1.4423  2.0835
  130OSM   H14T14029   2.328   4.839   5.298  0.1717 -1.1482  2.5570
  130OSM   C15S14030   2.471   4.850   5.140 -0.6896  0.0394 -0.0955
  130OSM   H15S14031   2.484   4.742   5.115 -1.2184 -0.2583  0.8505
  130OSM   H15T14032   2.565   4.904   5.121 -1.1453  1.2249  0.9178
  130OSM   C16S14033   2.372   4.902   5.038 -0.1859  0.2961 -0.1954
  130OSM   H16S14034   2.338   5.001   5.076  1.1134  0.6206  0.1419
  130OSM   H16T14035   2.287   4.830   5.040  1.6836 -2.0221  1.1491
  130OSM   C17S14036   2.434   4.915   4.893  0.7133 -0.0581 -1.5479
  130OSM   H17S14037   2.463   4.821   4.842  2.5045  0.2313 -1.1294
  130OSM   H17T14038   2.522   4.981   4.904 -1.5798  2.9195  1.0881
  130OSM   C18S14039   2.330   4.979   4.794 -0.1358  0.5707  0.3671
  130OSM   H18S14040   2.308   5.081   4.831 -1.2187  0.6235 -0.3731
  130OSM   H18T14041   2.244   4.909   4.786  1.8993 -1.9962 -0.9255
  130OSM   H18U14042   2.377   5.001   4.695  2.4953  0.8052  1.5766
  130OSM    C1F14043   2.914   4.025   6.218  0.1469 -0.3720 -0.1438
  130OSM     OF14044   2.851   3.961   6.302  0.6002 -0.1446  0.5002
  130OSM    C2F14045   2.931   3.970   6.080 -0.5595 -0.4200  0.4456
  130OSM    H2F14046   3.031   3.922   6.082 -0.3861 -0.3202 -2.2350
  130OSM    H2G14047   2.927   4.057   6.011  0.9312 -0.4297  0.3229
  130OSM    C3F14048   2.833   3.851   6.047  0.0796  0.4278 -0.0367
  130OSM    H3F14049   2.725   3.877   6.042  0.2137  0.8690 -0.7772
  130OSM    H3G14050   2.848   3.773   6.124 -0.0299 -1.0804 -1.4899
  130OSM    C4F14051   2.869   3.790   5.909  0.6322  0.9450 -0.2978
  130OSM    H4F14052   2.802   3.702   5.903 -0.1958  1.4173  1.3698
  130OSM    H4G14053   2.973   3.750   5.916 -0.1069 -0.7985  1.7331
  130OSM    C5F14054   2.852   3.873   5.780  0.1995  0.0328 -0.1063
  130OSM    H5F14055   2.934   3.948   5.786 -0.5888  0.8062  1.6607
  130OSM    H5G14056   2.755   3.927   5.783 -0.6154 -1.4233  1.2785
  130OSM    C6F14057   2.865   3.787   5.655 -0.3083  0.1875 -0.3201
  130OSM    H6F14058   2.774   3.725   5.641 -1.0242  0.9892  0.6298
  130OSM    H6G14059   2.950   3.715   5.649  1.6810  2.4503 -0.7915
  130OSM    C7F14060   2.864   3.874   5.531 -0.4873 -0.1121 -0.3967
  130OSM    H7F14061   2.860   3.807   5.442 -3.1978  0.3833 -0.7165
  130OSM    H7G14062   2.954   3.940   5.527 -1.9053  1.9533  0.5406
  130OSM    C8F14063   2.745   3.972   5.526  0.4212 -0.5357 -0.2813
  130OSM    H8F14064   2.737   4.035   5.618  0.7672 -0.8404 -0.0391
  130OSM    H8G14065   2.653   3.909   5.519  0.3378 -0.5595  0.8583
  130OSM    C9F14066   2.765   4.061   5.407  0.2809  0.0977 -0.4396
  130OSM    H9F14067   2.767   4.014   5.307  0.6208  0.8475 -0.7923
  130OSM   C10F14068   2.773   4.194   5.408  0.9036 -0.6565  0.3548
  130OSM   H10F14069   2.805   4.245   5.316 -4.6161  1.2532 -0.9043
  130OSM   C11F14070   2.762   4.282   5.530 -0.1442  0.0491  0.0085
  130OSM   H11F14071   2.709   4.234   5.615 -0.2908  1.9637  1.0574
  130OSM   H11G14072   2.701   4.372   5.508  0.3412  0.2472 -0.5754
  130OSM   C12F14073   2.904   4.337   5.577 -0.3034  0.0592  0.4201
  130OSM   H12F14074   2.985   4.261   5.580  0.0160  0.4125  1.2669
  130OSM   H12G14075   2.888   4.377   5.680 -1.4374 -0.7532  0.5870
  130OSM   C13F14076   2.960   4.440   5.484 -0.0994 -0.6548  0.6551
  130OSM   H13F14077   2.893   4.528   5.495  1.6978  1.4700 -3.1513
  130OSM   H13G14078   2.946   4.414   5.376 -1.3548  1.5362  0.2336
  130OSM   C14F14079   3.105   4.491   5.521 -0.1711 -0.8122 -0.2714
  130OSM   H14F14080   3.125   4.474   5.629 -0.5958 -0.8409 -0.1973
  130OSM   H14G14081   3.111   4.597   5.491 -1.2923 -0.8749 -0.7466
  130OSM   C15F14082   3.219   4.411   5.459  0.8533  0.6847 -1.0294
  130OSM   H15F14083   3.192   4.305   5.481  1.8117  0.6827  0.3154
  130OSM   H15G14084   3.318   4.434   5.504  1.5452 -0.9037 -1.6690
  130OSM   C16F14085   3.232   4.428   5.313 -0.9034 -0.6007  0.3772
  130OSM   H16F14086   3.136   4.407   5.260 -0.4894 -2.1968  0.2295
  130OSM   H16G14087   3.308   4.355   5.279  0.7764  1.3797 -0.3361
  130OSM   C17F14088   3.275   4.576   5.282 -0.2347  0.5911 -0.4643
  130OSM   H17F14089   3.364   4.602   5.342 -0.8189  0.2903  0.5583
  130OSM   H17G14090   3.198   4.654   5.300 -0.7079  0.0718 -0.1921
  130OSM   C18F14091   3.302   4.592   5.135 -0.0770 -0.2807 -0.6010
  130OSM   H18F14092   3.330   4.695   5.107 -2.3366  0.9040  1.1582
  130OSM   H18G14093   3.213   4.555   5.079 -0.2972 -0.0982 -0.3712
  130OSM   H18H14094   3.390   4.526   5.120  0.6496  0.3406  0.7881
  131OSM      N14095   2.838   1.671   6.806  0.1637  0.6692 -0.2290
  131OSM    C1514096   2.908   1.547   6.829 -0.0203  0.2043  0.0549
  131OSM   H15A14097   2.867   1.461   6.778 -2.8114  1.2826  0.3389
  131OSM   H15B14098   2.921   1.523   6.933 -0.8414  1.7808  0.5511
  131OSM   H15C14099   3.005   1.563   6.784  0.7489  1.1921  1.9457
  131OSM    C1414100   2.701   1.654   6.866 -0.1363  0.1592  0.3493
  131OSM   H14A14101   2.725   1.636   6.969  0.9361  1.6075  0.3889
  131OSM   H14B14102   2.659   1.572   6.810  0.8281 -1.2261  1.5830
  131OSM   H14C14103   2.642   1.744   6.854  0.8720  1.0945  2.1141
  131OSM    C1314104   2.913   1.775   6.885 -0.1703 -0.5245 -0.1672
  131OSM   H13A14105   2.885   1.778   6.989 -1.0389  3.3048 -0.3433
  131OSM   H13B14106   2.900   1.880   6.860 -1.6187 -0.7543 -0.5040
  131OSM   H13C14107   3.019   1.756   6.883 -0.0062 -0.1875  2.3979
  131OSM    C1214108   2.823   1.692   6.654 -0.3002 -0.0428 -0.3548
  131OSM   H12A14109   2.918   1.683   6.603 -0.4762 -1.6425 -0.4649
  131OSM   H12B14110   2.789   1.791   6.628 -1.3280 -0.6647 -1.4292
  131OSM    C1114111   2.727   1.593   6.580 -0.4129  0.1006 -0.4010
  131OSM   H11A14112   2.740   1.486   6.608  3.1243 -0.2642 -2.7658
  131OSM   H11B14113   2.744   1.595   6.470  1.4857  0.2999 -0.1361
  131OSM      P14114   2.532   1.763   6.544 -0.3772 -0.7898  0.3240
  131OSM    O1314115   2.385   1.778   6.573  0.0996 -0.1233  0.0459
  131OSM    O1414116   2.621   1.873   6.580 -0.5195 -0.2244  0.8368
  131OSM    O1114117   2.553   1.716   6.393  0.5372  0.0288  0.5612
  131OSM    O1214118   2.592   1.631   6.611  0.3026 -0.7108  0.7438
  131OSM    C1S14119   2.484   1.790   6.287 -0.1047 -0.0970 -0.5653
  131OSM    H1S14120   2.379   1.822   6.306  0.0101 -0.3673  0.5698
  131OSM    H1T14121   2.464   1.722   6.201 -1.1372  0.0912 -0.4840
  131OSM     NF14122   2.468   1.967   6.120  0.1908  0.0537 -0.2252
  131OSM    HNF14123   2.486   1.933   6.028  0.5223  0.2585 -0.2368
  131OSM    C2S14124   2.557   1.918   6.226  0.6406  0.2218 -0.2780
  131OSM    H2S14125   2.563   1.989   6.312 -1.3489  0.4013 -0.2561
  131OSM    C3S14126   2.698   1.885   6.182  0.0844 -0.1676  0.4608
  131OSM    H3S14127   2.698   1.797   6.114  1.0812  0.7400 -0.7615
  131OSM     O314128   2.774   1.832   6.287 -0.4705  0.4090 -0.1952
  131OSM    HO314129   2.705   1.778   6.327 -1.4476  2.0067  0.4044
  131OSM    C4S14130   2.779   2.000   6.129 -0.8095 -0.1842 -0.0461
  131OSM    H4S14131   2.749   2.093   6.180  0.8122  1.1383 -1.3706
  131OSM    C5S14132   2.866   2.015   6.026 -0.5124  0.1922  0.4297
  131OSM    H5S14133   2.887   1.927   5.963  0.5177  0.9690 -0.3588
  131OSM    C6S14134   2.933   2.142   5.997  0.0530  0.7203 -0.3847
  131OSM    H6S14135   3.043   2.129   6.009  0.0486  0.3481 -0.7148
  131OSM    H6T14136   2.914   2.208   6.084 -1.8002  0.1450 -0.3163
  131OSM    C7S14137   2.888   2.193   5.864 -0.2809 -0.4924  0.2355
  131OSM    H7S14138   2.932   2.295   5.855 -0.1985 -0.5678 -0.2191
  131OSM    H7T14139   2.777   2.201   5.859 -0.4675 -3.0440 -1.4354
  131OSM    C8S14140   2.918   2.117   5.735 -0.0749 -0.1253  0.0822
  131OSM    H8S14141   2.867   2.020   5.750 -2.5421  1.1961  0.7467
  131OSM    H8T14142   3.025   2.087   5.735  0.9285  3.0604  0.5821
  131OSM    C9S14143   2.865   2.185   5.608  0.2519 -0.0382  0.4015
  131OSM    H9S14144   2.761   2.219   5.626  0.6515  0.7367  1.3379
  131OSM    H9T14145   2.858   2.105   5.531  0.0916  0.0235  0.3519
  131OSM   C10S14146   2.951   2.303   5.558  0.0432 -0.0039 -0.2893
  131OSM   H10S14147   3.056   2.267   5.557 -0.2500 -0.9303  0.7577
  131OSM   H10T14148   2.956   2.391   5.626  0.1818  0.4067 -0.8280
  131OSM   C11S14149   2.903   2.361   5.419  0.3376 -0.0612 -0.7937
  131OSM   H11S14150   2.962   2.453   5.403  0.7586 -0.6851 -3.1257
  131OSM   H11T14151   2.792   2.365   5.413  0.2083 -0.3127  0.8499
  131OSM   C12S14152   2.946   2.261   5.307 -0.0023  0.0074 -0.6274
  131OSM   H12S14153   2.884   2.169   5.293 -1.9841  1.3210 -0.9945
  131OSM   H12T14154   3.046   2.219   5.328 -0.2405 -0.7450 -0.9490
  131OSM   C13S14155   2.955   2.322   5.166  0.1163  0.6128  0.6597
  131OSM   H13S14156   2.868   2.388   5.146 -0.5319  0.1803  1.8856
  131OSM   H13T14157   2.948   2.238   5.093 -1.2614  0.7961  0.5613
  131OSM   C14S14158   3.086   2.395   5.133 -0.4878 -0.0218  0.2684
  131OSM   H14S14159   3.163   2.318   5.155 -0.5491 -0.0543  0.3698
  131OSM   H14T14160   3.089   2.477   5.209 -2.0299 -1.2489  1.7158
  131OSM   C15S14161   3.090   2.464   4.997  0.4174  0.6146  0.4904
  131OSM   H15S14162   3.186   2.519   4.985  0.9431 -0.2163  0.7884
  131OSM   H15T14163   3.010   2.539   4.979  3.3211  4.3550  1.9304
  131OSM   C16S14164   3.069   2.360   4.875  0.0363 -0.0480  0.2777
  131OSM   H16S14165   2.978   2.302   4.901 -0.8927  0.9845 -0.6121
  131OSM   H16T14166   3.147   2.281   4.880 -1.1550 -1.2105  4.0554
  131OSM   C17S14167   3.041   2.434   4.749 -0.1491  0.2828  0.4719
  131OSM   H17S14168   3.118   2.511   4.729  0.5658 -0.5601 -0.1026
  131OSM   H17T14169   2.950   2.496   4.761 -0.9405 -0.3938 -1.5331
  131OSM   C18S14170   3.020   2.341   4.629 -0.4247 -0.0597 -0.4557
  131OSM   H18S14171   2.940   2.270   4.658 -1.6834  1.1405 -0.8810
  131OSM   H18T14172   3.114   2.282   4.631  0.1410  0.7789  2.0140
  131OSM   H18U14173   2.992   2.397   4.538 -0.8717 -0.3576 -0.5021
  131OSM    C1F14174   2.361   2.035   6.159 -0.7951 -0.2840  0.8489
  131OSM     OF14175   2.348   2.084   6.269  0.6480 -0.1806  0.5428
  131OSM    C2F14176   2.260   2.048   6.051  0.4901  0.0508 -0.6316
  131OSM    H2F14177   2.161   2.016   6.091  0.7206  1.3970  1.1421
  131OSM    H2G14178   2.291   1.988   5.963 -1.8894  0.5549 -1.8900
  131OSM    C3F14179   2.243   2.198   6.014 -0.6686 -0.2160 -0.0418
  131OSM    H3F14180   2.343   2.247   6.007 -1.6527  1.9651  0.3937
  131OSM    H3G14181   2.205   2.254   6.102 -0.6380  0.1470 -0.2583
  131OSM    C4F14182   2.159   2.229   5.886  0.1747  0.0164 -0.2284
  131OSM    H4F14183   2.051   2.223   5.912 -0.0244  1.8988 -0.4774
  131OSM    H4G14184   2.183   2.156   5.807  1.3259  1.2301 -1.0519
  131OSM    C5F14185   2.169   2.370   5.831 -0.0753  0.6074 -0.0596
  131OSM    H5F14186   2.279   2.388   5.828  0.0064  0.3782  1.2347
  131OSM    H5G14187   2.128   2.448   5.898 -1.5279 -2.3113  2.6459
  131OSM    C6F14188   2.105   2.384   5.695  0.4518 -0.0436 -0.2491
  131OSM    H6F14189   1.999   2.389   5.729  1.5569  1.8085  3.3400
  131OSM    H6G14190   2.131   2.299   5.627 -0.1957 -0.9850  0.6479
  131OSM    C7F14191   2.157   2.508   5.615  0.8805  0.2247 -0.8538
  131OSM    H7F14192   2.256   2.493   5.568  0.6262 -0.5105 -1.1770
  131OSM    H7G14193   2.163   2.588   5.692 -0.7002  0.4547 -0.9307
  131OSM    C8F14194   2.070   2.553   5.498 -0.2259  0.0261  0.3269
  131OSM    H8F14195   1.980   2.587   5.553  0.7228  3.0096  0.2078
  131OSM    H8G14196   2.038   2.467   5.434 -1.0669 -0.7851  1.7834
  131OSM    C9F14197   2.123   2.668   5.414 -0.2421  0.0464 -0.4428
  131OSM    H9F14198   2.097   2.762   5.465 -0.8052 -0.6622  0.6281
  131OSM   C10F14199   2.185   2.659   5.296 -0.7059 -0.6810 -0.1045
  131OSM   H10F14200   2.221   2.753   5.252  0.5392 -1.0820  0.0092
  131OSM   C11F14201   2.235   2.532   5.224  0.3179  0.5539 -0.3113
  131OSM   H11F14202   2.152   2.461   5.244  1.1132  0.2573  2.2850
  131OSM   H11G14203   2.333   2.498   5.264  0.4222 -3.6350 -3.4696
  131OSM   C12F14204   2.272   2.559   5.079  0.1213 -0.3653  0.5090
  131OSM   H12F14205   2.330   2.469   5.052  0.0916 -0.6390  1.3456
  131OSM   H12G14206   2.335   2.650   5.065 -0.3708 -0.0912 -0.0072
  131OSM   C13F14207   2.143   2.581   4.991 -0.1531  0.4193 -0.0080
  131OSM   H13F14208   2.097   2.681   5.003 -0.3634  0.4696 -1.1352
  131OSM   H13G14209   2.067   2.507   5.023  0.2185 -0.2840 -0.7116
  131OSM   C14F14210   2.176   2.541   4.843 -0.4883  0.4713  0.0471
  131OSM   H14F14211   2.073   2.543   4.801 -1.1778  1.5286  1.6813
  131OSM   H14G14212   2.231   2.446   4.829 -1.2137  0.1426 -0.6940
  131OSM   C15F14213   2.257   2.655   4.776  0.0384 -0.0095 -0.5048
  131OSM   H15F14214   2.341   2.693   4.837 -2.3731  4.7092  0.3956
  131OSM   H15G14215   2.188   2.741   4.761 -0.0033  0.1452  0.4819
  131OSM   C16F14216   2.322   2.611   4.638  0.7824 -0.4698  0.6750
  131OSM   H16F14217   2.337   2.703   4.577 -1.0343  0.5357  1.6456
  131OSM   H16G14218   2.240   2.555   4.588 -0.8366  0.6966  1.9279
  131OSM   C17F14219   2.458   2.535   4.639 -0.0206 -0.6741 -1.1360
  131OSM   H17F14220   2.445   2.431   4.676  2.1900  0.0441  2.0567
  131OSM   H17G14221   2.541   2.566   4.706 -0.0741 -2.7602 -0.0182
  131OSM   C18F14222   2.517   2.540   4.499 -0.0792  0.6864 -0.3846
  131OSM   H18F14223   2.515   2.649   4.475 -0.3358  0.9770  0.8901
  131OSM   H18G14224   2.451   2.495   4.422  1.5042 -1.1314 -0.7596
  131OSM   H18H14225   2.622   2.504   4.492 -0.7582 -1.0356 -3.8815
  132OSM      N14226   6.900   5.164   6.389 -1.0495 -0.2662 -0.3753
  132OSM    C1514227   6.968   5.231   6.506  0.3454 -0.5283 -0.6673
  132OSM   H15A14228   7.051   5.172   6.541  1.5447  0.8942 -1.0527
  132OSM   H15B14229   6.897   5.254   6.585 -1.1992 -0.0233 -2.1388
  132OSM   H15C14230   7.015   5.324   6.478 -2.9136  1.0980 -1.2043
  132OSM    C1414231   7.007   5.142   6.289  0.0343  0.6507  0.5026
  132OSM   H14A14232   7.091   5.078   6.313  0.4379 -0.9190 -4.0803
  132OSM   H14B14233   7.046   5.238   6.257 -0.1390  0.5633  0.0097
  132OSM   H14C14234   6.955   5.092   6.208 -0.7444 -0.8907  1.8984
  132OSM    C1314235   6.847   5.034   6.427 -0.4356  0.5112 -0.1721
  132OSM   H13A14236   6.909   4.993   6.506 -1.0941 -0.1639  0.0103
  132OSM   H13B14237   6.847   4.965   6.344  1.5963 -1.1191  1.0630
  132OSM   H13C14238   6.749   5.051   6.470 -0.2151 -0.7597  0.9147
  132OSM    C1214239   6.790   5.261   6.336 -0.3032  0.0045 -0.1730
  132OSM   H12A14240   6.756   5.204   6.250  0.8007  2.3052 -2.2500
  132OSM   H12B14241   6.829   5.354   6.297  0.5408 -0.2243  0.1229
  132OSM    C1114242   6.674   5.289   6.438 -0.1756 -0.3087  0.0780
  132OSM   H11A14243   6.615   5.380   6.413  2.0352  0.4047 -3.2358
  132OSM   H11B14244   6.718   5.318   6.536  1.8462  2.1287 -1.4399
  132OSM      P14245   6.447   5.145   6.408 -0.0197 -0.3007  0.0238
  132OSM    O1314246   6.445   5.004   6.354 -0.3835  0.3671 -0.8066
  132OSM    O1414247   6.347   5.175   6.506  0.3821 -0.8252  0.0638
  132OSM    O1114248   6.430   5.236   6.280 -0.0444  0.3124 -0.5190
  132OSM    O1214249   6.595   5.171   6.458 -0.0299  0.0663  0.1846
  132OSM    C1S14250   6.484   5.191   6.153  0.1168 -0.3881 -0.2448
  132OSM    H1S14251   6.531   5.090   6.150 -0.2908 -0.5516 -1.6194
  132OSM    H1T14252   6.564   5.260   6.119 -0.0208 -0.2153 -0.2202
  132OSM     NF14253   6.448   5.160   5.909  0.0578  0.3484  0.0025
  132OSM    HNF14254   6.476   5.230   5.845  1.6816 -0.0755  0.1975
  132OSM    C2S14255   6.384   5.196   6.033 -0.7609  0.2401 -0.2995
  132OSM    H2S14256   6.296   5.132   6.055 -0.6436  0.3893  0.6615
  132OSM    C3S14257   6.319   5.342   6.032 -0.6585  0.4224  0.5351
  132OSM    H3S14258   6.400   5.409   5.996 -0.2738  0.0996  0.7892
  132OSM     O314259   6.272   5.404   6.152  0.6023 -0.1828 -0.2857
  132OSM    HO314260   6.330   5.369   6.219  1.7588 -0.3026 -1.3198
  132OSM    C4S14261   6.214   5.349   5.916 -0.1362  0.2616 -0.2129
  132OSM    H4S14262   6.249   5.395   5.822 -0.1284  0.5142 -0.0863
  132OSM    C5S14263   6.095   5.295   5.938  0.4645 -0.3855 -0.0722
  132OSM    H5S14264   6.073   5.258   6.039 -1.1937  0.8031  0.0333
  132OSM    C6S14265   5.977   5.287   5.840 -0.0385  0.2725 -0.2772
  132OSM    H6S14266   5.885   5.328   5.888  0.3948  0.2686  0.5700
  132OSM    H6T14267   5.950   5.182   5.817  2.8384 -0.3821 -1.0881
  132OSM    C7S14268   6.001   5.355   5.706 -0.3612 -0.6150  0.3965
  132OSM    H7S14269   6.101   5.339   5.661 -1.4017  0.9864 -2.7182
  132OSM    H7T14270   5.990   5.465   5.719  2.2021 -0.4065  1.4033
  132OSM    C8S14271   5.901   5.311   5.592  0.4679 -0.0036 -0.0264
  132OSM    H8S14272   5.797   5.333   5.626  0.0695 -0.8148 -0.7065
  132OSM    H8T14273   5.926   5.203   5.583 -3.7684 -1.0597 -1.0799
  132OSM    C9S14274   5.939   5.390   5.464  0.4942  0.7349  0.4382
  132OSM    H9S14275   6.048   5.392   5.443  0.3352 -0.6561 -0.6955
  132OSM    H9T14276   5.908   5.496   5.475 -1.5527  0.2730 -0.2830
  132OSM   C10S14277   5.874   5.332   5.333  0.9561  0.0279 -0.5507
  132OSM   H10S14278   5.764   5.348   5.329  0.6561 -1.7410 -0.3977
  132OSM   H10T14279   5.881   5.221   5.339 -0.2195 -0.0455 -0.2236
  132OSM   C11S14280   5.929   5.397   5.201 -0.0106 -0.5957 -0.1252
  132OSM   H11S14281   6.038   5.377   5.194  0.2076  0.9506 -1.4866
  132OSM   H11T14282   5.910   5.506   5.194  0.6092 -0.3919  1.0156
  132OSM   C12S14283   5.868   5.322   5.080  0.0553  0.9416 -0.4066
  132OSM   H12S14284   5.766   5.360   5.063 -0.2682 -0.1427 -0.9923
  132OSM   H12T14285   5.857   5.214   5.105  0.4797  0.1937 -3.1670
  132OSM   C13S14286   5.948   5.322   4.954  0.2869  0.1873  0.2654
  132OSM   H13S14287   6.048   5.275   4.966  0.7451  0.3754 -2.1749
  132OSM   H13T14288   5.960   5.429   4.927 -0.0928 -0.1989 -1.6286
  132OSM   C14S14289   5.875   5.243   4.843 -0.2146  0.7652 -0.3018
  132OSM   H14S14290   5.782   5.294   4.811 -0.2042  1.2074  0.3580
  132OSM   H14T14291   5.860   5.140   4.882  3.3470  0.0790 -0.3803
  132OSM   C15S14292   5.959   5.231   4.711 -0.1182 -0.1376  0.7788
  132OSM   H15S14293   5.891   5.173   4.646 -1.4034  1.4673  0.6260
  132OSM   H15T14294   6.054   5.178   4.732  0.4835  0.4213 -0.4681
  132OSM   C16S14295   5.987   5.372   4.660  0.5728  0.4833 -0.0272
  132OSM   H16S14296   6.056   5.422   4.731  0.7110 -0.8323  0.8075
  132OSM   H16T14297   5.897   5.436   4.671  0.7710  0.6383  0.7675
  132OSM   C17S14298   6.024   5.373   4.512  0.0925  0.0773 -0.1232
  132OSM   H17S14299   6.113   5.309   4.490 -0.2552 -1.2498  2.0530
  132OSM   H17T14300   6.045   5.476   4.477 -2.4765  0.8476  0.4344
  132OSM   C18S14301   5.905   5.329   4.419 -0.4975 -0.0176  0.5919
  132OSM   H18S14302   5.816   5.298   4.478 -0.7713 -1.8797 -0.7135
  132OSM   H18T14303   5.925   5.232   4.369 -1.1823 -0.3536  0.9447
  132OSM   H18U14304   5.882   5.412   4.349 -1.3077 -1.3710 -0.8178
  132OSM    C1F14305   6.486   5.034   5.884 -0.4189  0.0757  0.0890
  132OSM     OF14306   6.448   4.944   5.961  0.0612 -0.1048 -0.0677
  132OSM    C2F14307   6.585   5.004   5.775  0.4516 -0.4592  0.0698
  132OSM    H2F14308   6.685   5.039   5.809  0.9152 -1.6694 -0.0248
  132OSM    H2G14309   6.559   5.071   5.690 -1.8488  1.5721  2.2039
  132OSM    C3F14310   6.563   4.859   5.721  0.0379 -0.4471  0.8297
  132OSM    H3F14311   6.464   4.847   5.671  0.1201  1.4819  0.1009
  132OSM    H3G14312   6.570   4.783   5.801 -0.3789 -1.0105  0.3459
  132OSM    C4F14313   6.669   4.820   5.603 -0.6296  0.1586 -0.4676
  132OSM    H4F14314   6.655   4.710   5.591  2.0063 -0.3332  0.3336
  132OSM    H4G14315   6.769   4.837   5.649 -1.3277  1.7863  0.5218
  132OSM    C5F14316   6.651   4.889   5.470 -0.5741 -0.2358  0.5390
  132OSM    H5F14317   6.673   4.998   5.478 -2.4205  0.2642 -0.6705
  132OSM    H5G14318   6.551   4.871   5.425 -0.0947 -0.6780 -0.3695
  132OSM    C6F14319   6.751   4.841   5.368 -0.0419 -0.1200 -0.3428
  132OSM    H6F14320   6.718   4.735   5.361  1.1908 -0.4673 -1.3763
  132OSM    H6G14321   6.859   4.849   5.390 -0.0778  0.3981 -0.3367
  132OSM    C7F14322   6.729   4.909   5.229  0.2934 -0.0426 -0.4715
  132OSM    H7F14323   6.760   5.015   5.239  1.0653 -0.4562  2.0230
  132OSM    H7G14324   6.621   4.918   5.206  0.2526  0.3152 -0.1515
  132OSM    C8F14325   6.796   4.835   5.117 -0.1173  0.4182  0.1288
  132OSM    H8F14326   6.772   4.726   5.119  3.3993 -0.7420 -4.3199
  132OSM    H8G14327   6.902   4.851   5.145 -0.7119  1.6009  1.8633
  132OSM    C9F14328   6.755   4.888   4.982 -1.2525 -0.1574 -0.0436
  132OSM    H9F14329   6.831   4.955   4.940 -1.7669 -1.1139 -2.6904
  132OSM   C10F14330   6.644   4.860   4.910 -0.0856  0.5870  0.0581
  132OSM   H10F14331   6.632   4.917   4.817  0.3969 -0.0942 -0.4257
  132OSM   C11F14332   6.536   4.766   4.947  0.3767 -0.6385  0.4677
  132OSM   H11F14333   6.440   4.809   4.914  0.7934  1.9090  2.3004
  132OSM   H11G14334   6.537   4.753   5.058 -2.0487 -2.3948  0.3619
  132OSM   C12F14335   6.559   4.624   4.888 -0.3581  0.0284  0.3908
  132OSM   H12F14336   6.664   4.593   4.868 -0.7760 -1.4656  0.3711
  132OSM   H12G14337   6.514   4.629   4.787 -1.3622  0.4087  0.8521
  132OSM   C13F14338   6.495   4.505   4.964 -0.5844 -0.1138  0.5203
  132OSM   H13F14339   6.534   4.410   4.922  0.5174 -0.1917  1.6766
  132OSM   H13G14340   6.385   4.513   4.948 -0.7411 -0.9690  1.0915
  132OSM   C14F14341   6.517   4.504   5.117 -0.8657 -0.0957  0.4515
  132OSM   H14F14342   6.614   4.551   5.146  0.1802 -2.1531  0.4518
  132OSM   H14G14343   6.532   4.396   5.139 -0.3087  0.1511  1.3829
  132OSM   C15F14344   6.396   4.553   5.200 -0.4822  0.0487  0.2790
  132OSM   H15F14345   6.294   4.525   5.166 -0.6174  1.5924 -0.6699
  132OSM   H15G14346   6.384   4.663   5.191  0.7551  0.3646  2.1199
  132OSM   C16F14347   6.420   4.513   5.348  0.1100  0.0514  0.6123
  132OSM   H16F14348   6.526   4.528   5.377  0.8869 -1.9311 -0.9495
  132OSM   H16G14349   6.392   4.406   5.360 -0.4932 -0.4609 -3.8003
  132OSM   C17F14350   6.337   4.599   5.440 -0.5970 -0.3337 -0.5843
  132OSM   H17F14351   6.234   4.585   5.400 -0.9596 -1.1837  0.5800
  132OSM   H17G14352   6.375   4.703   5.439  0.2590 -0.6361 -0.9482
  132OSM   C18F14353   6.333   4.549   5.585  0.1039  0.5048  0.1970
  132OSM   H18F14354   6.248   4.599   5.635  0.8602  1.0097  0.9865
  132OSM   H18G14355   6.423   4.568   5.648  1.9711 -1.7796 -1.5618
  132OSM   H18H14356   6.295   4.445   5.581 -1.1792  0.9653  0.1290
  133OSM      N14357   0.202   5.730   7.078 -0.7266  0.2970 -0.8622
  133OSM    C1514358   0.338   5.796   7.082  0.7797 -0.5287  0.0338
  133OSM   H15A14359   0.327   5.899   7.112 -0.9136 -0.0639 -1.9278
  133OSM   H15B14360   0.372   5.785   6.980 -1.7724  0.2240 -0.9797
  133OSM   H15C14361   0.399   5.746   7.156  0.5666  1.0969  1.3599
  133OSM    C1414362   0.228   5.579   7.071 -0.1787  0.4410 -0.2223
  133OSM   H14A14363   0.153   5.509   7.104  0.1836 -0.3979 -1.1230
  133OSM   H14B14364   0.320   5.559   7.124 -0.0421  0.7802 -0.3274
  133OSM   H14C14365   0.257   5.547   6.972 -0.8065  2.9779 -1.3049
  133OSM    C1314366   0.134   5.770   7.207 -1.1244 -0.2162 -0.1477
  133OSM   H13A14367   0.169   5.711   7.290 -2.2295 -0.2434  0.3142
  133OSM   H13B14368   0.030   5.742   7.197 -0.8708 -1.1542 -0.3089
  133OSM   H13C14369   0.141   5.874   7.235  0.3703 -0.5942  1.0329
  133OSM    C1214370   0.116   5.774   6.957  0.3889  0.0647 -0.4809
  133OSM   H12A14371   0.076   5.874   6.969 -0.4727 -0.4108  0.7965
  133OSM   H12B14372   0.027   5.713   6.962 -0.3432  1.0753  5.3203
  133OSM    C1114373   0.187   5.781   6.818  1.0613  0.3396 -0.7067
  133OSM   H11A14374   0.260   5.864   6.808 -0.3209  1.4784 -1.8328
  133OSM   H11B14375   0.106   5.819   6.752 -0.2851  0.2120  0.7747
  133OSM      P14376   0.185   5.548   6.702 -0.0204  0.2649 -0.0531
  133OSM    O1314377   0.249   5.415   6.731 -0.3621 -0.3461 -0.1345
  133OSM    O1414378   0.037   5.553   6.721  0.2460 -0.2528 -0.3569
  133OSM    O1114379   0.215   5.591   6.555 -0.1249 -0.1462  0.2536
  133OSM    O1214380   0.252   5.659   6.781 -0.1297  0.0638  0.5036
  133OSM    C1S14381   0.179   5.717   6.495  0.0764 -0.8046  0.2049
  133OSM    H1S14382   0.238   5.803   6.535 -2.6428  0.5436  1.5720
  133OSM    H1T14383   0.077   5.738   6.533  0.1821 -3.2190  2.0768
  133OSM     NF14384   0.094   5.835   6.305  0.1640  0.0612  0.4993
  133OSM    HNF14385  -0.000   5.808   6.286  0.3929 -1.3862  1.2729
  133OSM    C2S14386   0.173   5.719   6.336  0.2103  0.2306 -0.2326
  133OSM    H2S14387   0.276   5.719   6.294 -0.5455  2.0232 -2.2402
  133OSM    C3S14388   0.105   5.583   6.293 -0.4228 -0.1370 -0.2946
  133OSM    H3S14389   0.017   5.574   6.361 -0.0304 -1.9954  0.0317
  133OSM     O314390   0.187   5.467   6.318  0.7925 -0.7646 -0.3649
  133OSM    HO314391   0.228   5.485   6.403  1.7380 -1.4962 -0.6423
  133OSM    C4S14392   0.077   5.581   6.152  0.3159  0.6495 -0.1196
  133OSM    H4S14393   0.161   5.581   6.081 -1.4086 -0.1171 -2.3033
  133OSM    C5S14394  -0.046   5.572   6.098  0.2913  0.3565  0.4111
  133OSM    H5S14395  -0.135   5.553   6.160  1.7343 -2.2327  1.9154
  133OSM    C6S14396  -0.090   5.575   5.952 -0.0203 -0.4749  0.4597
  133OSM    H6S14397  -0.176   5.643   5.935  0.1818 -0.5061 -0.7480
  133OSM    H6T14398  -0.130   5.472   5.935 -0.1068 -0.4626  0.5815
  133OSM    C7S14399   0.016   5.602   5.834 -0.4244 -0.4817 -0.2811
  133OSM    H7S14400   0.084   5.513   5.832  0.5658  0.2620 -0.4443
  133OSM    H7T14401   0.075   5.690   5.867  2.5900 -1.7735 -1.7235
  133OSM    C8S14402  -0.050   5.621   5.694 -0.0611 -0.4432  0.1012
  133OSM    H8S14403  -0.137   5.689   5.703  0.8063  0.7099 -0.0113
  133OSM    H8T14404  -0.074   5.518   5.659  0.2396 -0.4917  0.0289
  133OSM    C9S14405   0.045   5.684   5.596 -0.6423  0.3615 -0.0074
  133OSM    H9S14406   0.151   5.655   5.610 -0.3623  1.8288  1.2216
  133OSM    H9T14407   0.034   5.795   5.597 -1.7317  0.2720  0.3181
  133OSM   C10S14408   0.010   5.631   5.456  0.1373 -0.4923 -0.1972
  133OSM   H10S14409  -0.090   5.673   5.433 -0.9600 -1.9524  1.5883
  133OSM   H10T14410  -0.011   5.522   5.456  0.3999 -0.5603  1.5359
  133OSM   C11S14411   0.112   5.677   5.349 -0.0924  0.4416 -0.9412
  133OSM   H11S14412   0.215   5.636   5.363 -0.2315  0.4783  0.2410
  133OSM   H11T14413   0.122   5.788   5.347 -0.4922  0.5444  1.2282
  133OSM   C12S14414   0.071   5.620   5.214 -0.3188 -0.7873  0.5474
  133OSM   H12S14415  -0.029   5.654   5.180  1.4729  0.8893 -3.7121
  133OSM   H12T14416   0.069   5.509   5.225 -0.3968 -0.7750  0.6644
  133OSM   C13S14417   0.159   5.665   5.094  0.5680 -0.1321  0.0502
  133OSM   H13S14418   0.258   5.619   5.111  0.0000 -2.2989 -1.8226
  133OSM   H13T14419   0.171   5.775   5.100  2.0235 -0.2873  0.2385
  133OSM   C14S14420   0.103   5.636   4.953  0.3698 -0.5527  0.1392
  133OSM   H14S14421  -0.005   5.662   4.950  0.3386 -0.7115 -0.2536
  133OSM   H14T14422   0.116   5.526   4.945  2.4783 -0.2862 -0.6597
  133OSM   C15S14423   0.170   5.717   4.845 -0.6601 -0.0344 -0.6556
  133OSM   H15S14424   0.279   5.708   4.866 -0.8756 -0.0983  0.4813
  133OSM   H15T14425   0.147   5.822   4.870 -1.1056 -0.2645 -0.0677
  133OSM   C16S14426   0.140   5.680   4.701  0.8416 -0.5799  0.8015
  133OSM   H16S14427   0.167   5.771   4.643  2.3439 -0.4673  1.6412
  133OSM   H16T14428   0.031   5.663   4.689  0.5524  1.3957  0.3215
  133OSM   C17S14429   0.230   5.564   4.657 -0.4053  0.2220  0.4751
  133OSM   H17S14430   0.227   5.483   4.733  0.4186  0.0784  0.3641
  133OSM   H17T14431   0.337   5.590   4.645 -0.1827 -1.2753 -1.2582
  133OSM   C18S14432   0.201   5.510   4.516 -0.9976 -0.0205  0.2045
  133OSM   H18S14433   0.121   5.435   4.528  0.0322 -1.1667  0.1319
  133OSM   H18T14434   0.291   5.450   4.490 -0.6088  0.2704  0.8264
  133OSM   H18U14435   0.169   5.589   4.445  0.6356  1.0804  0.6167
  133OSM    C1F14436   0.131   5.957   6.313 -0.4479  0.3736  0.5261
  133OSM     OF14437   0.242   5.988   6.355 -0.0991  0.0579 -0.1441
  133OSM    C2F14438   0.032   6.058   6.267 -0.0661  0.2696  0.2582
  133OSM    H2F14439   0.012   6.129   6.350 -0.0512  0.2419  0.2850
  133OSM    H2G14440  -0.066   6.021   6.229  0.4989  0.7869 -1.8417
  133OSM    C3F14441   0.090   6.144   6.153 -0.1358 -0.2102  0.4036
  133OSM    H3F14442   0.191   6.185   6.177 -0.2274 -0.3649  1.0915
  133OSM    H3G14443   0.023   6.231   6.134  0.2460 -0.2034 -1.0362
  133OSM    C4F14444   0.091   6.076   6.011 -0.2520  0.5249 -0.5655
  133OSM    H4F14445  -0.014   6.043   5.994 -0.3759  0.1083  0.8539
  133OSM    H4G14446   0.162   5.990   6.001 -1.2208 -0.2818 -0.6719
  133OSM    C5F14447   0.141   6.175   5.909  0.1303  0.0200  0.3893
  133OSM    H5F14448   0.250   6.171   5.890 -0.0441  0.2506 -0.6759
  133OSM    H5G14449   0.122   6.277   5.949 -3.1310 -0.9058  1.5223
  133OSM    C6F14450   0.079   6.157   5.774  0.4449  0.3540 -0.1701
  133OSM    H6F14451  -0.028   6.181   5.793  0.6165  0.2674  0.9661
  133OSM    H6G14452   0.091   6.057   5.727 -1.9121  0.0422 -0.2491
  133OSM    C7F14453   0.124   6.251   5.663 -0.9649  0.0734  0.0677
  133OSM    H7F14454   0.231   6.231   5.641 -0.3265 -0.0233  2.8335
  133OSM    H7G14455   0.130   6.354   5.705 -0.3318 -0.0431  0.2861
  133OSM    C8F14456   0.043   6.241   5.530 -0.5288  0.4310 -0.1993
  133OSM    H8F14457   0.059   6.138   5.494 -1.4403  0.3606 -0.4379
  133OSM    H8G14458   0.108   6.304   5.466  0.0643 -0.3820 -0.3992
  133OSM    C9F14459  -0.090   6.291   5.533  0.0683  0.2290  0.2792
  133OSM    H9F14460  -0.099   6.399   5.513 -0.4570  0.3943  1.3443
  133OSM   C10F14461  -0.205   6.220   5.543  0.5369  0.1065 -0.0917
  133OSM   H10F14462  -0.300   6.275   5.543  0.7987  0.5913  1.3830
  133OSM   C11F14463  -0.214   6.073   5.562  0.2937 -0.3191  0.0840
  133OSM   H11F14464  -0.283   6.070   5.649  0.7954  0.4445  0.5230
  133OSM   H11G14465  -0.118   6.027   5.593  0.6135  1.2352  1.5408
  133OSM   C12F14466  -0.268   5.987   5.444 -0.8268 -0.0840 -0.3028
  133OSM   H12F14467  -0.372   6.015   5.415 -1.0741 -2.1932 -1.6511
  133OSM   H12G14468  -0.274   5.879   5.468  0.1837 -0.4620 -1.6137
  133OSM   C13F14469  -0.175   5.983   5.322  0.2225 -0.3809  0.3839
  133OSM   H13F14470  -0.085   5.925   5.351 -0.0288 -1.1290 -0.3126
  133OSM   H13G14471  -0.148   6.085   5.289  1.7973 -0.9009  0.0083
  133OSM   C14F14472  -0.222   5.901   5.197 -0.4646 -0.4368  0.5219
  133OSM   H14F14473  -0.326   5.935   5.177  0.2068  2.1305  1.0905
  133OSM   H14G14474  -0.205   5.793   5.217  0.3259 -0.3960  0.0815
  133OSM   C15F14475  -0.131   5.944   5.071  0.2633 -0.3022 -0.0873
  133OSM   H15F14476  -0.035   5.889   5.074 -0.4592 -1.5791  0.0866
  133OSM   H15G14477  -0.108   6.053   5.071  0.8317 -0.3747  2.4401
  133OSM   C16F14478  -0.216   5.916   4.945  0.0747 -0.8258 -0.0906
  133OSM   H16F14479  -0.254   5.814   4.967  3.2557 -2.2783 -0.7573
  133OSM   H16G14480  -0.151   5.904   4.856  0.5516 -0.4458  0.1983
  133OSM   C17F14481  -0.328   6.012   4.916 -0.3369  0.0459  0.5887
  133OSM   H17F14482  -0.273   6.108   4.901 -1.4070  0.6993  0.7794
  133OSM   H17G14483  -0.397   6.029   5.000 -0.2218  0.1855  0.6569
  133OSM   C18F14484  -0.405   5.975   4.785 -0.3180 -0.5930  0.2602
  133OSM   H18F14485  -0.455   5.877   4.802  2.2804 -2.0871 -0.1908
  133OSM   H18G14486  -0.343   5.954   4.696 -0.4435 -2.6968  0.6027
  133OSM   H18H14487  -0.470   6.063   4.769  2.2545  1.0870 -1.6054
  134OSM      N14488   5.918   3.389   6.934 -0.1207  0.2559  0.0367
  134OSM    C1514489   6.059   3.373   6.947 -0.7886  0.1242 -0.6886
  134OSM   H15A14490   6.081   3.270   6.971 -3.1462  0.0135  1.4039
  134OSM   H15B14491   6.098   3.433   7.028  0.0287  0.2061 -1.1366
  134OSM   H15C14492   6.102   3.407   6.854 -0.0461 -0.0775 -0.4329
  134OSM    C1414493   5.854   3.326   7.048  0.2870  0.5607 -0.3488
  134OSM   H14A14494   5.857   3.218   7.056 -1.0722  0.5387  0.2821
  134OSM   H14B14495   5.748   3.346   7.058 -0.3506 -1.0510 -2.9511
  134OSM   H14C14496   5.898   3.366   7.138 -0.1149  1.0616 -0.3681
  134OSM    C1314497   5.891   3.535   6.951 -0.7446 -0.4084 -0.7199
  134OSM   H13A14498   5.905   3.558   7.056  0.5319  0.1619 -1.0016
  134OSM   H13B14499   5.789   3.564   6.927 -1.2202 -1.3199  0.1253
  134OSM   H13C14500   5.956   3.596   6.891 -0.7902 -0.4017 -0.7632
  134OSM    C1214501   5.866   3.332   6.800  0.4452 -0.5310  0.7440
  134OSM   H12A14502   5.759   3.329   6.803  0.4079  0.7534  1.1861
  134OSM   H12B14503   5.904   3.231   6.792 -0.7366 -0.8710 -1.2607
  134OSM    C1114504   5.900   3.397   6.666  0.3775 -0.8409 -0.4517
  134OSM   H11A14505   5.860   3.501   6.672  3.1347  0.2903 -0.0913
  134OSM   H11B14506   5.843   3.355   6.581  0.7559 -0.7714 -0.7445
  134OSM      P14507   6.090   3.245   6.566  0.0486  0.0099  0.2478
  134OSM    O1314508   6.239   3.235   6.568  0.3988 -0.1382  0.3047
  134OSM    O1414509   6.008   3.134   6.607  1.0698  0.1544 -0.1412
  134OSM    O1114510   6.052   3.261   6.411  0.1940  0.0970  0.2327
  134OSM    O1214511   6.040   3.377   6.633 -0.2779 -0.0291 -0.1685
  134OSM    C1S14512   6.092   3.384   6.352  0.2230 -0.2752  0.3338
  134OSM    H1S14513   6.195   3.415   6.380 -0.5975 -0.4335  3.9713
  134OSM    H1T14514   6.029   3.468   6.386 -0.2153  0.5884 -2.3301
  134OSM     NF14515   6.125   3.501   6.144  0.1776 -0.1782 -0.2633
  134OSM    HNF14516   6.058   3.571   6.120  0.8981  0.9928  0.9800
  134OSM    C2S14517   6.076   3.383   6.196  0.1768 -0.3183 -0.4679
  134OSM    H2S14518   6.140   3.300   6.159  0.9036 -0.3629  0.8239
  134OSM    C3S14519   5.929   3.346   6.153 -0.2263  0.7214  0.1959
  134OSM    H3S14520   5.864   3.428   6.192 -0.1244  1.4184 -1.0512
  134OSM     O314521   5.880   3.230   6.217 -0.4662  0.5166 -0.4159
  134OSM    HO314522   5.939   3.230   6.293  0.7954 -1.8847 -1.2863
  134OSM    C4S14523   5.906   3.344   6.001 -0.3588 -0.2020 -0.2132
  134OSM    H4S14524   5.897   3.450   5.976  2.2939 -0.1024 -1.0449
  134OSM    C5S14525   5.890   3.243   5.906 -0.3493 -0.5275 -0.3997
  134OSM    H5S14526   5.904   3.141   5.943 -1.8095 -0.9179 -0.8513
  134OSM    C6S14527   5.871   3.252   5.758  0.6864  0.0895  0.7456
  134OSM    H6S14528   5.774   3.203   5.734  0.2274  1.1874  0.2831
  134OSM    H6T14529   5.946   3.192   5.702 -2.9357 -3.5034 -0.7130
  134OSM    C7S14530   5.876   3.400   5.706 -0.0410  0.2369 -0.3700
  134OSM    H7S14531   5.969   3.453   5.734 -0.1820 -0.2786  1.1624
  134OSM    H7T14532   5.797   3.459   5.758  0.1773  0.3319 -0.1453
  134OSM    C8S14533   5.850   3.392   5.556  0.1564  0.1963 -0.1302
  134OSM    H8S14534   5.748   3.349   5.539 -0.6312  1.5250  1.0382
  134OSM    H8T14535   5.924   3.327   5.505  0.7635  0.4138  0.4723
  134OSM    C9S14536   5.856   3.520   5.473 -1.1691  0.3945 -0.0596
  134OSM    H9S14537   5.784   3.592   5.518 -0.1399  1.8021 -0.6305
  134OSM    H9T14538   5.823   3.491   5.371 -0.1695  0.4190 -0.4008
  134OSM   C10S14539   5.995   3.573   5.484  0.1258 -0.3421  0.4268
  134OSM   H10S14540   6.071   3.497   5.454  0.8685  1.3571 -2.3938
  134OSM   H10T14541   6.009   3.599   5.591 -0.4430 -2.0617  0.9505
  134OSM   C11S14542   6.020   3.706   5.397 -0.2267 -0.0658  0.1201
  134OSM   H11S14543   6.116   3.748   5.435 -0.4256 -0.7425  1.4215
  134OSM   H11T14544   5.937   3.776   5.422  0.0795  0.6886 -0.9080
  134OSM   C12S14545   6.023   3.675   5.246 -0.2649  0.4116 -0.1147
  134OSM   H12S14546   6.068   3.764   5.198  1.2379 -0.0133  0.4492
  134OSM   H12T14547   5.916   3.667   5.216 -0.6671 -0.7753  1.4706
  134OSM   C13S14548   6.090   3.552   5.195 -0.7929  0.3993  0.2039
  134OSM   H13S14549   6.081   3.469   5.268 -1.8736  0.5982  0.3075
  134OSM   H13T14550   6.200   3.555   5.182 -0.7534 -0.3122  0.3416
  134OSM   C14S14551   6.028   3.519   5.060  0.2043  0.4133 -0.0218
  134OSM   H14S14552   6.040   3.600   4.985  2.0014  0.8953  0.7405
  134OSM   H14T14553   5.923   3.492   5.080  0.0079  0.7711 -0.5517
  134OSM   C15S14554   6.104   3.399   4.985 -0.0402  0.4241 -0.1708
  134OSM   H15S14555   6.126   3.317   5.056  2.6456  1.0008 -0.2231
  134OSM   H15T14556   6.199   3.443   4.947 -0.0564 -0.0985 -0.8424
  134OSM   C16S14557   6.032   3.368   4.853  0.3156 -0.5492  0.2790
  134OSM   H16S14558   5.924   3.372   4.879  0.4415 -0.4954  0.7934
  134OSM   H16T14559   6.062   3.267   4.817  2.4383  0.3107 -0.5666
  134OSM   C17S14560   6.055   3.463   4.736  0.3230  0.5154  0.2106
  134OSM   H17S14561   6.044   3.564   4.781 -1.6680  0.3748  0.1387
  134OSM   H17T14562   5.977   3.440   4.661  2.3689 -1.3178 -1.4942
  134OSM   C18S14563   6.196   3.441   4.664  0.0596 -0.5744  0.1774
  134OSM   H18S14564   6.279   3.456   4.736 -0.2277 -1.2243  0.6482
  134OSM   H18T14565   6.210   3.521   4.588  2.7568 -1.0057  0.1212
  134OSM   H18U14566   6.198   3.344   4.610  1.9917 -0.4293 -0.0768
  134OSM    C1F14567   6.255   3.521   6.126 -0.4668 -0.7666  0.2807
  134OSM     OF14568   6.339   3.434   6.152  0.4041 -0.5503  0.0726
  134OSM    C2F14569   6.301   3.653   6.070  0.4154 -0.1338  0.9592
  134OSM    H2F14570   6.281   3.734   6.143  1.0327  1.5957 -0.7138
  134OSM    H2G14571   6.228   3.677   5.990  1.2800  0.8500  0.4523
  134OSM    C3F14572   6.444   3.654   6.002  0.2135 -0.6394 -0.1979
  134OSM    H3F14573   6.441   3.553   5.955 -1.5922 -1.6327  1.8823
  134OSM    H3G14574   6.530   3.647   6.072  0.7937 -0.8671 -0.9175
  134OSM    C4F14575   6.477   3.768   5.902 -0.3923 -0.0792 -0.2107
  134OSM    H4F14576   6.483   3.869   5.945  0.7722  0.4509 -1.5096
  134OSM    H4G14577   6.388   3.780   5.836 -0.5555 -0.6304 -0.0952
  134OSM    C5F14578   6.606   3.747   5.823 -1.1405  0.5812  0.1982
  134OSM    H5F14579   6.621   3.638   5.812 -1.6885  0.5973 -0.8338
  134OSM    H5G14580   6.689   3.789   5.883 -2.4118  1.7765  1.1752
  134OSM    C6F14581   6.599   3.816   5.694  0.1044 -0.7532 -0.7153
  134OSM    H6F14582   6.594   3.926   5.710  0.3477 -0.8343 -0.0189
  134OSM    H6G14583   6.516   3.778   5.631 -0.2976 -1.8830  0.4390
  134OSM    C7F14584   6.725   3.790   5.608  0.2490 -0.6498 -0.4422
  134OSM    H7F14585   6.729   3.681   5.590  2.4810 -0.8025  0.6898
  134OSM    H7G14586   6.816   3.828   5.657  0.5989  0.7142 -2.0442
  134OSM    C8F14587   6.731   3.844   5.470  0.6421 -0.5256  0.0030
  134OSM    H8F14588   6.808   3.789   5.412 -1.0632 -1.1767 -1.7375
  134OSM    H8G14589   6.754   3.953   5.470 -2.4499  0.2694 -2.2681
  134OSM    C9F14590   6.602   3.838   5.389 -0.3933 -0.5997 -0.6162
  134OSM    H9F14591   6.574   3.749   5.330 -0.8708 -0.3981 -0.6971
  134OSM   C10F14592   6.516   3.938   5.370 -0.3026  0.0660  0.5645
  134OSM   H10F14593   6.430   3.917   5.306 -0.0884  1.3835 -0.1845
  134OSM   C11F14594   6.542   4.076   5.430  0.0872  0.0693  0.4596
  134OSM   H11F14595   6.593   4.088   5.527  0.2690  0.5327  0.3122
  134OSM   H11G14596   6.443   4.124   5.445  0.9019  2.7092 -1.6795
  134OSM   C12F14597   6.614   4.178   5.329  0.3553  0.2981 -0.7144
  134OSM   H12F14598   6.599   4.282   5.365 -1.0904 -0.0686 -0.1578
  134OSM   H12G14599   6.548   4.175   5.240 -0.3095 -0.6089 -0.2161
  134OSM   C13F14600   6.757   4.154   5.280  0.0869  0.6810  0.2377
  134OSM   H13F14601   6.766   4.047   5.249 -4.2617  0.1775  0.1031
  134OSM   H13G14602   6.825   4.166   5.366  1.9583  0.7203 -1.1792
  134OSM   C14F14603   6.800   4.249   5.174 -0.0477 -0.2016 -0.6332
  134OSM   H14F14604   6.812   4.346   5.227 -1.2602 -0.1633 -0.4068
  134OSM   H14G14605   6.714   4.274   5.107 -2.3526 -1.9427  1.4956
  134OSM   C15F14606   6.943   4.218   5.112  0.4818 -0.0435  0.3105
  134OSM   H15F14607   6.923   4.134   5.043 -0.7401 -1.1158  1.8878
  134OSM   H15G14608   7.012   4.180   5.190  0.7236 -1.2143 -0.4575
  134OSM   C16F14609   7.017   4.344   5.054 -0.3544  0.2043  0.2451
  134OSM   H16F14610   7.104   4.302   4.998  1.2375  1.3658  1.7545
  134OSM   H16G14611   7.069   4.388   5.142 -0.9099  2.8708 -0.6879
  134OSM   C17F14612   6.937   4.434   4.965 -0.3616 -0.1373  0.3486
  134OSM   H17F14613   7.005   4.519   4.943 -1.6279  1.4140  2.0881
  134OSM   H17G14614   6.855   4.487   5.018 -0.5876  0.1124 -0.2455
  134OSM   C18F14615   6.894   4.383   4.826 -0.0893  0.2513  0.9300
  134OSM   H18F14616   6.817   4.308   4.853  0.4411 -0.9882 -0.8541
  134OSM   H18G14617   6.979   4.323   4.788  0.8192  2.1897 -0.2270
  134OSM   H18H14618   6.868   4.479   4.776  1.1980  0.7188  1.1292
  135OSM      N14619   6.552   2.783   6.383  0.4636 -0.4513  0.2218
  135OSM    C1514620   6.447   2.896   6.400  0.0244 -0.3963  0.8033
  135OSM   H15A14621   6.440   2.932   6.298 -1.0263 -3.3768 -0.2884
  135OSM   H15B14622   6.483   2.973   6.467  0.9827  0.0302 -0.1575
  135OSM   H15C14623   6.349   2.859   6.425 -1.2560  1.9640 -0.3630
  135OSM    C1414624   6.684   2.843   6.345 -0.2853 -0.0630  0.2999
  135OSM   H14A14625   6.691   2.900   6.254  0.1501  2.3265  1.7540
  135OSM   H14B14626   6.751   2.758   6.352  0.6755  0.7148  0.9000
  135OSM   H14C14627   6.718   2.916   6.416 -0.3950 -1.0676  1.4210
  135OSM    C1314628   6.557   2.717   6.515  0.1635 -0.4426 -0.0640
  135OSM   H13A14629   6.565   2.785   6.598  0.2198 -1.0668  0.4543
  135OSM   H13B14630   6.643   2.654   6.535  0.0379  0.0336  2.1725
  135OSM   H13C14631   6.466   2.665   6.541 -0.8862  2.0129  1.4881
  135OSM    C1214632   6.512   2.686   6.267 -0.8163  0.4203  0.3055
  135OSM   H12A14633   6.588   2.614   6.242 -0.5511  1.2209 -1.3842
  135OSM   H12B14634   6.504   2.744   6.175  2.6088  0.6414  0.0324
  135OSM    C1114635   6.383   2.606   6.285  0.0310  0.5294 -0.8511
  135OSM   H11A14636   6.372   2.557   6.186  0.5270  0.3009 -0.7988
  135OSM   H11B14637   6.292   2.669   6.295 -0.7954 -0.7116 -0.3017
  135OSM      P14638   6.475   2.381   6.391  0.1139 -0.0793 -0.1933
  135OSM    O1314639   6.582   2.378   6.495 -0.4764 -0.1197 -0.0485
  135OSM    O1414640   6.375   2.271   6.393  0.0237  0.1588  0.3974
  135OSM    O1114641   6.545   2.392   6.250  0.3973 -0.4456  0.4483
  135OSM    O1214642   6.389   2.516   6.397 -0.3035 -0.7486 -0.0804
  135OSM    C1S14643   6.474   2.329   6.139  0.0049 -0.4678  0.6353
  135OSM    H1S14644   6.368   2.363   6.137 -0.7585 -2.2366  3.8952
  135OSM    H1T14645   6.462   2.221   6.162 -0.2674 -0.8694 -1.2016
  135OSM     NF14646   6.464   2.348   5.882 -0.1014 -0.7144 -0.5528
  135OSM    HNF14647   6.490   2.274   5.820  0.1596 -1.1395  0.0514
  135OSM    C2S14648   6.550   2.367   6.000  0.0408 -0.1302  1.2789
  135OSM    H2S14649   6.578   2.474   6.004  0.8830 -0.2897  0.0180
  135OSM    C3S14650   6.680   2.287   5.998 -0.6425  0.2836  0.3253
  135OSM    H3S14651   6.642   2.183   5.994  2.3059 -0.9068  0.4754
  135OSM     O314652   6.767   2.296   6.112  0.3062  0.1651  0.3092
  135OSM    HO314653   6.703   2.329   6.175 -2.2720  0.3351 -2.2031
  135OSM    C4S14654   6.759   2.309   5.872  0.4081  0.1901  0.5710
  135OSM    H4S14655   6.791   2.413   5.854 -1.1466  0.8686  1.5004
  135OSM    C5S14656   6.806   2.215   5.787  0.2426 -0.4066 -0.4159
  135OSM    H5S14657   6.799   2.108   5.812  1.5479 -0.1281  1.4022
  135OSM    C6S14658   6.904   2.245   5.670  0.1127 -0.8466 -0.2109
  135OSM    H6S14659   6.989   2.174   5.674  1.7326  0.9282 -1.7141
  135OSM    H6T14660   6.945   2.348   5.669 -2.1565  0.1303 -0.1548
  135OSM    C7S14661   6.830   2.223   5.534  0.7992  0.3183 -0.4693
  135OSM    H7S14662   6.765   2.311   5.513 -0.5524 -0.8209 -1.2358
  135OSM    H7T14663   6.772   2.128   5.538 -0.0851  0.9059  1.4487
  135OSM    C8S14664   6.923   2.207   5.412 -0.2971 -0.5538 -0.5941
  135OSM    H8S14665   7.000   2.132   5.439  0.6288  0.5071 -0.1840
  135OSM    H8T14666   6.989   2.296   5.406 -0.5807 -0.2211  0.8485
  135OSM    C9S14667   6.857   2.200   5.282  0.0730  0.3032  0.1109
  135OSM    H9S14668   6.788   2.282   5.255 -1.9764 -0.3998  2.7917
  135OSM    H9T14669   6.796   2.108   5.273 -1.0507  1.0482 -0.0237
  135OSM   C10S14670   6.946   2.159   5.156  0.0305 -0.3591  0.9669
  135OSM   H10S14671   6.973   2.055   5.185  0.8202 -1.3251 -2.6806
  135OSM   H10T14672   7.039   2.220   5.162 -0.0960 -0.0461 -0.0431
  135OSM   C11S14673   6.871   2.161   5.024 -0.4307  0.4695 -0.3815
  135OSM   H11S14674   6.767   2.124   5.038  0.4169 -1.9394 -0.0761
  135OSM   H11T14675   6.914   2.097   4.944 -1.3786 -1.3905  0.5348
  135OSM   C12S14676   6.858   2.307   4.971  0.0559  0.1419 -0.2645
  135OSM   H12S14677   6.796   2.364   5.043 -1.0049 -2.4673  1.0265
  135OSM   H12T14678   6.810   2.315   4.872 -1.6461  0.9949  0.5987
  135OSM   C13S14679   6.990   2.369   4.935 -0.5083 -0.5259  0.8610
  135OSM   H13S14680   7.046   2.317   4.854 -0.0892 -1.4499  1.7134
  135OSM   H13T14681   7.050   2.377   5.028  1.5924  1.2526 -0.5385
  135OSM   C14S14682   6.985   2.512   4.871  0.3514 -0.3054  0.2264
  135OSM   H14S14683   7.080   2.568   4.884 -1.0092  2.4104 -0.7394
  135OSM   H14T14684   6.905   2.571   4.921  1.6108  1.9122 -0.2674
  135OSM   C15S14685   6.960   2.504   4.720  0.1075 -0.2077 -1.1380
  135OSM   H15S14686   6.864   2.457   4.693 -0.0173 -1.1808  0.8431
  135OSM   H15T14687   7.046   2.446   4.678  0.4186 -0.7734  0.2227
  135OSM   C16S14688   6.969   2.642   4.674  0.3588  0.0053  0.1417
  135OSM   H16S14689   7.052   2.689   4.731 -0.8076  0.8258  1.2083
  135OSM   H16T14690   6.881   2.707   4.693 -0.5327 -1.4260  1.0236
  135OSM   C17S14691   6.996   2.649   4.527 -0.2928  0.2894  0.8647
  135OSM   H17S14692   6.907   2.605   4.478 -0.8120  1.3174  0.8461
  135OSM   H17T14693   7.077   2.581   4.493 -0.6671  1.0701 -1.8268
  135OSM   C18S14694   7.002   2.791   4.471 -0.1419  0.0074 -0.0548
  135OSM   H18S14695   7.016   2.783   4.361  0.8046 -2.1074  0.1802
  135OSM   H18T14696   7.074   2.862   4.518 -1.3578  0.6062  0.9579
  135OSM   H18U14697   6.910   2.846   4.499 -0.4110  1.1469 -2.8162
  135OSM    C1F14698   6.349   2.418   5.864 -0.7736  0.4693  0.3850
  135OSM     OF14699   6.319   2.505   5.943  0.1176  0.0756  0.0350
  135OSM    C2F14700   6.270   2.385   5.748  0.6793 -1.1518  1.1267
  135OSM    H2F14701   6.234   2.280   5.754  2.3184 -1.8654 -0.4395
  135OSM    H2G14702   6.330   2.401   5.656 -0.6044 -0.4812  0.3831
  135OSM    C3F14703   6.145   2.484   5.737 -0.3004  0.3394  0.0449
  135OSM    H3F14704   6.182   2.588   5.746  2.3197 -0.4614 -0.4301
  135OSM    H3G14705   6.079   2.465   5.824  2.0825 -1.0687  1.6527
  135OSM    C4F14706   6.066   2.461   5.612 -0.8375 -0.2275 -0.3880
  135OSM    H4F14707   6.036   2.355   5.595 -0.9769 -0.2404 -0.0728
  135OSM    H4G14708   5.973   2.521   5.627 -0.3045  0.8409 -1.2236
  135OSM    C5F14709   6.142   2.512   5.488  0.4709 -0.8512  0.0840
  135OSM    H5F14710   6.231   2.450   5.468 -0.1319 -1.1867 -1.7934
  135OSM    H5G14711   6.177   2.613   5.517 -0.3211 -0.5508  0.0368
  135OSM    C6F14712   6.051   2.513   5.357  0.3590  0.9525 -0.2867
  135OSM    H6F14713   5.966   2.581   5.377  0.8763  1.7157 -0.5966
  135OSM    H6G14714   6.018   2.410   5.333  0.9210  0.3199  1.5258
  135OSM    C7F14715   6.134   2.572   5.244 -0.4344 -0.0396 -0.1038
  135OSM    H7F14716   6.229   2.517   5.235 -0.5329 -0.3566  0.7351
  135OSM    H7G14717   6.158   2.679   5.264  0.2989  0.1240 -1.7392
  135OSM    C8F14718   6.063   2.583   5.106 -0.5657  0.1835 -0.1215
  135OSM    H8F14719   6.145   2.612   5.036  1.5249  1.9984  2.8484
  135OSM    H8G14720   5.986   2.662   5.119 -0.0844  0.4234  1.4140
  135OSM    C9F14721   6.000   2.456   5.059 -0.2578 -0.5854  0.1024
  135OSM    H9F14722   5.938   2.409   5.136  0.3731  0.4290  1.2652
  135OSM   C10F14723   6.008   2.412   4.931  0.0755  0.0262 -0.7232
  135OSM   H10F14724   5.958   2.316   4.918 -0.2641  0.1060 -0.0057
  135OSM   C11F14725   6.082   2.471   4.813  0.2377 -0.5335 -0.0165
  135OSM   H11F14726   6.191   2.451   4.817  0.6124  1.3843 -0.0804
  135OSM   H11G14727   6.067   2.581   4.812 -0.8693 -0.6708 -0.4200
  135OSM   C12F14728   6.020   2.410   4.680  0.2434 -0.2450 -0.8123
  135OSM   H12F14729   6.051   2.472   4.592  1.7982 -0.8365 -0.7235
  135OSM   H12G14730   5.909   2.414   4.682  0.2297 -0.2613 -1.2815
  135OSM   C13F14731   6.068   2.259   4.665  0.7452  0.2898  0.0256
  135OSM   H13F14732   6.072   2.210   4.765 -2.6735 -2.1560 -0.8596
  135OSM   H13G14733   6.168   2.264   4.617  0.2388  4.7750 -1.0625
  135OSM   C14F14734   5.971   2.169   4.593  0.4580  0.0879  0.0546
  135OSM   H14F14735   5.867   2.186   4.626 -0.0075 -1.4867 -0.4595
  135OSM   H14G14736   5.994   2.063   4.617  1.6908  0.6899  1.7098
  135OSM   C15F14737   5.985   2.178   4.434  0.4587  0.1731 -0.8446
  135OSM   H15F14738   6.080   2.135   4.397  0.2948  0.6167 -1.8210
  135OSM   H15G14739   5.973   2.283   4.400 -1.0531  0.7212  1.1731
  135OSM   C16F14740   5.892   2.090   4.354  0.6644  0.2504  0.5098
  135OSM   H16F14741   5.907   1.983   4.377  1.3990  0.1693 -0.2985
  135OSM   H16G14742   5.924   2.108   4.249 -2.1468  0.0738 -0.4384
  135OSM   C17F14743   5.745   2.138   4.360 -0.1220  0.1829 -0.4421
  135OSM   H17F14744   5.710   2.143   4.465 -0.2187  0.9000 -0.5008
  135OSM   H17G14745   5.693   2.048   4.318 -2.3586  0.3044  1.8322
  135OSM   C18F14746   5.703   2.250   4.266 -0.4649 -0.5169 -0.6416
  135OSM   H18F14747   5.595   2.277   4.262 -0.0674  1.0517 -2.8007
  135OSM   H18G14748   5.731   2.215   4.165 -1.1193 -0.1418 -0.9602
  135OSM   H18H14749   5.765   2.342   4.278 -0.2331 -0.5863 -1.2666
  136OSM      N14750   2.295   2.170   6.661 -0.4161 -0.2064 -0.2674
  136OSM    C1514751   2.273   2.322   6.636  0.5287 -0.7195 -0.0362
  136OSM   H15A14752   2.328   2.354   6.548  0.0339 -1.1891 -0.5266
  136OSM   H15B14753   2.307   2.394   6.709  0.4567  2.0243 -2.5108
  136OSM   H15C14754   2.168   2.344   6.628  0.8541  0.1777 -3.6427
  136OSM    C1414755   2.437   2.158   6.683 -0.2528  0.3302 -0.3875
  136OSM   H14A14756   2.468   2.222   6.765 -0.6471  1.6160 -1.2109
  136OSM   H14B14757   2.493   2.183   6.594  1.7929 -0.8223  0.4993
  136OSM   H14C14758   2.464   2.058   6.715 -0.7809  0.7616  1.5831
  136OSM    C1314759   2.210   2.140   6.790 -0.2734 -0.3238  0.1311
  136OSM   H13A14760   2.231   2.037   6.814  0.0420  0.1052  1.8099
  136OSM   H13B14761   2.108   2.163   6.762  0.2605 -0.1163 -1.8005
  136OSM   H13C14762   2.243   2.201   6.873  1.8136  0.3680 -1.1151
  136OSM    C1214763   2.249   2.082   6.545 -0.2034 -0.4052 -0.6599
  136OSM   H12A14764   2.241   1.986   6.594  2.2082  0.7846  2.4491
  136OSM   H12B14765   2.324   2.084   6.467 -0.3533  3.7656 -0.9447
  136OSM    C1114766   2.123   2.147   6.474  0.2201 -0.4636  0.7161
  136OSM   H11A14767   2.105   2.084   6.384 -1.7944 -2.3206  2.3289
  136OSM   H11B14768   2.138   2.252   6.442 -0.4138 -0.7147 -0.4534
  136OSM      P14769   1.911   2.032   6.587  0.1614 -0.0958  0.0100
  136OSM    O1314770   1.979   1.891   6.579  0.2040 -0.0439  0.0623
  136OSM    O1414771   1.852   2.065   6.717  0.2624  0.3531 -0.5534
  136OSM    O1114772   1.798   2.039   6.469  0.5114 -0.0346 -0.0030
  136OSM    O1214773   2.018   2.150   6.564 -0.1313  0.0760 -1.1372
  136OSM    C1S14774   1.783   2.134   6.369  0.1351 -0.1740  1.2491
  136OSM    H1S14775   1.806   2.235   6.409  1.3212  1.0643 -2.1267
  136OSM    H1T14776   1.673   2.135   6.353 -0.0497  2.1823  2.2449
  136OSM     NF14777   1.842   2.220   6.144  0.1282 -1.0533  0.2130
  136OSM    HNF14778   1.771   2.223   6.073 -0.4260 -3.8385  0.5493
  136OSM    C2S14779   1.848   2.102   6.235 -0.3100  0.2066  0.1929
  136OSM    H2S14780   1.958   2.093   6.252  0.1111  0.4930 -2.0371
  136OSM    C3S14781   1.786   1.965   6.188 -0.0524  0.2440  0.4042
  136OSM    H3S14782   1.675   1.966   6.185 -0.2422 -2.0586  3.1483
  136OSM     O314783   1.819   1.862   6.282  0.5345 -0.1745 -0.1388
  136OSM    HO314784   1.813   1.906   6.367  1.5610  1.4150 -0.8414
  136OSM    C4S14785   1.846   1.923   6.057  0.2791 -0.0144 -0.5532
  136OSM    H4S14786   1.952   1.892   6.058 -0.2767 -2.0375 -0.0267
  136OSM    C5S14787   1.780   1.921   5.941 -0.2812  0.3066 -0.0806
  136OSM    H5S14788   1.673   1.946   5.940 -0.7469 -1.4516 -2.2507
  136OSM    C6S14789   1.844   1.900   5.799  0.7505 -1.0969  0.4946
  136OSM    H6S14790   1.840   1.991   5.737 -3.6673 -1.2861  0.1942
  136OSM    H6T14791   1.783   1.830   5.739 -2.5789  0.2110  2.1199
  136OSM    C7S14792   1.992   1.857   5.803  0.1408 -0.3820  0.1447
  136OSM    H7S14793   2.006   1.778   5.880  0.5828  0.7454  1.2486
  136OSM    H7T14794   2.056   1.943   5.828  3.6035 -3.1479  1.5617
  136OSM    C8S14795   2.048   1.808   5.669  0.1949 -0.7217 -0.4070
  136OSM    H8S14796   2.008   1.707   5.648 -2.6417 -0.1488  1.6861
  136OSM    H8T14797   2.159   1.802   5.679 -0.0898 -2.9275  2.4916
  136OSM    C9S14798   2.012   1.885   5.540  0.3096 -0.8116  0.1027
  136OSM    H9S14799   1.901   1.877   5.531 -0.0082  0.5087  2.1449
  136OSM    H9T14800   2.048   1.837   5.447  0.4378  0.5157 -0.5523
  136OSM   C10S14801   2.061   2.038   5.543 -0.6334 -0.8418  0.2036
  136OSM   H10S14802   2.171   2.033   5.530 -0.4413  2.5609 -0.2378
  136OSM   H10T14803   2.040   2.081   5.643  1.7252 -1.6082  1.1043
  136OSM   C11S14804   2.026   2.134   5.420 -0.2885  1.0461 -0.3912
  136OSM   H11S14805   2.068   2.235   5.440 -0.0790  1.2099 -1.6139
  136OSM   H11T14806   1.915   2.137   5.415 -0.7136 -3.9500  0.6754
  136OSM   C12S14807   2.063   2.091   5.277  0.0566 -0.2278  0.3138
  136OSM   H12S14808   2.025   1.993   5.241 -1.1556  0.5979 -0.7513
  136OSM   H12T14809   2.174   2.090   5.263  0.0474  0.8917  0.0710
  136OSM   C13S14810   2.003   2.198   5.177  0.6009 -0.0248 -0.2089
  136OSM   H13S14811   2.022   2.297   5.224 -2.0126 -0.1473  1.3125
  136OSM   H13T14812   1.892   2.192   5.172  0.4775  1.0619  0.8208
  136OSM   C14S14813   2.073   2.185   5.041 -0.2156  0.4018  0.0492
  136OSM   H14S14814   2.181   2.164   5.052 -0.2096  0.4378  0.0634
  136OSM   H14T14815   2.052   2.282   4.990 -0.8998  0.8140  1.0720
  136OSM   C15S14816   2.003   2.069   4.963 -0.0465  0.2752 -0.5943
  136OSM   H15S14817   1.908   2.119   4.932  0.0959  1.5819  0.9833
  136OSM   H15T14818   1.987   1.984   5.033  0.5563 -0.8241 -1.7521
  136OSM   C16S14819   2.065   2.013   4.835  0.3324  0.1729 -0.1489
  136OSM   H16S14820   2.092   1.906   4.844  0.1768  0.2562  1.6289
  136OSM   H16T14821   2.151   2.081   4.818  1.5376 -1.1956  0.3385
  136OSM   C17S14822   1.981   2.032   4.703  0.0861 -0.0331  0.4717
  136OSM   H17S14823   2.060   2.070   4.634  3.7167 -0.2784  4.1156
  136OSM   H17T14824   1.902   2.109   4.717 -0.4703 -0.3164 -0.9362
  136OSM   C18S14825   1.917   1.905   4.655  0.2060  0.5010  0.2041
  136OSM   H18S14826   1.899   1.901   4.545  0.7518 -3.1759  0.1004
  136OSM   H18T14827   1.824   1.884   4.711  1.1835 -0.5422  1.5052
  136OSM   H18U14828   1.991   1.825   4.677 -0.8551 -1.3446 -2.3803
  136OSM    C1F14829   1.907   2.334   6.163 -0.2587  0.2649 -0.5152
  136OSM     OF14830   1.986   2.338   6.256  0.1876 -0.5939 -0.1359
  136OSM    C2F14831   1.880   2.446   6.062 -0.1840  0.0810  0.0267
  136OSM    H2F14832   1.775   2.479   6.077 -0.0857  0.0212  0.9253
  136OSM    H2G14833   1.905   2.393   5.968  0.2599  0.4130 -0.0460
  136OSM    C3F14834   1.973   2.574   6.075  0.1573 -0.1052  0.1186
  136OSM    H3F14835   2.078   2.537   6.078  0.0984 -0.2112  1.6808
  136OSM    H3G14836   1.950   2.623   6.172  0.0778 -0.5780  0.3410
  136OSM    C4F14837   1.949   2.674   5.958  0.0744 -0.5057 -0.6138
  136OSM    H4F14838   1.977   2.625   5.862 -0.4213  0.6156 -1.3454
  136OSM    H4G14839   2.007   2.766   5.980 -2.5098  0.4186  3.6240
  136OSM    C5F14840   1.798   2.716   5.944 -0.7902  0.9865 -0.6278
  136OSM    H5F14841   1.781   2.761   6.044  0.9533 -1.5851  0.9515
  136OSM    H5G14842   1.738   2.623   5.931  1.4152 -0.2171 -3.3695
  136OSM    C6F14843   1.764   2.813   5.832  0.3244  0.2714 -0.3118
  136OSM    H6F14844   1.656   2.814   5.807  0.3876  0.6172 -0.5815
  136OSM    H6G14845   1.825   2.795   5.741  0.4372  2.5383 -0.7463
  136OSM    C7F14846   1.813   2.953   5.862 -0.7516 -0.4523  0.0523
  136OSM    H7F14847   1.922   2.965   5.882  0.1421 -3.9273 -1.9475
  136OSM    H7G14848   1.759   2.998   5.948  0.8169 -1.7308  1.8158
  136OSM    C8F14849   1.780   3.047   5.741 -0.9141  0.2294 -0.0489
  136OSM    H8F14850   1.788   3.148   5.787  0.8913 -0.8409  2.1981
  136OSM    H8G14851   1.679   3.028   5.698 -1.5073  0.9453  1.0009
  136OSM    C9F14852   1.893   3.034   5.633 -0.1076  0.0886  0.0854
  136OSM    H9F14853   1.995   3.059   5.664 -0.1636  3.6868 -2.0628
  136OSM   C10F14854   1.880   3.003   5.503 -0.0676  0.1118 -0.0960
  136OSM   H10F14855   1.969   3.007   5.439  0.5175 -0.6794  0.6510
  136OSM   C11F14856   1.746   2.965   5.438 -0.0560  0.6290 -0.4492
  136OSM   H11F14857   1.693   3.057   5.405 -1.7909  0.8293  2.5145
  136OSM   H11G14858   1.681   2.917   5.514  0.9972  3.1794  2.2756
  136OSM   C12F14859   1.764   2.884   5.305  0.3593  0.5287  0.5547
  136OSM   H12F14860   1.663   2.851   5.271  0.2160  1.3800  0.1138
  136OSM   H12G14861   1.828   2.797   5.327  2.1106  1.7824  0.6166
  136OSM   C13F14862   1.812   2.967   5.184  0.2522 -0.6577  0.3533
  136OSM   H13F14863   1.900   3.029   5.209  0.2018 -0.3833 -0.1290
  136OSM   H13G14864   1.737   3.042   5.151  1.5103 -0.7928 -3.3707
  136OSM   C14F14865   1.853   2.881   5.067 -0.1179  1.1053  0.7809
  136OSM   H14F14866   1.769   2.810   5.049  1.7703 -1.0234 -0.1106
  136OSM   H14G14867   1.932   2.811   5.103 -0.2574  0.9622  0.8082
  136OSM   C15F14868   1.890   2.965   4.951 -0.7074  0.3879  0.4913
  136OSM   H15F14869   1.988   3.016   4.959  1.4275 -2.3976 -3.7191
  136OSM   H15G14870   1.811   3.042   4.936 -1.6385 -0.2973  1.6684
  136OSM   C16F14871   1.895   2.875   4.820 -0.7366 -0.2164 -0.3186
  136OSM   H16F14872   1.796   2.828   4.803 -1.1079 -0.7322  2.7386
  136OSM   H16G14873   1.960   2.787   4.843  2.2550  1.8744 -0.1330
  136OSM   C17F14874   1.957   2.953   4.696  0.2004  0.0806 -0.7107
  136OSM   H17F14875   2.060   2.989   4.716 -0.2753  0.6292  1.0436
  136OSM   H17G14876   1.889   3.039   4.679 -1.9194 -1.3903 -0.0697
  136OSM   C18F14877   1.978   2.870   4.569  0.0106  0.2447 -0.2058
  136OSM   H18F14878   1.887   2.811   4.546 -0.3579  0.0039  1.7393
  136OSM   H18G14879   2.047   2.783   4.570 -1.0736 -0.7483 -2.7630
  136OSM   H18H14880   2.010   2.941   4.489  2.3041 -0.7258 -0.2325
  137OSM      N14881   3.642   1.733   7.012 -0.2370 -0.8832  0.4621
  137OSM    C1514882   3.507   1.735   7.083  0.1682  0.0301 -0.1187
  137OSM   H15A14883   3.518   1.772   7.183 -1.6158 -1.4068  0.6651
  137OSM   H15B14884   3.470   1.637   7.106  0.8583  0.1398  1.6146
  137OSM   H15C14885   3.427   1.792   7.037 -0.9111 -0.1862  1.4104
  137OSM    C1414886   3.695   1.874   6.993 -0.6222  0.6753 -0.3287
  137OSM   H14A14887   3.645   1.938   6.923 -0.8311  2.7597  1.5846
  137OSM   H14B14888   3.795   1.860   6.955 -0.8413 -0.2120 -0.5900
  137OSM   H14C14889   3.707   1.925   7.088 -4.0469  0.2017  0.4953
  137OSM    C1314890   3.732   1.655   7.095 -0.7469  0.1478  0.1250
  137OSM   H13A14891   3.826   1.658   7.042 -0.0904  1.8016  1.3123
  137OSM   H13B14892   3.705   1.551   7.109 -2.5589  0.8448  2.3050
  137OSM   H13C14893   3.739   1.705   7.190 -0.7684  0.8388 -0.2321
  137OSM    C1214894   3.620   1.675   6.874  0.5634 -0.4418 -0.1165
  137OSM   H12A14895   3.566   1.742   6.809  2.5190  1.4626  0.1078
  137OSM   H12B14896   3.577   1.576   6.877  0.9951 -0.6565  2.9856
  137OSM    C1114897   3.752   1.642   6.795 -0.5008  0.3370 -0.0783
  137OSM   H11A14898   3.815   1.731   6.816 -0.0559  0.3291 -1.2897
  137OSM   H11B14899   3.729   1.633   6.687  3.4528  0.8491 -1.1061
  137OSM      P14900   3.961   1.506   6.870  0.1810 -0.0079 -0.4792
  137OSM    O1314901   4.010   1.636   6.920  0.4677  0.3078 -0.3075
  137OSM    O1414902   3.993   1.392   6.961 -0.6874 -0.4924  0.5215
  137OSM    O1114903   4.027   1.488   6.727 -0.1718  0.1170 -0.6261
  137OSM    O1214904   3.808   1.520   6.836  0.2083  0.4200 -0.2387
  137OSM    C1S14905   3.997   1.372   6.649  0.6261  0.8464 -0.1372
  137OSM    H1S14906   3.907   1.318   6.685  1.6221 -1.1049 -0.4274
  137OSM    H1T14907   4.085   1.305   6.658 -1.4756 -1.9811  0.6516
  137OSM     NF14908   3.900   1.311   6.426 -0.3621 -0.5696 -0.0528
  137OSM    HNF14909   3.952   1.243   6.375  0.3332 -1.5968  1.9184
  137OSM    C2S14910   3.967   1.416   6.503 -0.6421  0.3407  0.3474
  137OSM    H2S14911   3.897   1.502   6.506  0.4096  1.2042  3.1588
  137OSM    C3S14912   4.101   1.466   6.439 -0.1550 -0.2328 -0.7539
  137OSM    H3S14913   4.155   1.371   6.421 -0.1406 -0.4995  0.5800
  137OSM     O314914   4.190   1.547   6.519 -0.1780  0.0096 -0.7093
  137OSM    HO314915   4.162   1.539   6.611 -0.2196 -2.0933 -0.8707
  137OSM    C4S14916   4.080   1.533   6.304  0.7238  0.5470  0.1215
  137OSM    H4S14917   4.061   1.641   6.310  0.7264  0.5769 -0.3939
  137OSM    C5S14918   4.100   1.476   6.189  0.1726  0.4801 -0.8015
  137OSM    H5S14919   4.150   1.378   6.192 -0.0512  0.3554 -1.0976
  137OSM    C6S14920   4.096   1.560   6.065  0.0106 -0.0069  0.0852
  137OSM    H6S14921   4.202   1.581   6.038  0.3278  0.2006  1.4057
  137OSM    H6T14922   4.061   1.663   6.085 -3.3213 -1.0259 -0.0106
  137OSM    C7S14923   4.007   1.525   5.945  0.0993  0.6342  0.9115
  137OSM    H7S14924   3.899   1.538   5.964  0.1387  0.9822  0.8981
  137OSM    H7T14925   4.021   1.416   5.924  1.6390  0.9904 -0.1218
  137OSM    C8S14926   4.053   1.593   5.814  0.7334  0.1758 -0.5605
  137OSM    H8S14927   4.163   1.590   5.822  0.7963 -1.2720 -1.5926
  137OSM    H8T14928   4.021   1.699   5.821 -0.6438 -0.0824 -2.2156
  137OSM    C9S14929   4.000   1.529   5.684  0.2695 -0.7125  0.3047
  137OSM    H9S14930   3.889   1.531   5.679  0.3086 -1.2960 -1.2238
  137OSM    H9T14931   4.022   1.420   5.687  0.4359 -0.6694  0.8439
  137OSM   C10S14932   4.069   1.594   5.561  0.6167  0.6312  0.9903
  137OSM   H10S14933   4.177   1.590   5.586  1.2406  1.2582 -1.3404
  137OSM   H10T14934   4.039   1.701   5.560  0.7611  0.7185  2.8920
  137OSM   C11S14935   4.041   1.531   5.421 -0.7902 -0.7149 -0.1367
  137OSM   H11S14936   3.933   1.506   5.418 -0.6931 -1.2369  0.4941
  137OSM   H11T14937   4.105   1.441   5.414  0.5268 -0.1781  2.9267
  137OSM   C12S14938   4.087   1.612   5.303 -0.6174 -0.0424 -0.2228
  137OSM   H12S14939   4.198   1.611   5.303 -0.5905  0.8126  1.0639
  137OSM   H12T14940   4.056   1.719   5.303 -1.2056 -0.0543 -4.1161
  137OSM   C13S14941   4.046   1.565   5.163  0.6446  0.1381  0.3251
  137OSM   H13S14942   4.061   1.637   5.079 -1.1528  0.0227 -0.1443
  137OSM   H13T14943   3.938   1.540   5.160  0.6948 -0.0931  0.4142
  137OSM   C14S14944   4.117   1.430   5.121 -0.0602 -0.4784  0.0906
  137OSM   H14S14945   4.098   1.369   5.212  1.6825  0.3340  1.0392
  137OSM   H14T14946   4.226   1.452   5.116  0.3217 -2.3346 -0.4815
  137OSM   C15S14947   4.068   1.358   5.001 -0.3181  0.7977  0.1783
  137OSM   H15S14948   4.100   1.421   4.916  0.7640  0.3393  0.2395
  137OSM   H15T14949   3.957   1.352   4.991 -0.2687 -0.2978  0.1953
  137OSM   C16S14950   4.143   1.224   4.988  0.0392  0.6082  0.3061
  137OSM   H16S14951   4.125   1.162   5.078 -1.1351 -1.1538 -1.0760
  137OSM   H16T14952   4.252   1.247   4.991  0.1957 -0.2088  1.6825
  137OSM   C17S14953   4.113   1.144   4.859 -0.0453  0.1257 -0.6939
  137OSM   H17S14954   4.113   1.209   4.769 -2.0001 -0.2860 -1.0250
  137OSM   H17T14955   4.009   1.108   4.845  0.1549 -0.5365 -0.5175
  137OSM   C18S14956   4.220   1.038   4.821  0.0129  0.2706  0.1398
  137OSM   H18S14957   4.196   1.002   4.719 -2.3923  1.5689  0.1719
  137OSM   H18T14958   4.217   0.955   4.894  2.4558 -1.7823 -1.8965
  137OSM   H18U14959   4.324   1.071   4.841 -0.6568  1.9406  1.0519
  137OSM    C1F14960   3.777   1.276   6.452  0.1794 -0.6024 -0.0225
  137OSM     OF14961   3.707   1.362   6.506  0.0196  0.1241  0.1833
  137OSM    C2F14962   3.729   1.138   6.417  0.0296 -0.0601 -0.2313
  137OSM    H2F14963   3.649   1.113   6.490  0.8626 -0.5310  0.5329
  137OSM    H2G14964   3.810   1.063   6.432 -0.0686 -0.6103 -2.1769
  137OSM    C3F14965   3.663   1.137   6.281  0.4020 -0.3990 -0.4169
  137OSM    H3F14966   3.585   1.214   6.298  0.4188 -0.3065 -0.7670
  137OSM    H3G14967   3.602   1.044   6.273  0.2449 -0.9465  4.2525
  137OSM    C4F14968   3.759   1.154   6.163 -0.1217  0.3470 -0.2623
  137OSM    H4F14969   3.850   1.090   6.172  0.9808  1.4561 -2.5692
  137OSM    H4G14970   3.789   1.260   6.157 -1.2153  0.6158 -1.9390
  137OSM    C5F14971   3.691   1.117   6.035 -0.2154  0.2529 -0.2499
  137OSM    H5F14972   3.631   1.201   5.994  4.3345  1.7561 -4.9356
  137OSM    H5G14973   3.621   1.034   6.059 -3.4064  2.9979  0.7767
  137OSM    C6F14974   3.793   1.094   5.928 -0.2201  0.2857  0.5246
  137OSM    H6F14975   3.886   1.045   5.964  0.2333  0.1667 -0.7678
  137OSM    H6G14976   3.828   1.195   5.900 -0.7287  0.3560  0.1267
  137OSM    C7F14977   3.740   1.034   5.796  0.3191 -0.0647 -0.6963
  137OSM    H7F14978   3.651   1.099   5.781 -1.5185 -1.6206  2.4106
  137OSM    H7G14979   3.704   0.930   5.804 -0.2449  0.1851  0.1534
  137OSM    C8F14980   3.835   1.037   5.675  0.6982  0.3441  1.0144
  137OSM    H8F14981   3.771   0.988   5.598  1.5359  0.6799  0.0803
  137OSM    H8G14982   3.908   0.953   5.679  0.6661  0.1496 -1.1926
  137OSM    C9F14983   3.896   1.161   5.625  0.3004 -0.2642  0.5077
  137OSM    H9F14984   3.900   1.244   5.697  2.4179  0.1017  0.0383
  137OSM   C10F14985   3.970   1.174   5.514 -0.4086 -0.4169  0.6815
  137OSM   H10F14986   3.998   1.274   5.477 -2.4173 -0.1600 -0.2441
  137OSM   C11F14987   4.007   1.078   5.406  0.8760  0.8403  0.1719
  137OSM   H11F14988   3.966   0.978   5.431  0.1531  0.5446 -1.9736
  137OSM   H11G14989   4.117   1.075   5.398  1.3615  1.5271  4.2590
  137OSM   C12F14990   3.932   1.108   5.273 -0.1655 -0.0114  0.8181
  137OSM   H12F14991   3.952   1.015   5.216 -0.9454 -1.4218  2.7159
  137OSM   H12G14992   3.975   1.191   5.214 -0.3332 -1.2981 -1.2167
  137OSM   C13F14993   3.780   1.116   5.284 -0.1314 -0.1897 -0.7127
  137OSM   H13F14994   3.745   1.198   5.350  2.1774  1.6450 -1.6618
  137OSM   H13G14995   3.744   1.021   5.329 -0.4250  0.6396  0.8690
  137OSM   C14F14996   3.710   1.143   5.151 -0.0862  0.3599 -0.2693
  137OSM   H14F14997   3.710   1.247   5.113  0.3676  0.7983  0.8973
  137OSM   H14G14998   3.601   1.120   5.159  0.0157  0.0769  0.3993
  137OSM   C15F14999   3.764   1.058   5.028  0.1472  0.5632  0.1038
  137OSM   H15F15000   3.768   0.948   5.047 -0.5108  0.2387 -1.4726
  137OSM   H15G15001   3.862   1.102   5.001 -0.9699  3.0283 -0.2096
  137OSM   C16F15002   3.674   1.076   4.907  0.5018  0.4033  0.2629
  137OSM   H16F15003   3.686   1.179   4.865  0.7326 -0.3199 -1.5126
  137OSM   H16G15004   3.574   1.042   4.942  0.5435 -2.7727 -2.2974
  137OSM   C17F15005   3.710   0.970   4.803  0.1633 -0.3412  0.1058
  137OSM   H17F15006   3.686   0.865   4.831 -0.2182 -0.7386 -1.5954
  137OSM   H17G15007   3.820   0.974   4.789  0.1672 -2.7469 -1.2647
  137OSM   C18F15008   3.635   0.984   4.668  0.4360 -0.6455  0.4743
  137OSM   H18F15009   3.531   1.022   4.679 -0.8348 -2.4103 -3.6009
  137OSM   H18G15010   3.624   0.883   4.623 -0.5179 -0.5870  0.5523
  137OSM   H18H15011   3.695   1.049   4.600  0.5046 -1.2120 -0.0214
  138OSM      N15012   1.035   1.211   6.946  0.0815 -0.3726  0.6728
  138OSM    C1515013   1.038   1.170   7.081 -0.0715 -0.4564 -0.8369
  138OSM   H15A15014   1.112   1.206   7.151 -0.4086  0.1154 -0.7661
  138OSM   H15B15015   1.046   1.063   7.085 -0.3529 -0.5661 -2.6120
  138OSM   H15C15016   0.946   1.195   7.132 -0.3450 -0.1632 -1.4582
  138OSM    C1415017   0.899   1.178   6.898  0.8670 -0.1231 -0.6226
  138OSM   H14A15018   0.827   1.208   6.973  1.1215 -1.6449  0.2606
  138OSM   H14B15019   0.881   1.072   6.882 -2.3009  0.2901 -0.5078
  138OSM   H14C15020   0.871   1.237   6.812  2.4813 -0.0559 -1.1216
  138OSM    C1315021   1.063   1.355   6.940  0.0958  0.1885 -0.5066
  138OSM   H13A15022   1.159   1.381   6.983 -0.0417 -1.0468  0.6155
  138OSM   H13B15023   0.994   1.414   6.998 -0.1335 -2.5770  2.3369
  138OSM   H13C15024   1.061   1.398   6.841  1.4831  0.4138 -0.4645
  138OSM    C1215025   1.148   1.141   6.857  0.2300  0.3184 -0.4331
  138OSM   H12A15026   1.134   1.034   6.863 -2.7248  0.4884 -2.3910
  138OSM   H12B15027   1.241   1.165   6.908  0.5252 -0.5667 -0.5285
  138OSM    C1115028   1.154   1.192   6.713  0.0124  0.4492 -0.3480
  138OSM   H11A15029   1.049   1.193   6.678 -0.1200  0.0217  0.0335
  138OSM   H11B15030   1.214   1.119   6.655  0.7958  0.4606  0.4402
  138OSM      P15031   1.361   1.353   6.713  0.1071 -0.0406 -0.1689
  138OSM    O1315032   1.378   1.500   6.725 -0.2747 -0.0683 -0.3008
  138OSM    O1415033   1.421   1.270   6.822  0.6530 -0.1805  0.3844
  138OSM    O1115034   1.413   1.301   6.571  0.2418  0.1056 -0.2402
  138OSM    O1215035   1.206   1.324   6.704 -0.0206 -0.1705  0.4844
  138OSM    C1S15036   1.348   1.339   6.450 -0.3115 -0.0005  0.0763
  138OSM    H1S15037   1.330   1.448   6.451 -0.1736  0.0339 -0.6292
  138OSM    H1T15038   1.248   1.291   6.447  0.2613 -1.6863  3.3687
  138OSM     NF15039   1.387   1.358   6.208  0.0394  0.3832  0.3549
  138OSM    HNF15040   1.341   1.310   6.134  1.8556 -1.4693  0.3368
  138OSM    C2S15041   1.425   1.286   6.326 -0.2254  0.0286 -0.1033
  138OSM    H2S15042   1.532   1.307   6.344 -0.4801  0.6073  0.8570
  138OSM    C3S15043   1.397   1.139   6.318 -0.4502 -0.1792  0.3607
  138OSM    H3S15044   1.288   1.121   6.306 -0.2321 -0.9574 -0.6740
  138OSM     O315045   1.436   1.065   6.435  0.6006 -0.2661  0.3139
  138OSM    HO315046   1.415   1.131   6.503 -0.2942  0.0236 -0.2211
  138OSM    C4S15047   1.445   1.069   6.198 -0.6231  0.2753  0.2354
  138OSM    H4S15048   1.393   1.086   6.103 -0.9323 -1.7077  0.0080
  138OSM    C5S15049   1.567   1.007   6.186  0.1512 -0.2903  0.3427
  138OSM    H5S15050   1.632   1.004   6.275  0.6364 -1.6811 -0.0366
  138OSM    C6S15051   1.628   0.963   6.054 -0.0276 -0.4008 -0.0636
  138OSM    H6S15052   1.666   0.862   6.081 -0.4644  0.1138  2.7172
  138OSM    H6T15053   1.717   1.029   6.042  0.2179 -0.3119  1.9094
  138OSM    C7S15054   1.534   0.959   5.930 -0.0260 -0.3869 -0.7720
  138OSM    H7S15055   1.497   1.062   5.911 -0.7757 -0.3170  0.9198
  138OSM    H7T15056   1.446   0.894   5.949  0.4372 -0.4832  1.1782
  138OSM    C8S15057   1.617   0.912   5.804  0.3059 -1.1886 -0.7361
  138OSM    H8S15058   1.679   0.825   5.836  0.3506 -1.6650 -2.0460
  138OSM    H8T15059   1.694   0.991   5.787  1.2852 -1.7539  0.8879
  138OSM    C9S15060   1.534   0.871   5.684  0.1151 -0.1589  0.0601
  138OSM    H9S15061   1.450   0.940   5.664  0.6290  1.0968  1.9750
  138OSM    H9T15062   1.484   0.773   5.701 -1.3190  0.5714  0.1942
  138OSM   C10S15063   1.613   0.864   5.553  0.0495 -0.4908  0.0905
  138OSM   H10S15064   1.700   0.799   5.576  1.1590  1.3665  1.3977
  138OSM   H10T15065   1.651   0.965   5.529 -1.8114 -0.1070 -1.5771
  138OSM   C11S15066   1.524   0.812   5.438  0.7057 -0.8363  0.3684
  138OSM   H11S15067   1.426   0.864   5.430  0.5996 -1.3309 -3.4865
  138OSM   H11T15068   1.503   0.706   5.464  1.3472 -1.9077 -2.9698
  138OSM   C12S15069   1.590   0.798   5.302  0.0706 -0.1572 -0.3743
  138OSM   H12S15070   1.693   0.758   5.298  0.7373  1.4320  0.2275
  138OSM   H12T15071   1.604   0.905   5.278  0.4169 -0.1986 -0.3640
  138OSM   C13S15072   1.509   0.722   5.198 -0.2539  0.3632  0.4849
  138OSM   H13S15073   1.403   0.740   5.223  0.3514  1.6466  2.3561
  138OSM   H13T15074   1.529   0.613   5.195 -0.7372  0.2558  1.0559
  138OSM   C14S15075   1.558   0.773   5.062 -0.8221 -0.0341 -0.2596
  138OSM   H14S15076   1.669   0.770   5.070 -0.8618 -2.1171  0.1202
  138OSM   H14T15077   1.522   0.878   5.055 -3.1759 -0.8427 -1.1241
  138OSM   C15S15078   1.524   0.679   4.944 -0.0564 -0.5213 -0.0142
  138OSM   H15S15079   1.414   0.669   4.926  0.0604 -0.9689 -0.5063
  138OSM   H15T15080   1.584   0.590   4.971  3.3509  2.2697  2.3651
  138OSM   C16S15081   1.586   0.729   4.807 -0.2778  0.6285 -0.0572
  138OSM   H16S15082   1.696   0.738   4.825 -0.2767 -1.8542  1.7952
  138OSM   H16T15083   1.549   0.830   4.781  0.2495  0.4135 -1.7542
  138OSM   C17S15084   1.546   0.630   4.703 -0.5940 -0.3597  0.5190
  138OSM   H17S15085   1.437   0.619   4.687 -0.2762 -0.1059 -2.5095
  138OSM   H17T15086   1.574   0.524   4.721  0.3956  0.0207  1.2939
  138OSM   C18S15087   1.608   0.677   4.569 -0.0136  0.4946  0.4374
  138OSM   H18S15088   1.713   0.712   4.577  0.7756 -0.9081 -2.3175
  138OSM   H18T15089   1.549   0.763   4.530 -1.0220  1.0193  2.8970
  138OSM   H18U15090   1.609   0.600   4.489 -1.9940  1.0293 -0.1655
  138OSM    C1F15091   1.412   1.490   6.211  0.1688 -0.0527 -0.2283
  138OSM     OF15092   1.487   1.545   6.297  0.3052 -0.0005  0.0399
  138OSM    C2F15093   1.354   1.567   6.096 -0.2439  0.1631 -0.2183
  138OSM    H2F15094   1.322   1.662   6.143 -2.6856 -1.9972  2.9268
  138OSM    H2G15095   1.263   1.516   6.059  0.7055 -1.7094 -0.0755
  138OSM    C3F15096   1.461   1.590   5.987 -0.1659  0.2428 -0.6281
  138OSM    H3F15097   1.496   1.499   5.934 -0.9294 -0.1720 -0.4281
  138OSM    H3G15098   1.545   1.648   6.031  1.6931 -3.2160  0.7778
  138OSM    C4F15099   1.403   1.657   5.856  0.1902 -0.1420 -0.9568
  138OSM    H4F15100   1.361   1.759   5.870 -0.4809  0.0697 -3.8535
  138OSM    H4G15101   1.313   1.600   5.823 -0.9624  0.2729  1.2682
  138OSM    C5F15102   1.503   1.668   5.737  0.1182 -0.2758 -0.4559
  138OSM    H5F15103   1.543   1.571   5.702 -1.3755 -1.5666  1.1932
  138OSM    H5G15104   1.590   1.732   5.761  0.0605 -0.2540 -0.2994
  138OSM    C6F15105   1.423   1.714   5.617  0.1232  0.0103  0.7438
  138OSM    H6F15106   1.384   1.814   5.647 -0.0986  0.4950 -1.0359
  138OSM    H6G15107   1.335   1.647   5.602  1.2801 -1.2588 -0.7018
  138OSM    C7F15108   1.498   1.721   5.478  0.0517  0.1706 -0.3513
  138OSM    H7F15109   1.435   1.778   5.406  1.1549  1.5123 -0.2989
  138OSM    H7G15110   1.514   1.616   5.445 -0.5879  0.0102 -0.1545
  138OSM    C8F15111   1.643   1.774   5.492  0.6193  0.0532  0.4693
  138OSM    H8F15112   1.699   1.710   5.564  0.8151 -1.0695 -0.6601
  138OSM    H8G15113   1.650   1.879   5.526  0.9634  0.0315  0.4657
  138OSM    C9F15114   1.721   1.753   5.363  0.2845  0.9642 -0.3933
  138OSM    H9F15115   1.794   1.671   5.367 -0.2439  0.4281 -1.3197
  138OSM   C10F15116   1.697   1.823   5.255  0.0449 -0.0204  0.2371
  138OSM   H10F15117   1.763   1.794   5.172  1.9661  0.5418  1.5128
  138OSM   C11F15118   1.600   1.935   5.234 -0.4588  1.1458  0.9949
  138OSM   H11F15119   1.647   2.028   5.195  1.3220  0.1721  0.7200
  138OSM   H11G15120   1.552   1.959   5.332 -0.8172  1.0468  0.8448
  138OSM   C12F15121   1.487   1.906   5.130 -0.9770  0.5490  0.0212
  138OSM   H12F15122   1.409   1.985   5.135 -1.5130 -0.0546  2.2175
  138OSM   H12G15123   1.445   1.805   5.153 -0.1860  0.4366  1.0151
  138OSM   C13F15124   1.544   1.902   4.989 -0.9036  0.4228 -0.2007
  138OSM   H13F15125   1.621   1.822   4.992 -0.9869  0.3261 -0.6832
  138OSM   H13G15126   1.592   2.002   4.977  0.4933 -0.2344 -0.3078
  138OSM   C14F15127   1.442   1.873   4.883  0.0124  0.2410  1.0510
  138OSM   H14F15128   1.350   1.933   4.899 -1.1804 -2.0243  3.4781
  138OSM   H14G15129   1.404   1.769   4.883  0.3542  0.0946 -0.2874
  138OSM   C15F15130   1.497   1.913   4.744 -0.3796  0.3409  0.1377
  138OSM   H15F15131   1.594   1.861   4.728 -0.4635 -0.1904  1.2568
  138OSM   H15G15132   1.505   2.024   4.746 -1.3605  0.4149  0.4243
  138OSM   C16F15133   1.413   1.880   4.624  1.2308  0.7402  0.0886
  138OSM   H16F15134   1.305   1.888   4.648  1.1053  2.5888 -0.8984
  138OSM   H16G15135   1.423   1.775   4.587 -1.4217  1.0437 -1.8163
  138OSM   C17F15136   1.443   1.960   4.500  0.0023 -0.1870 -0.0739
  138OSM   H17F15137   1.424   2.064   4.534  0.5755 -0.2246  0.3948
  138OSM   H17G15138   1.385   1.935   4.409  0.2016  0.3139 -0.3387
  138OSM   C18F15139   1.596   1.943   4.464 -0.1511 -0.2861  0.3730
  138OSM   H18F15140   1.662   2.005   4.529 -0.4627  1.4088 -0.8563
  138OSM   H18G15141   1.614   1.984   4.363  0.7453 -0.0937  0.5956
  138OSM   H18H15142   1.630   1.837   4.474 -1.8874 -1.0668 -1.4905
  139OSM      N15143   2.621   3.838   6.593 -0.1119  0.0463  0.1426
  139OSM    C1515144   2.495   3.870   6.670  0.4905  0.2828  0.1273
  139OSM   H15A15145   2.504   3.814   6.762 -0.5837 -0.9696 -0.4961
  139OSM   H15B15146   2.401   3.836   6.630 -0.4082  1.5008  1.1456
  139OSM   H15C15147   2.487   3.976   6.688  1.3353  0.2373  0.8453
  139OSM    C1415148   2.610   3.698   6.547  0.2150  0.8144 -0.2678
  139OSM   H14A15149   2.654   3.637   6.624  0.5243  4.0587  2.3791
  139OSM   H14B15150   2.654   3.678   6.450  0.8912 -0.5989  0.3048
  139OSM   H14C15151   2.508   3.664   6.555  1.1350 -2.1458 -0.0864
  139OSM    C1315152   2.632   3.937   6.484  0.4348 -0.0322  0.3705
  139OSM   H13A15153   2.701   3.912   6.405 -0.0865 -0.4388  0.0348
  139OSM   H13B15154   2.661   4.037   6.513  0.4016 -0.7458  3.0976
  139OSM   H13C15155   2.533   3.944   6.441  0.6459  1.1527  0.0425
  139OSM    C1215156   2.736   3.852   6.687  0.4735 -0.1326  0.3089
  139OSM   H12A15157   2.749   3.955   6.719  1.7076 -0.4939  1.0515
  139OSM   H12B15158   2.823   3.828   6.628 -1.0664 -0.9577 -1.7246
  139OSM    C1115159   2.737   3.766   6.820  0.2075  0.1265  0.4405
  139OSM   H11A15160   2.643   3.767   6.878  1.0817 -5.3528  2.6266
  139OSM   H11B15161   2.805   3.806   6.898  1.6546 -0.4808 -0.4639
  139OSM      P15162   2.910   3.570   6.786 -0.2423 -0.1533 -0.2397
  139OSM    O1315163   2.987   3.615   6.901  0.2896 -0.2600  1.1963
  139OSM    O1415164   2.882   3.424   6.779 -0.5160 -0.0348  0.4113
  139OSM    O1115165   2.972   3.624   6.645  0.3700 -0.1184 -0.0190
  139OSM    O1215166   2.762   3.630   6.792 -0.2018  0.2571 -0.1380
  139OSM    C1S15167   3.004   3.543   6.532  0.4296  0.2975 -0.3700
  139OSM    H1S15168   2.919   3.472   6.520  0.7596 -0.2702  0.5500
  139OSM    H1T15169   3.100   3.488   6.546  0.1122 -0.6221 -1.6061
  139OSM     NF15170   2.985   3.558   6.291  0.2524 -0.1304 -0.0864
  139OSM    HNF15171   3.058   3.523   6.232  0.0731  1.0857 -1.0861
  139OSM    C2S15172   3.021   3.632   6.406  0.7778  0.5489  0.4191
  139OSM    H2S15173   2.953   3.720   6.411 -0.1399 -0.1937  1.4554
  139OSM    C3S15174   3.171   3.683   6.401  0.6246 -0.9540 -0.2951
  139OSM    H3S15175   3.225   3.587   6.387  2.4417 -0.2852  1.6161
  139OSM     O315176   3.195   3.758   6.519 -0.0967  0.0411  0.5406
  139OSM    HO315177   3.121   3.732   6.574 -2.1947  4.4822  0.2903
  139OSM    C4S15178   3.212   3.779   6.291 -0.1368  0.2345  0.2498
  139OSM    H4S15179   3.135   3.856   6.270 -0.5530 -0.1506  0.3587
  139OSM    C5S15180   3.314   3.781   6.199 -0.7803 -0.4244 -0.1197
  139OSM    H5S15181   3.381   3.694   6.189 -0.9968 -0.5718 -0.3004
  139OSM    C6S15182   3.336   3.886   6.094 -0.3699 -0.2183 -0.0193
  139OSM    H6S15183   3.441   3.922   6.087 -0.6789  1.0722  1.6268
  139OSM    H6T15184   3.272   3.972   6.121 -1.4770 -2.2496  4.9441
  139OSM    C7S15185   3.307   3.829   5.955  0.0072  0.4486 -0.2117
  139OSM    H7S15186   3.196   3.825   5.948 -0.0150 -0.3808  0.5313
  139OSM    H7T15187   3.344   3.726   5.937 -0.1168  0.6274 -1.6553
  139OSM    C8S15188   3.342   3.927   5.834 -0.0844 -0.0296  0.2921
  139OSM    H8S15189   3.421   3.877   5.774 -0.2653 -1.2542  1.0385
  139OSM    H8T15190   3.375   4.023   5.879  2.9436 -0.1223 -1.3724
  139OSM    C9S15191   3.221   3.969   5.752 -0.0510  0.7758 -1.1802
  139OSM    H9S15192   3.141   4.017   5.812  0.0896  0.1220 -0.4570
  139OSM    H9T15193   3.167   3.882   5.710  1.1749 -0.5655 -0.1009
  139OSM   C10S15194   3.254   4.078   5.646  0.3474  0.1967  0.4800
  139OSM   H10S15195   3.277   4.172   5.700 -0.2104  0.8374 -0.3712
  139OSM   H10T15196   3.158   4.093   5.592 -0.7380 -1.0107  2.0189
  139OSM   C11S15197   3.373   4.050   5.550 -0.0400 -0.5477 -0.7734
  139OSM   H11S15198   3.458   3.998   5.599 -0.2658  1.0595  1.4731
  139OSM   H11T15199   3.406   4.146   5.504 -1.5945  0.7475  0.6705
  139OSM   C12S15200   3.318   3.971   5.415 -0.6410  0.8834  0.0348
  139OSM   H12S15201   3.242   3.892   5.436 -1.8120  1.0739 -2.9462
  139OSM   H12T15202   3.409   3.927   5.369 -0.7984  1.8492 -1.2581
  139OSM   C13S15203   3.253   4.050   5.306  0.2302 -0.4111  0.0753
  139OSM   H13S15204   3.328   4.125   5.274 -0.4564  0.0443 -0.5057
  139OSM   H13T15205   3.158   4.099   5.338  0.3097 -0.1908 -0.0250
  139OSM   C14S15206   3.218   3.959   5.182  0.5880 -0.1693  0.0255
  139OSM   H14S15207   3.135   3.887   5.200 -0.5731  0.2442 -3.1373
  139OSM   H14T15208   3.315   3.908   5.164 -0.9937 -2.8140 -1.6146
  139OSM   C15S15209   3.199   4.041   5.057  0.6233 -0.0295  0.0030
  139OSM   H15S15210   3.190   3.972   4.971 -1.0810 -0.7107  0.6862
  139OSM   H15T15211   3.277   4.114   5.025 -1.3685  1.6799 -1.2995
  139OSM   C16S15212   3.065   4.119   5.064  0.3160  0.3881 -0.0284
  139OSM   H16S15213   3.075   4.196   5.144  1.2789  0.8840 -0.6125
  139OSM   H16T15214   2.972   4.060   5.079  0.5062 -0.1181 -0.7906
  139OSM   C17S15215   3.036   4.206   4.944 -0.0684  0.1724 -0.2596
  139OSM   H17S15216   3.004   4.139   4.862  0.9529 -1.6975  0.7854
  139OSM   H17T15217   3.132   4.248   4.908 -0.4974  2.6118  1.2381
  139OSM   C18S15218   2.941   4.328   4.968  0.8067 -0.3255 -0.2704
  139OSM   H18S15219   2.933   4.392   4.878 -1.5659  1.0017  0.7935
  139OSM   H18T15220   2.966   4.398   5.050 -2.3863  0.3498  0.2297
  139OSM   H18U15221   2.838   4.294   4.991 -0.3012  1.5398 -2.1448
  139OSM    C1F15222   2.861   3.536   6.255 -0.4717  0.1072  0.5620
  139OSM     OF15223   2.770   3.560   6.330 -0.1692 -0.0264  0.4242
  139OSM    C2F15224   2.845   3.469   6.124 -0.1280  0.6603  0.1486
  139OSM    H2F15225   2.948   3.447   6.088 -0.1089  1.9704 -0.6553
  139OSM    H2G15226   2.817   3.541   6.044 -1.5671 -1.8965 -1.8183
  139OSM    C3F15227   2.760   3.345   6.123 -0.3372  0.4076  0.3413
  139OSM    H3F15228   2.740   3.335   6.014  0.7350 -0.7545  0.2292
  139OSM    H3G15229   2.663   3.362   6.174 -1.5565 -0.0043 -1.7259
  139OSM    C4F15230   2.846   3.222   6.171 -0.2255  0.1962 -0.4682
  139OSM    H4F15231   2.888   3.260   6.267 -1.4499 -0.6757  0.4530
  139OSM    H4G15232   2.928   3.211   6.097 -0.1912  0.6913 -0.5101
  139OSM    C5F15233   2.763   3.094   6.201 -0.4656  0.2898  0.2832
  139OSM    H5F15234   2.681   3.114   6.273 -0.1862  4.4123 -0.3243
  139OSM    H5G15235   2.830   3.017   6.244 -2.3161  0.6716  4.2432
  139OSM    C6F15236   2.697   3.037   6.074  0.4417  0.4880  0.2604
  139OSM    H6F15237   2.777   2.993   6.011 -0.0586  3.5584 -2.8071
  139OSM    H6G15238   2.659   3.120   6.010 -1.2667 -2.9249 -3.5564
  139OSM    C7F15239   2.578   2.941   6.093  0.7509  0.6042  0.0638
  139OSM    H7F15240   2.509   2.992   6.164 -1.7286  0.4676 -2.0774
  139OSM    H7G15241   2.610   2.844   6.137  0.3425  0.4917  0.1232
  139OSM    C8F15242   2.496   2.911   5.974  0.5106  1.0819  0.3602
  139OSM    H8F15243   2.451   2.810   5.974 -0.5892  1.5534 -0.5003
  139OSM    H8G15244   2.567   2.892   5.890  0.8272 -0.9244  1.0220
  139OSM    C9F15245   2.382   3.001   5.930 -0.1033 -0.1227  0.2187
  139OSM    H9F15246   2.307   3.014   6.010  2.9395  1.9062  2.9752
  139OSM   C10F15247   2.365   3.069   5.815 -0.8169  0.7712 -0.1258
  139OSM   H10F15248   2.279   3.136   5.798  0.6853  2.8199  0.0146
  139OSM   C11F15249   2.465   3.078   5.703 -0.3944  0.0177  0.2075
  139OSM   H11F15250   2.546   3.002   5.705 -1.2515 -0.8927  0.7524
  139OSM   H11G15251   2.511   3.179   5.707 -0.1469 -0.1075  0.6152
  139OSM   C12F15252   2.406   3.054   5.560  0.5055 -0.7931  0.6111
  139OSM   H12F15253   2.358   2.954   5.559 -1.7495  0.2077  0.9205
  139OSM   H12G15254   2.498   3.066   5.499  2.2181 -1.0950  2.9595
  139OSM   C13F15255   2.284   3.153   5.517  0.0208  0.1415  0.0087
  139OSM   H13F15256   2.317   3.254   5.549  0.0012  0.4360 -0.8839
  139OSM   H13G15257   2.195   3.122   5.576  0.1908  0.8767  0.6652
  139OSM   C14F15258   2.248   3.175   5.367  0.3704  0.0450  0.3598
  139OSM   H14F15259   2.308   3.257   5.323 -1.7574  0.9476 -1.0412
  139OSM   H14G15260   2.147   3.220   5.358  1.2938  2.0030 -1.1190
  139OSM   C15F15261   2.260   3.056   5.274 -0.3637 -0.6130  0.2669
  139OSM   H15F15262   2.188   2.972   5.288  1.6402 -2.7596 -1.4309
  139OSM   H15G15263   2.357   3.002   5.276 -0.7551 -1.4902 -1.7679
  139OSM   C16F15264   2.243   3.102   5.128 -0.3302  0.0844 -0.8830
  139OSM   H16F15265   2.326   3.173   5.107  1.6147 -2.0993 -0.9463
  139OSM   H16G15266   2.147   3.151   5.101 -2.0415 -3.3951 -1.6234
  139OSM   C17F15267   2.272   2.979   5.036 -0.4712  0.9007  0.7685
  139OSM   H17F15268   2.179   2.970   4.975 -1.2346  1.3163  1.8385
  139OSM   H17G15269   2.268   2.886   5.096 -0.8584 -0.9596 -1.9609
  139OSM   C18F15270   2.395   2.988   4.947 -0.1512  0.9729 -0.2085
  139OSM   H18F15271   2.482   2.991   5.016 -2.0263  1.7708  2.2466
  139OSM   H18G15272   2.383   3.078   4.884  0.1959  0.4433 -1.0503
  139OSM   H18H15273   2.405   2.904   4.875 -0.1344  1.4892 -0.8113
  140OSM      N15274   4.378   1.865   6.846  0.0033 -0.0713  0.0415
  140OSM    C1515275   4.432   1.779   6.949  0.3262  0.0424  0.0854
  140OSM   H15A15276   4.518   1.830   6.991  0.0362  1.6290 -1.1427
  140OSM   H15B15277   4.454   1.677   6.922  2.3692  0.0245  1.5265
  140OSM   H15C15278   4.362   1.771   7.031  0.3820 -1.4189  0.0184
  140OSM    C1415279   4.323   1.993   6.917 -0.0851  0.4452  0.0607
  140OSM   H14A15280   4.292   2.064   6.842  0.5014  0.6546  0.0116
  140OSM   H14B15281   4.396   2.033   6.986  1.8677 -2.2897 -0.2341
  140OSM   H14C15282   4.240   1.960   6.978  0.4491  2.4026  1.9360
  140OSM    C1315283   4.490   1.894   6.755 -0.1072  0.5951  0.4259
  140OSM   H13A15284   4.543   1.807   6.718  1.6419  2.7835 -2.6707
  140OSM   H13B15285   4.568   1.951   6.802  1.4436 -1.2758  0.2449
  140OSM   H13C15286   4.448   1.945   6.670 -1.5199 -2.7716 -1.1007
  140OSM    C1215287   4.265   1.796   6.763  0.2494 -0.2168 -0.1308
  140OSM   H12A15288   4.175   1.800   6.823  0.4919  1.4579  0.1783
  140OSM   H12B15289   4.288   1.691   6.756 -0.8278 -0.5386  0.9080
  140OSM    C1115290   4.222   1.866   6.635 -0.7721  0.4677 -0.0268
  140OSM   H11A15291   4.138   1.812   6.587 -0.9603  1.1625 -0.4867
  140OSM   H11B15292   4.302   1.863   6.558 -1.9470  0.9325 -1.3121
  140OSM      P15293   4.047   2.046   6.702 -0.0455  0.2530 -0.0231
  140OSM    O1315294   4.002   1.948   6.800  0.2457  0.3613 -0.2074
  140OSM    O1415295   4.034   2.189   6.745  0.9558 -0.3205 -0.2352
  140OSM    O1115296   3.957   2.028   6.574  0.7368 -0.1568 -1.5167
  140OSM    O1215297   4.189   2.005   6.661  0.1829  0.6958 -0.0121
  140OSM    C1S15298   4.008   2.029   6.437 -0.3861  0.1702  0.0045
  140OSM    H1S15299   4.119   2.031   6.434 -0.2042 -2.1757  2.0414
  140OSM    H1T15300   3.968   2.122   6.392  0.8888  0.7324 -0.0112
  140OSM     NF15301   4.021   1.935   6.217 -0.1596 -0.1906 -0.0834
  140OSM    HNF15302   3.961   1.972   6.146  0.0448  1.8280  0.7229
  140OSM    C2S15303   3.966   1.909   6.348  0.9100 -0.3859 -0.3328
  140OSM    H2S15304   4.020   1.826   6.398  0.1635 -1.6198 -1.5166
  140OSM    C3S15305   3.809   1.881   6.360  0.1828  0.3552 -0.8868
  140OSM    H3S15306   3.757   1.973   6.324  0.2795  1.4234  1.4919
  140OSM     O315307   3.762   1.853   6.489 -0.0784  0.2710 -0.9600
  140OSM    HO315308   3.836   1.868   6.549 -0.2035  0.0916 -0.7602
  140OSM    C4S15309   3.768   1.772   6.258 -0.1258 -0.1797  0.1304
  140OSM    H4S15310   3.728   1.819   6.167 -0.4418  0.0866  0.4050
  140OSM    C5S15311   3.755   1.631   6.279 -0.3308  0.4094  0.3927
  140OSM    H5S15312   3.756   1.592   6.382 -2.0976  1.5128  0.8842
  140OSM    C6S15313   3.686   1.542   6.180  0.4492  0.1258 -0.8101
  140OSM    H6S15314   3.645   1.465   6.249  0.7659  0.4220 -0.2872
  140OSM    H6T15315   3.769   1.486   6.132  1.4868  1.9990 -1.2845
  140OSM    C7S15316   3.583   1.605   6.087 -0.0002  0.7056 -0.3876
  140OSM    H7S15317   3.632   1.689   6.033  1.8455 -0.9643 -1.4044
  140OSM    H7T15318   3.496   1.635   6.149 -0.3330  0.2854 -0.6523
  140OSM    C8S15319   3.540   1.504   5.972  0.2971  0.5027 -0.7751
  140OSM    H8S15320   3.445   1.539   5.927  0.5814 -0.5737 -2.2766
  140OSM    H8T15321   3.514   1.410   6.024  1.2442  0.6563  0.0131
  140OSM    C9S15322   3.648   1.479   5.868  0.0883 -0.2853  0.3849
  140OSM    H9S15323   3.729   1.433   5.928  0.5198  0.6865  0.5675
  140OSM    H9T15324   3.696   1.571   5.828  2.1366 -1.0546  0.9258
  140OSM   C10S15325   3.602   1.384   5.760  0.4538  0.5173  0.3956
  140OSM   H10S15326   3.548   1.300   5.810 -0.6314  0.8460 -0.2058
  140OSM   H10T15327   3.687   1.333   5.710 -0.4200  0.7053 -1.3363
  140OSM   C11S15328   3.509   1.444   5.650 -1.0791  0.9749 -0.6158
  140OSM   H11S15329   3.566   1.525   5.600 -1.3668  1.5903  0.0389
  140OSM   H11T15330   3.424   1.500   5.694  0.2841  2.3922  0.2925
  140OSM   C12S15331   3.453   1.338   5.544  0.2043  0.0544 -1.0715
  140OSM   H12S15332   3.355   1.299   5.579  0.0632  1.7227  0.5744
  140OSM   H12T15333   3.532   1.260   5.543  1.6737  1.4845 -2.6990
  140OSM   C13S15334   3.437   1.391   5.400  0.0997 -0.1101 -0.7493
  140OSM   H13S15335   3.534   1.442   5.380  0.9271 -0.3054  2.2374
  140OSM   H13T15336   3.348   1.457   5.400 -0.1701 -0.4700 -1.5081
  140OSM   C14S15337   3.417   1.273   5.303 -0.5794 -0.0586  0.3643
  140OSM   H14S15338   3.469   1.190   5.355 -1.0764 -0.1728  0.6862
  140OSM   H14T15339   3.458   1.297   5.203 -0.4479  0.1361  0.4639
  140OSM   C15S15340   3.268   1.249   5.278 -0.1584 -0.1116  0.5255
  140OSM   H15S15341   3.219   1.346   5.253 -0.3457 -0.4891 -0.6007
  140OSM   H15T15342   3.225   1.229   5.379  1.1004 -0.9254  0.9235
  140OSM   C16S15343   3.244   1.132   5.183 -0.2056 -0.7920  0.5032
  140OSM   H16S15344   3.136   1.109   5.195 -1.3546  2.0790 -2.8317
  140OSM   H16T15345   3.305   1.048   5.223  1.7943  0.8936  1.1668
  140OSM   C17S15346   3.269   1.163   5.030  0.5438 -0.4108  0.5099
  140OSM   H17S15347   3.365   1.217   5.018 -0.5502  1.4372 -0.4965
  140OSM   H17T15348   3.187   1.229   4.993  0.5134  0.1027  1.4544
  140OSM   C18S15349   3.278   1.039   4.937  0.2710 -0.6233 -0.8468
  140OSM   H18S15350   3.193   0.971   4.959  0.0979 -0.0550  0.3718
  140OSM   H18T15351   3.364   0.985   4.981 -2.2123 -2.3847  2.3150
  140OSM   H18U15352   3.273   1.076   4.833 -2.2002  0.3086 -0.4708
  140OSM    C1F15353   4.150   1.917   6.186 -0.0994  0.0432 -0.1145
  140OSM     OF15354   4.228   1.865   6.261  0.1996  0.1615  0.2047
  140OSM    C2F15355   4.203   1.950   6.048 -0.5084  0.3123  0.1449
  140OSM    H2F15356   4.236   2.055   6.058  1.5095 -0.4408  2.3596
  140OSM    H2G15357   4.125   1.956   5.969 -0.3372  3.0387  0.1097
  140OSM    C3F15358   4.321   1.865   6.001  0.0183  0.1057  0.1018
  140OSM    H3F15359   4.304   1.755   5.994  2.3603 -0.2031 -2.5223
  140OSM    H3G15360   4.403   1.887   6.072 -0.1110  1.8322 -0.2421
  140OSM    C4F15361   4.379   1.925   5.864 -0.8786  0.0003  0.0589
  140OSM    H4F15362   4.478   1.885   5.833 -0.9194  1.0182 -1.4836
  140OSM    H4G15363   4.385   2.035   5.881 -1.5917  0.2413 -1.1380
  140OSM    C5F15364   4.287   1.900   5.745  0.5816  0.7802  0.8330
  140OSM    H5F15365   4.188   1.949   5.759  1.0060  1.4685  1.4368
  140OSM    H5G15366   4.261   1.793   5.732  0.1045  0.9462  0.3567
  140OSM    C6F15367   4.345   1.955   5.610  0.6018  0.1357 -0.1472
  140OSM    H6F15368   4.432   1.894   5.577 -0.9269 -1.1168 -2.0642
  140OSM    H6G15369   4.371   2.061   5.634  0.5574  0.4281 -1.3248
  140OSM    C7F15370   4.248   1.957   5.490  0.0644 -0.0802  0.4652
  140OSM    H7F15371   4.174   2.036   5.514 -0.4627 -0.4119 -0.0440
  140OSM    H7G15372   4.190   1.862   5.493 -0.9218  0.5255  1.5266
  140OSM    C8F15373   4.328   1.974   5.355 -0.2081 -0.4378 -1.0179
  140OSM    H8F15374   4.374   1.878   5.324  1.7775  0.6815 -1.6944
  140OSM    H8G15375   4.409   2.049   5.370 -0.4466  0.0791 -2.1949
  140OSM    C9F15376   4.247   2.028   5.249  0.1119 -0.3687 -0.2770
  140OSM    H9F15377   4.220   2.133   5.263  0.2760 -0.2096 -1.1096
  140OSM   C10F15378   4.238   1.979   5.128 -0.4862  0.3216  0.0773
  140OSM   H10F15379   4.178   2.029   5.050 -0.5457  0.0799 -0.0359
  140OSM   C11F15380   4.302   1.855   5.073 -0.6829 -0.2275  0.5412
  140OSM   H11F15381   4.224   1.776   5.070  0.7676 -1.7203  0.4329
  140OSM   H11G15382   4.379   1.824   5.148 -0.1436  1.6874  0.8152
  140OSM   C12F15383   4.375   1.859   4.934  0.2077 -0.3025 -0.6314
  140OSM   H12F15384   4.294   1.864   4.858 -1.2091 -0.0183  0.8103
  140OSM   H12G15385   4.435   1.766   4.929 -1.7156 -1.6441 -0.0926
  140OSM   C13F15386   4.478   1.972   4.915  0.2996  0.1264 -0.0080
  140OSM   H13F15387   4.557   1.951   4.989  2.0323 -0.6094 -1.9648
  140OSM   H13G15388   4.432   2.073   4.917 -1.6594 -0.6995 -0.6172
  140OSM   C14F15389   4.547   1.959   4.775 -0.2592 -0.4489  1.0555
  140OSM   H14F15390   4.571   1.851   4.771 -2.4028 -0.9493  0.6828
  140OSM   H14G15391   4.635   2.026   4.762 -0.1186 -0.8366 -0.0987
  140OSM   C15F15392   4.450   1.983   4.653 -0.3238  0.3277 -0.0560
  140OSM   H15F15393   4.412   2.087   4.650  0.2713  0.5432 -0.0567
  140OSM   H15G15394   4.368   1.912   4.677 -0.4899 -0.3400 -2.3757
  140OSM   C16F15395   4.504   1.942   4.513  0.0326  0.5049 -0.1211
  140OSM   H16F15396   4.420   1.957   4.442 -1.9166 -2.3394  1.3803
  140OSM   H16G15397   4.535   1.837   4.531  1.4155  1.1571  1.6188
  140OSM   C17F15398   4.621   2.018   4.456  0.0703  0.6266  0.5982
  140OSM   H17F15399   4.708   1.968   4.504  0.1880 -0.1898 -0.4455
  140OSM   H17G15400   4.636   2.124   4.486 -1.1611  0.7604  0.7608
  140OSM   C18F15401   4.625   2.010   4.305  0.0915  0.2380 -0.4893
  140OSM   H18F15402   4.564   2.092   4.261  0.0578 -0.4784 -1.8241
  140OSM   H18G15403   4.580   1.915   4.269 -0.6671  0.6709 -0.7083
  140OSM   H18H15404   4.730   2.018   4.271 -0.0377 -1.2654 -1.3411
  141OSM      N15405   3.366   3.624   6.885  0.3890 -0.4003 -0.6876
  141OSM    C1515406   3.388   3.732   6.985  0.1580  0.7929  0.6761
  141OSM   H15A15407   3.293   3.761   7.027 -0.5791  1.8486 -1.5553
  141OSM   H15B15408   3.418   3.827   6.943 -3.4350  1.8674  0.1737
  141OSM   H15C15409   3.456   3.701   7.063  1.2702 -0.5833 -0.7921
  141OSM    C1415410   3.313   3.500   6.953 -0.5287  0.2945  0.0079
  141OSM   H14A15411   3.310   3.421   6.880 -0.4215  0.9363 -0.6991
  141OSM   H14B15412   3.217   3.507   7.002 -1.2489  0.5019 -1.3975
  141OSM   H14C15413   3.381   3.457   7.025  0.2477 -0.2940 -1.0444
  141OSM    C1315414   3.263   3.666   6.788  0.1193 -0.2298  0.1322
  141OSM   H13A15415   3.258   3.593   6.708  1.1604 -1.1923  0.9163
  141OSM   H13B15416   3.296   3.755   6.737 -0.0092  0.6850  1.5843
  141OSM   H13C15417   3.165   3.687   6.827 -0.3670 -0.1628 -1.0876
  141OSM    C1215418   3.490   3.591   6.811  0.3182  0.5297  0.8709
  141OSM   H12A15419   3.552   3.538   6.882 -1.6504 -0.7845  1.6699
  141OSM   H12B15420   3.545   3.679   6.782  0.5943  0.1363  0.1780
  141OSM    C1115421   3.481   3.503   6.683  0.2331  0.2368  0.6555
  141OSM   H11A15422   3.579   3.469   6.643 -0.3271  1.1135 -1.6107
  141OSM   H11B15423   3.428   3.560   6.604  1.2576 -1.8994 -1.7650
  141OSM      P15424   3.381   3.282   6.602  0.1444 -0.1691  0.2534
  141OSM    O1315425   3.470   3.163   6.626  0.7585  0.1020  0.1812
  141OSM    O1415426   3.234   3.259   6.594 -0.0497  0.1802  0.0515
  141OSM    O1115427   3.434   3.362   6.473 -0.2847  0.0256  0.4108
  141OSM    O1215428   3.415   3.380   6.723 -0.2405 -0.5545 -0.0892
  141OSM    C1S15429   3.389   3.313   6.340 -0.4424  0.1960 -0.1444
  141OSM    H1S15430   3.278   3.320   6.343 -0.5646 -1.1365 -0.7438
  141OSM    H1T15431   3.427   3.209   6.330 -0.1897 -0.1649  3.4563
  141OSM     NF15432   3.377   3.349   6.091 -0.1719 -0.1390 -0.4637
  141OSM    HNF15433   3.431   3.282   6.042  0.4452 -1.7257  2.2273
  141OSM    C2S15434   3.440   3.393   6.215 -0.6679 -0.0194  0.2885
  141OSM    H2S15435   3.422   3.500   6.235  3.0287  0.9514 -0.8114
  141OSM    C3S15436   3.602   3.393   6.224 -0.2282  0.2174  0.1440
  141OSM    H3S15437   3.649   3.295   6.205 -0.3089  0.4856 -1.6165
  141OSM     O315438   3.662   3.431   6.347  0.3693 -0.6528 -0.1275
  141OSM    HO315439   3.586   3.422   6.405 -1.0522 -0.5957 -1.8947
  141OSM    C4S15440   3.646   3.483   6.115 -0.3249 -0.4099 -0.0038
  141OSM    H4S15441   3.645   3.434   6.016 -0.6421 -0.9743  0.2759
  141OSM    C5S15442   3.660   3.615   6.118  0.1248  0.2890 -0.4122
  141OSM    H5S15443   3.667   3.664   6.216  1.1234 -0.5006 -0.0712
  141OSM    C6S15444   3.678   3.711   6.006  0.1594 -0.4215  0.2460
  141OSM    H6S15445   3.788   3.719   5.991  0.1767  0.0465  0.5876
  141OSM    H6T15446   3.645   3.814   6.031 -0.2922 -0.5944  0.3748
  141OSM    C7S15447   3.637   3.679   5.858 -0.6314  0.5102  0.1992
  141OSM    H7S15448   3.527   3.679   5.839 -0.6001  1.1520  0.0095
  141OSM    H7T15449   3.664   3.573   5.839 -2.9006 -0.5608  2.3319
  141OSM    C8S15450   3.698   3.776   5.755 -0.3290  1.1012  0.9742
  141OSM    H8S15451   3.809   3.773   5.761 -0.3230  0.2558  0.7301
  141OSM    H8T15452   3.660   3.879   5.767 -0.3541  1.1335  0.6418
  141OSM    C9S15453   3.661   3.729   5.610 -0.0518 -1.0855 -0.3499
  141OSM    H9S15454   3.554   3.749   5.589 -0.4954 -2.1159  0.8079
  141OSM    H9T15455   3.676   3.621   5.591 -0.4227 -1.2052  0.0290
  141OSM   C10S15456   3.746   3.800   5.503  0.4587  0.6360  0.0102
  141OSM   H10S15457   3.854   3.778   5.511  0.0341 -1.3276  1.0606
  141OSM   H10T15458   3.722   3.908   5.511 -1.0465  0.2243  1.9886
  141OSM   C11S15459   3.707   3.749   5.367 -0.2982  0.0901  0.3457
  141OSM   H11S15460   3.599   3.759   5.341  0.1914 -0.6583 -2.3153
  141OSM   H11T15461   3.734   3.642   5.356 -1.0220  0.1426 -3.5904
  141OSM   C12S15462   3.781   3.823   5.263 -0.4460  0.5454  0.5892
  141OSM   H12S15463   3.891   3.806   5.265 -0.5396 -0.2075 -0.1305
  141OSM   H12T15464   3.772   3.933   5.275  0.6204  0.4514  2.9559
  141OSM   C13S15465   3.728   3.783   5.123 -0.2030  0.2408  0.3911
  141OSM   H13S15466   3.720   3.869   5.053  2.4597 -0.7262 -1.2564
  141OSM   H13T15467   3.623   3.748   5.137 -0.1648  0.7787  2.2144
  141OSM   C14S15468   3.809   3.671   5.051 -0.1537 -0.5443 -0.4105
  141OSM   H14S15469   3.820   3.579   5.112 -0.5709  0.1385  0.7058
  141OSM   H14T15470   3.912   3.710   5.041 -0.9895  1.9759  0.2241
  141OSM   C15S15471   3.760   3.647   4.911  0.0530 -0.2829  0.2498
  141OSM   H15S15472   3.749   3.750   4.871 -1.7475 -0.4983  0.0955
  141OSM   H15T15473   3.657   3.604   4.920 -1.2109  2.3044 -0.6770
  141OSM   C16S15474   3.868   3.576   4.825 -0.0490 -0.1445  0.0166
  141OSM   H16S15475   3.865   3.469   4.855 -2.5527 -1.0817 -3.0070
  141OSM   H16T15476   3.968   3.620   4.843 -0.6742  0.2377  3.2412
  141OSM   C17S15477   3.830   3.586   4.680  0.5347 -0.2070  0.7749
  141OSM   H17S15478   3.833   3.691   4.644 -1.2877 -0.5208 -0.4007
  141OSM   H17T15479   3.727   3.552   4.655  0.7905 -0.3156 -0.1916
  141OSM   C18S15480   3.926   3.506   4.596  0.4498 -0.2655 -0.2294
  141OSM   H18S15481   4.029   3.547   4.597  0.5621 -0.5116  1.2212
  141OSM   H18T15482   3.886   3.506   4.493 -3.1450  1.6696  1.0073
  141OSM   H18U15483   3.931   3.400   4.629 -0.0479 -0.0367  0.6120
  141OSM    C1F15484   3.258   3.379   6.062 -0.4532 -0.0705  0.4793
  141OSM     OF15485   3.190   3.456   6.123 -0.0882  0.9609 -0.3618
  141OSM    C2F15486   3.205   3.302   5.946  0.0114  0.0496  0.0013
  141OSM    H2F15487   3.142   3.217   5.980  1.5958 -0.7719  0.9680
  141OSM    H2G15488   3.292   3.257   5.893  0.0571 -2.4550  2.0404
  141OSM    C3F15489   3.141   3.397   5.846  0.3819 -1.1374  0.6182
  141OSM    H3F15490   3.219   3.466   5.807  0.3215 -0.2252  2.0776
  141OSM    H3G15491   3.059   3.461   5.885 -0.2356 -1.0502 -0.7594
  141OSM    C4F15492   3.074   3.327   5.728 -0.3447 -0.0599 -0.8071
  141OSM    H4F15493   3.002   3.254   5.771  0.4505  0.8403  2.3120
  141OSM    H4G15494   3.154   3.262   5.688  1.3957  0.3754  1.6912
  141OSM    C5F15495   3.034   3.406   5.608 -0.0174 -0.5652 -0.2478
  141OSM    H5F15496   2.949   3.470   5.640  0.0803 -1.1151  1.2154
  141OSM    H5G15497   2.996   3.338   5.529 -0.4863 -1.3760  0.6536
  141OSM    C6F15498   3.147   3.494   5.549 -0.2124  0.9722  0.3444
  141OSM    H6F15499   3.241   3.436   5.537  0.3291  1.0915  3.2830
  141OSM    H6G15500   3.174   3.579   5.615 -0.9385  1.9705 -0.6171
  141OSM    C7F15501   3.108   3.546   5.410 -0.1905 -0.6221 -0.4631
  141OSM    H7F15502   3.033   3.626   5.424 -0.3444 -0.8690  0.1455
  141OSM    H7G15503   3.065   3.468   5.343 -1.5661 -0.3200  0.0386
  141OSM    C8F15504   3.228   3.605   5.332  0.2019 -0.3506  0.0553
  141OSM    H8F15505   3.297   3.665   5.396 -0.9688 -0.1594  1.1808
  141OSM    H8G15506   3.176   3.668   5.257 -3.2743 -2.0838  0.8443
  141OSM    C9F15507   3.310   3.493   5.265 -0.5491 -0.2565 -0.2101
  141OSM    H9F15508   3.366   3.437   5.342  2.8907  2.2674 -0.6185
  141OSM   C10F15509   3.339   3.456   5.138 -0.7447  0.3210 -0.6387
  141OSM   H10F15510   3.393   3.363   5.115 -2.4267 -0.4698 -1.5273
  141OSM   C11F15511   3.281   3.532   5.019 -0.7510  0.6166  0.1192
  141OSM   H11F15512   3.367   3.582   4.971 -0.7600  0.7854  0.2789
  141OSM   H11G15513   3.205   3.608   5.046  0.1169  1.9237 -1.0308
  141OSM   C12F15514   3.209   3.435   4.926 -0.7490  0.0082 -0.0553
  141OSM   H12F15515   3.126   3.386   4.981 -0.0353 -0.9725  0.1943
  141OSM   H12G15516   3.280   3.352   4.903 -1.1381 -0.2212 -0.4358
  141OSM   C13F15517   3.145   3.506   4.810 -0.4459 -0.7408 -0.2582
  141OSM   H13F15518   3.217   3.566   4.750 -1.2858  2.6456  1.8763
  141OSM   H13G15519   3.072   3.581   4.845  1.8816  2.1483 -1.1422
  141OSM   C14F15520   3.069   3.417   4.707 -0.5046  0.0267 -0.3123
  141OSM   H14F15521   3.137   3.340   4.665  1.0551  1.4940 -0.5655
  141OSM   H14G15522   3.030   3.481   4.626  1.1071 -0.2652 -1.3497
  141OSM   C15F15523   2.956   3.336   4.774  0.1644 -0.0277 -0.0367
  141OSM   H15F15524   2.910   3.396   4.855 -2.2302 -2.2981  0.4163
  141OSM   H15G15525   3.006   3.248   4.821 -1.9040 -1.5532 -0.5739
  141OSM   C16F15526   2.853   3.278   4.679  0.1750 -0.2094 -0.1632
  141OSM   H16F15527   2.900   3.188   4.635  0.4194 -0.0781 -0.1736
  141OSM   H16G15528   2.821   3.356   4.607 -0.9772 -0.4050  0.1115
  141OSM   C17F15529   2.731   3.236   4.757  0.1569  0.2438  0.5686
  141OSM   H17F15530   2.669   3.321   4.793 -1.1351 -0.4424  0.0337
  141OSM   H17G15531   2.768   3.182   4.846  0.2356 -3.6800 -1.6034
  141OSM   C18F15532   2.631   3.139   4.690  0.2143  0.2341  0.2805
  141OSM   H18F15533   2.594   3.183   4.595  0.9803 -0.3500 -0.3037
  141OSM   H18G15534   2.549   3.129   4.765  0.1625  2.6757  0.6468
  141OSM   H18H15535   2.677   3.039   4.677  0.9746  0.7561 -1.2790
  142OSM      N15536   2.261   1.435   6.688  0.3320  0.4388  1.0213
  142OSM    C1515537   2.272   1.475   6.832 -0.1095 -0.0699  0.0929
  142OSM   H15A15538   2.329   1.566   6.842 -1.1667  0.5905  0.2457
  142OSM   H15B15539   2.306   1.395   6.896 -0.7512  1.5273  2.5405
  142OSM   H15C15540   2.173   1.497   6.868 -0.7451 -1.4372 -0.7208
  142OSM    C1415541   2.183   1.315   6.681 -0.5010 -0.5111  0.0668
  142OSM   H14A15542   2.076   1.330   6.689 -0.2747  1.5984 -0.2644
  142OSM   H14B15543   2.212   1.247   6.759  0.4468 -0.8149 -0.5323
  142OSM   H14C15544   2.201   1.265   6.587 -0.0724 -1.9046  0.8677
  142OSM    C1315545   2.201   1.545   6.608  0.1440 -1.0375 -0.0599
  142OSM   H13A15546   2.103   1.571   6.646  0.6948  0.0787  0.6593
  142OSM   H13B15547   2.201   1.518   6.503 -0.0609  0.0395 -0.3495
  142OSM   H13C15548   2.251   1.638   6.630  0.1723 -0.9201 -0.6105
  142OSM    C1215549   2.398   1.409   6.625  0.5989 -0.0512 -0.1944
  142OSM   H12A15550   2.444   1.334   6.689 -2.9113  0.6959  3.5926
  142OSM   H12B15551   2.459   1.497   6.632  0.3474  0.1083  0.0225
  142OSM    C1115552   2.397   1.345   6.485 -0.6068  0.5036 -0.4103
  142OSM   H11A15553   2.499   1.345   6.440  0.6979 -2.3393  2.2211
  142OSM   H11B15554   2.335   1.417   6.426 -0.8880 -1.5393 -2.7890
  142OSM      P15555   2.417   1.079   6.525 -0.4475 -0.5819  0.0003
  142OSM    O1315556   2.482   1.105   6.653  0.7476  0.3024 -0.5325
  142OSM    O1415557   2.333   0.958   6.515 -0.3332  0.3140 -1.1382
  142OSM    O1115558   2.525   1.080   6.411  0.1962  0.4141 -0.2382
  142OSM    O1215559   2.337   1.211   6.475 -0.3589 -0.9789  0.2036
  142OSM    C1S15560   2.500   1.067   6.269  0.4797  0.9858 -0.8063
  142OSM    H1S15561   2.482   1.168   6.225  0.9355  1.7033  0.5976
  142OSM    H1T15562   2.408   1.007   6.251  0.1288  1.6519 -1.2829
  142OSM     NF15563   2.570   0.956   6.052 -0.3883  0.5629 -0.2940
  142OSM    HNF15564   2.552   0.859   6.042  0.3517  0.2925  0.7647
  142OSM    C2S15565   2.617   1.000   6.184  0.4341 -0.5550  0.2914
  142OSM    H2S15566   2.689   1.084   6.171  0.3412 -0.3183  1.1992
  142OSM    C3S15567   2.688   0.901   6.273  0.8667 -0.1238 -0.0184
  142OSM    H3S15568   2.615   0.819   6.292 -0.5449  0.4526 -2.5148
  142OSM     O315569   2.725   0.933   6.405 -0.1526 -0.0899  0.4169
  142OSM    HO315570   2.665   1.005   6.425  0.3813  0.2736  0.7514
  142OSM    C4S15571   2.815   0.859   6.197 -0.2862  0.1207 -0.0737
  142OSM    H4S15572   2.877   0.945   6.167 -0.2021 -0.0288 -0.3374
  142OSM    C5S15573   2.844   0.738   6.151 -0.5712 -0.0904 -0.1539
  142OSM    H5S15574   2.766   0.659   6.150 -0.6012 -0.1759  2.2296
  142OSM    C6S15575   2.970   0.701   6.076  0.2498  0.0651 -0.6980
  142OSM    H6S15576   3.033   0.632   6.136 -0.0785 -1.0345 -1.5976
  142OSM    H6T15577   3.026   0.794   6.052 -2.2242  1.3531 -1.9167
  142OSM    C7S15578   2.951   0.629   5.944 -0.5500 -0.4603  0.0846
  142OSM    H7S15579   2.879   0.547   5.962  1.2740 -1.7979  1.6093
  142OSM    H7T15580   3.050   0.594   5.907 -0.5884  1.9196 -2.6509
  142OSM    C8S15581   2.906   0.722   5.832  0.0659  0.4569 -0.7253
  142OSM    H8S15582   2.999   0.775   5.800  0.8499 -1.4889 -1.8668
  142OSM    H8T15583   2.838   0.804   5.865 -1.1533 -0.3461 -1.1906
  142OSM    C9S15584   2.860   0.650   5.706 -0.8300 -0.0873 -0.3703
  142OSM    H9S15585   2.760   0.609   5.731 -0.2528 -1.3870 -0.0757
  142OSM    H9T15586   2.929   0.564   5.699 -1.6207 -1.0625  2.3749
  142OSM   C10S15587   2.869   0.743   5.583  0.0262  0.7445 -0.1148
  142OSM   H10S15588   2.972   0.785   5.581  0.0092  0.9040  1.3577
  142OSM   H10T15589   2.787   0.818   5.583  0.3760  1.2543  2.5553
  142OSM   C11S15590   2.870   0.656   5.454  0.1617 -0.3119  0.1510
  142OSM   H11S15591   2.773   0.604   5.439 -0.5684  0.8397  0.7189
  142OSM   H11T15592   2.946   0.576   5.448 -0.4592 -0.8464 -3.7385
  142OSM   C12S15593   2.891   0.730   5.323  0.4620  0.8260  0.7649
  142OSM   H12S15594   2.956   0.677   5.251  1.9237  1.5256  1.5271
  142OSM   H12T15595   2.939   0.827   5.346  0.3705  1.8907 -2.8939
  142OSM   C13S15596   2.758   0.772   5.258 -0.4761 -0.3002  0.5293
  142OSM   H13S15597   2.687   0.791   5.342  0.4689  1.5827  0.9495
  142OSM   H13T15598   2.719   0.688   5.197 -0.0708 -0.2314  0.1712
  142OSM   C14S15599   2.770   0.892   5.160 -0.1065 -0.8260 -0.2020
  142OSM   H14S15600   2.784   0.990   5.210  2.7108 -2.3317  2.3061
  142OSM   H14T15601   2.675   0.907   5.105 -0.0983  1.3427  0.3093
  142OSM   C15S15602   2.891   0.893   5.061 -0.2534  0.4536  0.1930
  142OSM   H15S15603   2.893   0.789   5.021  0.5903 -1.2548  4.1741
  142OSM   H15T15604   2.988   0.915   5.110  0.4639  1.9480 -1.7692
  142OSM   C16S15605   2.883   0.987   4.941  0.1915  0.3611 -0.3993
  142OSM   H16S15606   2.780   0.958   4.911  0.4312 -3.3990  1.7213
  142OSM   H16T15607   2.965   0.946   4.879 -1.6938 -5.5613  0.3868
  142OSM   C17S15608   2.886   1.133   4.984 -0.5573 -0.2894 -0.3333
  142OSM   H17S15609   2.976   1.149   5.048 -0.2466  0.5193 -0.9575
  142OSM   H17T15610   2.791   1.153   5.038 -1.7677  1.7666 -2.9815
  142OSM   C18S15611   2.890   1.235   4.873 -0.0565  0.0201  0.1563
  142OSM   H18S15612   2.789   1.278   4.855 -0.0163 -0.0782 -0.3304
  142OSM   H18T15613   2.926   1.180   4.783  1.2843 -0.4365  0.9413
  142OSM   H18U15614   2.965   1.314   4.894  0.3846 -0.8584  2.0243
  142OSM    C1F15615   2.555   1.046   5.957  0.2092 -0.0093  0.2569
  142OSM     OF15616   2.576   1.166   5.982  0.4195  0.4988 -0.3542
  142OSM    C2F15617   2.524   0.995   5.820  0.4859  0.0301  0.7757
  142OSM    H2F15618   2.463   0.902   5.820  0.6572 -0.1713 -2.3587
  142OSM    H2G15619   2.617   0.965   5.766  0.1792  0.8828 -0.2658
  142OSM    C3F15620   2.447   1.096   5.724  0.4094  0.0437  0.0553
  142OSM    H3F15621   2.497   1.195   5.717 -1.0251  0.7230 -1.0009
  142OSM    H3G15622   2.343   1.117   5.757  0.9988 -0.3564  2.3417
  142OSM    C4F15623   2.428   1.046   5.581  0.2798 -0.1961  0.3515
  142OSM    H4F15624   2.391   0.943   5.564  3.3471 -1.1569 -1.1817
  142OSM    H4G15625   2.525   1.043   5.527  0.4844 -0.3643  0.7287
  142OSM    C5F15626   2.342   1.147   5.502 -0.2162  0.4171  0.0153
  142OSM    H5F15627   2.371   1.252   5.522 -1.0727  1.3996 -3.3452
  142OSM    H5G15628   2.235   1.146   5.534 -0.7109 -3.0524 -1.2393
  142OSM    C6F15629   2.356   1.120   5.350 -0.1924 -0.4442 -0.3325
  142OSM    H6F15630   2.338   1.011   5.331  0.0244 -0.5142 -0.1434
  142OSM    H6G15631   2.461   1.137   5.318  0.3938  0.6336  1.9848
  142OSM    C7F15632   2.258   1.196   5.261 -0.0012 -0.1815 -0.0448
  142OSM    H7F15633   2.266   1.305   5.279  0.7002 -0.1085 -0.7628
  142OSM    H7G15634   2.157   1.171   5.300  0.5503 -1.5184  0.6048
  142OSM    C8F15635   2.265   1.154   5.114  0.0999 -0.3419 -0.1764
  142OSM    H8F15636   2.181   1.203   5.060  0.7529  1.6187  0.4830
  142OSM    H8G15637   2.251   1.045   5.101 -1.9958 -0.0225 -1.0047
  142OSM    C9F15638   2.391   1.211   5.066 -0.6951 -0.5643 -0.1029
  142OSM    H9F15639   2.429   1.296   5.124 -3.2001  0.5071  0.0841
  142OSM   C10F15640   2.470   1.155   4.981 -0.4101 -0.3996 -0.3039
  142OSM   H10F15641   2.561   1.212   4.957 -0.1056 -0.3280  0.9525
  142OSM   C11F15642   2.444   1.040   4.894 -0.2587 -0.1497  0.3752
  142OSM   H11F15643   2.342   0.999   4.904  0.5656 -2.5893 -0.4202
  142OSM   H11G15644   2.516   0.956   4.908  0.5457  0.1489 -1.6799
  142OSM   C12F15645   2.454   1.091   4.746 -0.2470  0.0949  0.2479
  142OSM   H12F15646   2.383   1.176   4.734  0.6061  0.7218 -0.4218
  142OSM   H12G15647   2.410   1.015   4.677 -1.4100  0.2596  0.7750
  142OSM   C13F15648   2.588   1.142   4.698 -0.6260 -0.5451  0.0441
  142OSM   H13F15649   2.665   1.076   4.743 -1.0339 -2.8510 -2.3871
  142OSM   H13G15650   2.591   1.244   4.741 -0.5842  0.0487 -1.3315
  142OSM   C14F15651   2.611   1.140   4.545 -0.1948  0.1719  0.7005
  142OSM   H14F15652   2.517   1.178   4.499 -1.0184 -1.0679  1.3094
  142OSM   H14G15653   2.606   1.034   4.511  0.3779 -0.0127  1.1822
  142OSM   C15F15654   2.740   1.212   4.496  0.0904 -0.3771  0.6284
  142OSM   H15F15655   2.819   1.156   4.550  0.8793 -1.5316 -1.6192
  142OSM   H15G15656   2.748   1.322   4.511 -1.6093 -0.3496  1.6965
  142OSM   C16F15657   2.778   1.199   4.342  0.2875  0.2701 -0.1857
  142OSM   H16F15658   2.723   1.272   4.279  0.7293 -0.5765 -1.5857
  142OSM   H16G15659   2.742   1.101   4.307  0.5416  0.4979 -1.1277
  142OSM   C17F15660   2.929   1.214   4.312  0.0308  0.3324 -0.1246
  142OSM   H17F15661   2.967   1.314   4.343 -0.9511  0.5285  0.4905
  142OSM   H17G15662   2.931   1.222   4.201 -0.8240 -1.3928 -0.2873
  142OSM   C18F15663   3.010   1.103   4.372 -0.1430 -0.3866 -0.6813
  142OSM   H18F15664   2.964   1.003   4.356 -0.5306 -0.3362  0.0926
  142OSM   H18G15665   3.011   1.112   4.483 -2.1143  0.9609 -0.7287
  142OSM   H18H15666   3.117   1.103   4.340 -0.4991  2.3919 -2.2137
  143OSM      N15667   6.151   5.775   6.658  0.6689 -0.4263 -0.9222
  143OSM    C1515668   6.124   5.678   6.548  0.2554 -0.2403 -0.5563
  143OSM   H15A15669   6.033   5.687   6.491  0.6135 -0.2964 -1.1512
  143OSM   H15B15670   6.140   5.578   6.586  0.4773 -0.7362 -1.8747
  143OSM   H15C15671   6.205   5.693   6.477 -1.0754  2.6180 -1.6156
  143OSM    C1415672   6.061   5.747   6.772 -0.4701 -0.2144  0.2613
  143OSM   H14A15673   5.960   5.764   6.740 -0.4621  0.2023  0.4531
  143OSM   H14B15674   6.082   5.801   6.863 -1.4876 -0.1372  0.4620
  143OSM   H14C15675   6.064   5.644   6.806 -0.4530 -0.0076  0.8938
  143OSM    C1315676   6.295   5.767   6.703  0.0824 -0.1327 -0.0474
  143OSM   H13A15677   6.307   5.812   6.801  2.0019 -2.3695  0.8359
  143OSM   H13B15678   6.360   5.815   6.631 -1.0311 -0.5673 -1.3908
  143OSM   H13C15679   6.320   5.664   6.722 -0.7453 -0.3043  0.1564
  143OSM    C1215680   6.127   5.911   6.596  0.0040 -0.3563 -0.7792
  143OSM   H12A15681   6.038   5.924   6.537 -1.3701 -2.6007  0.6511
  143OSM   H12B15682   6.208   5.925   6.525 -1.6731  1.8775 -2.3996
  143OSM    C1115683   6.137   6.034   6.701 -0.3346 -0.3594 -0.3261
  143OSM   H11A15684   6.063   6.017   6.782 -0.9108 -0.8486 -0.9323
  143OSM   H11B15685   6.097   6.120   6.643  0.1825 -0.9114 -1.5537
  143OSM      P15686   6.371   6.140   6.646 -0.0281 -0.1952 -0.0248
  143OSM    O1315687   6.367   6.283   6.686  0.1603 -0.5602  0.1975
  143OSM    O1415688   6.495   6.066   6.671  0.2532  0.3022 -0.1174
  143OSM    O1115689   6.314   6.111   6.500 -0.4253 -0.1871 -1.0035
  143OSM    O1215690   6.264   6.078   6.746  0.2586 -0.3151  0.2200
  143OSM    C1S15691   6.399   6.107   6.385 -0.1414 -0.1972 -0.6391
  143OSM    H1S15692   6.439   6.004   6.371 -0.4885 -0.2937 -0.9138
  143OSM    H1T15693   6.489   6.170   6.403  1.2712 -2.4010  0.5255
  143OSM     NF15694   6.420   6.140   6.136  0.3887 -0.0869  0.3338
  143OSM    HNF15695   6.469   6.223   6.113 -2.6343  2.1782  1.4830
  143OSM    C2S15696   6.335   6.152   6.250  0.5307  0.0823 -0.1148
  143OSM    H2S15697   6.243   6.098   6.219 -0.5478  2.1326 -0.6414
  143OSM    C3S15698   6.292   6.299   6.272 -0.8572  0.2431  0.5330
  143OSM    H3S15699   6.381   6.358   6.302 -1.3561  0.9478  0.6467
  143OSM     O315700   6.200   6.323   6.381  0.0023  0.1000  0.4311
  143OSM    HO315701   6.214   6.244   6.434 -1.6071 -1.9091 -1.8693
  143OSM    C4S15702   6.225   6.356   6.152  0.9731  0.5778  0.3625
  143OSM    H4S15703   6.134   6.305   6.117  0.9461  0.0135  1.2158
  143OSM    C5S15704   6.268   6.460   6.078 -0.1258 -0.1278  0.1541
  143OSM    H5S15705   6.362   6.515   6.096  1.0984 -1.4539 -1.8457
  143OSM    C6S15706   6.200   6.505   5.957  0.0051  0.0960  0.2257
  143OSM    H6S15707   6.173   6.613   5.967 -1.0720 -0.2307  1.0587
  143OSM    H6T15708   6.104   6.454   5.933 -0.1365  1.4324 -2.5304
  143OSM    C7S15709   6.282   6.485   5.826  0.0415 -0.0215 -0.1012
  143OSM    H7S15710   6.385   6.526   5.835 -0.2804  0.5002  1.7701
  143OSM    H7T15711   6.223   6.534   5.745 -2.1009  0.1496  1.4601
  143OSM    C8S15712   6.284   6.337   5.799 -0.1777  0.9040 -0.2179
  143OSM    H8S15713   6.183   6.291   5.810 -0.2047  1.2485  1.1728
  143OSM    H8T15714   6.340   6.293   5.884 -0.9904  1.7455  0.7699
  143OSM    C9S15715   6.351   6.300   5.659 -0.5946 -0.2488  0.3427
  143OSM    H9S15716   6.423   6.216   5.666 -1.9901 -1.7283 -1.5643
  143OSM    H9T15717   6.409   6.389   5.626 -1.3894 -0.4240 -1.6686
  143OSM   C10S15718   6.257   6.273   5.546 -0.0744 -0.1712  0.4301
  143OSM   H10S15719   6.182   6.354   5.545 -0.2758 -0.3511  0.7985
  143OSM   H10T15720   6.206   6.180   5.581 -0.4989 -0.2758 -0.4392
  143OSM   C11S15721   6.324   6.257   5.415 -0.0555 -0.7581  0.6858
  143OSM   H11S15722   6.408   6.186   5.433 -2.3073 -3.7113  0.5044
  143OSM   H11T15723   6.359   6.355   5.379  0.9908 -0.8441  1.4205
  143OSM   C12S15724   6.237   6.194   5.304 -0.4001  0.7646 -0.3684
  143OSM   H12S15725   6.145   6.254   5.287 -0.8430  0.5871  1.1942
  143OSM   H12T15726   6.210   6.091   5.334  1.9798  0.2082  0.0071
  143OSM   C13S15727   6.312   6.181   5.172  0.2426 -0.4412 -0.6219
  143OSM   H13S15728   6.412   6.143   5.199 -0.2746  0.1134  2.3993
  143OSM   H13T15729   6.332   6.284   5.133 -1.4858  1.0572  2.1217
  143OSM   C14S15730   6.237   6.113   5.050 -0.2902  0.3747  0.1176
  143OSM   H14S15731   6.238   6.005   5.079  2.2263 -0.1346 -1.5146
  143OSM   H14T15732   6.301   6.124   4.960 -0.6617  1.6719 -0.0097
  143OSM   C15S15733   6.092   6.178   5.042 -0.1161  0.6486  0.5878
  143OSM   H15S15734   6.034   6.141   5.130 -0.4044  0.0487  0.1569
  143OSM   H15T15735   6.040   6.127   4.958  3.2287  0.0270 -1.2656
  143OSM   C16S15736   6.094   6.327   5.007 -0.7407 -0.0288  0.2878
  143OSM   H16S15737   6.156   6.333   4.915 -3.3481 -1.1739 -1.6677
  143OSM   H16T15738   6.130   6.386   5.094  0.1135 -0.0443 -0.0448
  143OSM   C17S15739   5.962   6.395   4.968 -0.0198 -0.1433  0.1737
  143OSM   H17S15740   5.876   6.379   5.037  0.3524  1.5045  1.0803
  143OSM   H17T15741   5.916   6.340   4.883 -2.0427  0.3886  0.8682
  143OSM   C18S15742   5.978   6.543   4.936 -0.0968  0.0203 -0.3757
  143OSM   H18S15743   6.045   6.566   4.851  2.0524  2.9380  1.9161
  143OSM   H18T15744   6.017   6.601   5.022 -1.1297  0.0119  0.1160
  143OSM   H18U15745   5.877   6.585   4.914 -0.2433  0.6582  1.3811
  143OSM    C1F15746   6.440   6.020   6.083  0.4332 -0.3011 -0.1453
  143OSM     OF15747   6.386   5.923   6.131 -0.0837  1.0219 -0.5300
  143OSM    C2F15748   6.533   6.019   5.966  0.8267 -0.0094  0.1054
  143OSM    H2F15749   6.628   6.074   5.985  1.1360  0.0706 -1.5592
  143OSM    H2G15750   6.492   6.077   5.881 -1.1031 -2.9821 -1.1488
  143OSM    C3F15751   6.585   5.885   5.912 -0.4435  0.0408  0.4400
  143OSM    H3F15752   6.627   5.835   6.002 -1.4120  0.6468  1.2543
  143OSM    H3G15753   6.664   5.920   5.842 -1.0951 -0.2087 -0.4361
  143OSM    C4F15754   6.474   5.791   5.846 -0.1187 -0.4721  0.2442
  143OSM    H4F15755   6.399   5.778   5.927 -0.4052 -0.1150  0.0401
  143OSM    H4G15756   6.524   5.696   5.817 -1.4582 -0.9494 -0.6266
  143OSM    C5F15757   6.411   5.859   5.714  0.0857  0.2458 -0.2851
  143OSM    H5F15758   6.493   5.868   5.640 -0.5544 -1.2978 -1.2288
  143OSM    H5G15759   6.363   5.954   5.744 -0.1760 -0.1844  0.7229
  143OSM    C6F15760   6.300   5.768   5.645  0.2816 -0.5469 -0.2093
  143OSM    H6F15761   6.227   5.767   5.729  1.9051  1.1563  1.3434
  143OSM    H6G15762   6.326   5.664   5.619 -0.8039 -0.0971 -3.6022
  143OSM    C7F15763   6.224   5.836   5.527  0.2191 -0.6622  0.2926
  143OSM    H7F15764   6.299   5.846   5.446 -1.2783 -4.7541 -1.9069
  143OSM    H7G15765   6.191   5.936   5.563  0.2095 -1.4850  2.7511
  143OSM    C8F15766   6.103   5.760   5.478 -0.0065 -0.6512  0.3218
  143OSM    H8F15767   6.026   5.767   5.558 -0.6627  2.5887 -0.4269
  143OSM    H8G15768   6.135   5.654   5.466  1.7509 -0.5861  3.4317
  143OSM    C9F15769   6.044   5.831   5.359 -0.8399 -0.2623  0.6217
  143OSM    H9F15770   5.972   5.910   5.387 -0.6087 -0.0196  0.5334
  143OSM   C10F15771   6.083   5.808   5.227  0.0746 -0.7417  0.6254
  143OSM   H10F15772   6.034   5.866   5.148 -2.3176 -2.9611  0.3456
  143OSM   C11F15773   6.187   5.704   5.182 -0.2881  0.5525  0.3759
  143OSM   H11F15774   6.183   5.613   5.246 -2.1656 -0.7597 -1.4819
  143OSM   H11G15775   6.294   5.736   5.186  0.5545 -1.8837 -0.8530
  143OSM   C12F15776   6.170   5.649   5.039 -0.0224 -0.0533  0.5504
  143OSM   H12F15777   6.064   5.618   5.029 -1.3321  4.1442 -0.3404
  143OSM   H12G15778   6.226   5.553   5.034  0.2235  0.1246 -0.3695
  143OSM   C13F15779   6.207   5.750   4.929  0.2892  0.4149  0.0687
  143OSM   H13F15780   6.318   5.761   4.928  0.6107 -2.0277  1.0991
  143OSM   H13G15781   6.153   5.844   4.952 -0.9465  0.5810 -3.1153
  143OSM   C14F15782   6.156   5.715   4.787 -0.4800 -0.0655 -0.6681
  143OSM   H14F15783   6.053   5.675   4.788 -0.7890  0.7184 -0.0517
  143OSM   H14G15784   6.225   5.645   4.734 -0.3578 -0.3476 -0.1509
  143OSM   C15F15785   6.152   5.845   4.697  0.0510  0.3860  0.4436
  143OSM   H15F15786   6.245   5.906   4.700  0.0306  0.4807 -0.6380
  143OSM   H15G15787   6.070   5.907   4.739  0.4038 -0.1409  1.9951
  143OSM   C16F15788   6.118   5.809   4.557  0.3515  0.1948 -0.2938
  143OSM   H16F15789   6.072   5.899   4.511 -2.5368 -1.2406 -0.4313
  143OSM   H16G15790   6.037   5.733   4.545  0.6690 -0.1195 -0.4625
  143OSM   C17F15791   6.237   5.771   4.474 -0.2016  0.4054  0.0078
  143OSM   H17F15792   6.206   5.720   4.380  0.2406 -0.4790  0.3284
  143OSM   H17G15793   6.291   5.690   4.528 -0.4178  0.5218  0.3991
  143OSM   C18F15794   6.339   5.886   4.435 -0.1512  0.2056  0.1542
  143OSM   H18F15795   6.289   5.974   4.391 -1.3669 -0.8202 -0.5675
  143OSM   H18G15796   6.396   5.855   4.345 -0.0813  1.5207 -0.2704
  143OSM   H18H15797   6.411   5.918   4.514 -0.4350  0.9367  0.1266
  144OSM      N15798   4.855   4.684   6.533 -0.5553  0.3960 -0.5655
  144OSM    C1515799   4.783   4.750   6.423  0.5452  0.2960 -0.0011
  144OSM   H15A15800   4.711   4.824   6.452  0.5497  0.3332 -0.0849
  144OSM   H15B15801   4.736   4.670   6.367 -0.5733 -2.2365  4.1309
  144OSM   H15C15802   4.857   4.797   6.360  0.9759 -1.5587 -0.9612
  144OSM    C1415803   4.893   4.785   6.637 -0.0373 -0.5963  0.1802
  144OSM   H14A15804   4.968   4.750   6.706  0.4260  0.3985  0.1971
  144OSM   H14B15805   4.811   4.816   6.701 -0.3722  0.0594 -0.5492
  144OSM   H14C15806   4.936   4.875   6.595 -2.1526  1.2344  1.6606
  144OSM    C1315807   4.766   4.591   6.599 -0.4567 -0.0927  0.2830
  144OSM   H13A15808   4.803   4.547   6.690  1.0650  1.2217  0.3385
  144OSM   H13B15809   4.739   4.513   6.529 -0.9089  0.7838 -0.5526
  144OSM   H13C15810   4.675   4.639   6.633 -1.6915 -2.6255  0.7531
  144OSM    C1215811   4.975   4.617   6.472 -0.6024  0.0238  0.6313
  144OSM   H12A15812   5.044   4.587   6.549  1.3143  2.5826  0.0526
  144OSM   H12B15813   5.029   4.693   6.417 -1.9892  0.7172  0.1775
  144OSM    C1115814   4.960   4.499   6.385 -0.1828  0.1419  1.4965
  144OSM   H11A15815   5.061   4.470   6.347 -1.0240  0.4302 -1.1882
  144OSM   H11B15816   4.904   4.531   6.294  1.8900  2.9080  1.0577
  144OSM      P15817   4.808   4.282   6.394  0.1550  0.2211  0.1733
  144OSM    O1315818   4.822   4.150   6.456 -0.0729 -0.1600  1.3359
  144OSM    O1415819   4.672   4.344   6.401 -0.6992 -0.2002 -0.1292
  144OSM    O1115820   4.856   4.281   6.243  0.1341  1.3906  0.0404
  144OSM    O1215821   4.911   4.387   6.459  0.5519  0.5501  0.8557
  144OSM    C1S15822   4.804   4.187   6.144  0.2917 -0.8514 -0.4314
  144OSM    H1S15823   4.694   4.201   6.145  0.4277  0.3573 -0.7156
  144OSM    H1T15824   4.832   4.082   6.168 -1.2910 -1.2071 -0.0223
  144OSM     NF15825   4.790   4.102   5.904 -0.3048 -0.2632 -0.3350
  144OSM    HNF15826   4.861   4.034   5.887  0.1352 -0.2231  1.1717
  144OSM    C2S15827   4.846   4.212   5.989  0.3870  0.4189 -0.3306
  144OSM    H2S15828   4.789   4.306   5.970 -0.3191  0.1848  0.5456
  144OSM    C3S15829   5.000   4.232   5.976  0.6373  0.0747 -0.7267
  144OSM    H3S15830   5.039   4.129   5.982  0.5075  0.0684  0.0091
  144OSM     O315831   5.061   4.327   6.070  0.5425  0.6166  0.0727
  144OSM    HO315832   4.993   4.331   6.138  1.2076 -0.4316  0.8283
  144OSM    C4S15833   5.024   4.279   5.833 -0.5505 -0.2875 -0.1047
  144OSM    H4S15834   4.995   4.384   5.817 -0.8999 -0.2792  0.5237
  144OSM    C5S15835   5.070   4.209   5.729 -0.2532 -0.0037  0.1952
  144OSM    H5S15836   5.094   4.102   5.736  0.7544  0.1814 -0.2788
  144OSM    C6S15837   5.112   4.266   5.594 -0.0743 -0.0607 -0.2118
  144OSM    H6S15838   5.099   4.377   5.600 -0.1895 -0.1331  1.2897
  144OSM    H6T15839   5.039   4.234   5.517 -1.3384  0.6374  0.6566
  144OSM    C7S15840   5.249   4.228   5.544  0.3757 -0.3127  0.9077
  144OSM    H7S15841   5.282   4.128   5.580 -0.9598 -0.6945  1.1409
  144OSM    H7T15842   5.328   4.299   5.576  1.1916 -1.4082  1.3969
  144OSM    C8S15843   5.256   4.204   5.389 -0.0668  0.1204  0.1095
  144OSM    H8S15844   5.357   4.237   5.357 -0.2066  1.2083  0.7366
  144OSM    H8T15845   5.200   4.282   5.332  2.2322  0.6676 -1.5466
  144OSM    C9S15846   5.215   4.066   5.336  0.1092 -0.2987 -0.4252
  144OSM    H9S15847   5.109   4.054   5.366  0.6170 -1.5480  1.0282
  144OSM    H9T15848   5.272   3.985   5.387  1.7758  0.0314 -1.6824
  144OSM   C10S15849   5.242   4.058   5.185  0.1333  0.1108  0.2136
  144OSM   H10S15850   5.352   4.072   5.176  0.4791 -2.6222 -0.6935
  144OSM   H10T15851   5.188   4.139   5.132  0.1290  0.5576  0.8864
  144OSM   C11S15852   5.220   3.917   5.118  0.0713  0.2199  0.5599
  144OSM   H11S15853   5.119   3.890   5.156  0.0437 -0.8833 -0.2347
  144OSM   H11T15854   5.297   3.843   5.148 -1.4604 -1.5201  0.4401
  144OSM   C12S15855   5.221   3.930   4.966  0.2077  0.6011 -0.0608
  144OSM   H12S15856   5.306   3.997   4.944  1.9711 -1.3047  0.6519
  144OSM   H12T15857   5.136   3.985   4.920  0.7672 -0.5944 -2.6993
  144OSM   C13S15858   5.260   3.795   4.908  0.5286 -0.0617  0.0694
  144OSM   H13S15859   5.188   3.715   4.932  1.3561 -1.3504 -1.5285
  144OSM   H13T15860   5.359   3.767   4.950  1.2114  1.7070 -0.2727
  144OSM   C14S15861   5.253   3.822   4.757  0.0524 -0.0797 -0.9106
  144OSM   H14S15862   5.323   3.902   4.725  0.9243 -0.0909  0.8981
  144OSM   H14T15863   5.144   3.845   4.746 -0.1586 -0.7290 -0.2064
  144OSM   C15S15864   5.280   3.702   4.674 -0.1208 -1.0246 -0.5382
  144OSM   H15S15865   5.194   3.631   4.677  0.3524 -1.6047 -0.4194
  144OSM   H15T15866   5.369   3.662   4.728  0.0216  3.4180  3.1953
  144OSM   C16S15867   5.326   3.719   4.524 -0.0737  0.2464  0.0124
  144OSM   H16S15868   5.417   3.783   4.525 -0.1813  0.4955  2.9825
  144OSM   H16T15869   5.256   3.777   4.461  1.5569  1.8204 -0.4316
  144OSM   C17S15870   5.380   3.592   4.453  0.0589  0.8373 -0.2339
  144OSM   H17S15871   5.292   3.524   4.450 -0.1061  0.9159  1.7366
  144OSM   H17T15872   5.458   3.531   4.503 -0.1362  0.7224 -0.0686
  144OSM   C18S15873   5.437   3.627   4.311 -0.1826  0.0528 -0.1644
  144OSM   H18S15874   5.482   3.536   4.265  0.5848 -0.7298  1.9865
  144OSM   H18T15875   5.515   3.700   4.342  0.3013 -2.0624  4.5002
  144OSM   H18U15876   5.361   3.669   4.242  1.9132  0.2342 -2.4999
  144OSM    C1F15877   4.658   4.092   5.878 -0.1762  0.1551  0.2625
  144OSM     OF15878   4.573   4.166   5.929  0.1669 -0.3312 -0.0072
  144OSM    C2F15879   4.619   3.968   5.806  0.3555  0.3490  1.0125
  144OSM    H2F15880   4.532   3.915   5.852 -0.1625  0.8275  0.6072
  144OSM    H2G15881   4.709   3.904   5.798  0.3018  0.2951  0.8305
  144OSM    C3F15882   4.586   3.998   5.664  0.3379  0.3516 -0.4575
  144OSM    H3F15883   4.492   4.058   5.660 -0.1690 -0.4691 -1.5299
  144OSM    H3G15884   4.561   3.907   5.606 -1.9212  0.5619  0.0842
  144OSM    C4F15885   4.689   4.073   5.582 -0.6422 -1.0478 -0.6514
  144OSM    H4F15886   4.779   4.008   5.572  1.6440  1.6160  0.9256
  144OSM    H4G15887   4.724   4.167   5.631 -0.4626 -1.8863  0.8809
  144OSM    C5F15888   4.646   4.110   5.437 -0.5480 -0.0997 -0.3247
  144OSM    H5F15889   4.551   4.163   5.457 -0.1806 -0.3908  2.7871
  144OSM    H5G15890   4.627   4.016   5.381  2.6106 -1.1846  0.2026
  144OSM    C6F15891   4.749   4.205   5.378 -0.2094 -0.0377 -0.3735
  144OSM    H6F15892   4.839   4.142   5.360 -0.8860 -0.9170 -0.7651
  144OSM    H6G15893   4.764   4.284   5.455 -0.5975  0.5558 -0.8897
  144OSM    C7F15894   4.692   4.276   5.252 -0.3620  1.2812 -0.5222
  144OSM    H7F15895   4.748   4.370   5.237 -0.1398  1.2165 -0.1150
  144OSM    H7G15896   4.588   4.306   5.276 -0.6424 -0.4563  0.6456
  144OSM    C8F15897   4.698   4.192   5.124  1.2284 -0.5036 -0.2378
  144OSM    H8F15898   4.643   4.099   5.146  1.2946 -0.1834  1.3816
  144OSM    H8G15899   4.804   4.164   5.106  0.1826 -3.0607 -3.5551
  144OSM    C9F15900   4.645   4.266   5.004 -0.1001  0.0506 -0.1068
  144OSM    H9F15901   4.671   4.373   5.001 -0.0497  0.2651  3.8016
  144OSM   C10F15902   4.557   4.218   4.914 -0.3926 -0.2999 -0.5861
  144OSM   H10F15903   4.540   4.277   4.823 -0.3244  1.3011  0.3990
  144OSM   C11F15904   4.502   4.081   4.907  0.2644 -0.6635  0.5615
  144OSM   H11F15905   4.394   4.094   4.930  0.9739 -0.6315  4.5613
  144OSM   H11G15906   4.540   4.016   4.989 -1.3205 -0.1766  1.7320
  144OSM   C12F15907   4.544   4.016   4.773 -0.6675 -0.7158 -0.3384
  144OSM   H12F15908   4.652   3.990   4.780 -0.8996 -1.3750  1.2107
  144OSM   H12G15909   4.512   4.087   4.694 -1.1355  0.6447  1.0338
  144OSM   C13F15910   4.470   3.879   4.764  0.5494 -0.3329  0.4677
  144OSM   H13F15911   4.397   3.873   4.848 -0.5884  0.3836 -0.4389
  144OSM   H13G15912   4.540   3.796   4.785 -0.2646 -0.7447  1.6609
  144OSM   C14F15913   4.376   3.867   4.640  0.9037  0.3173 -0.6683
  144OSM   H14F15914   4.306   3.952   4.629  1.7645  0.9735 -1.1755
  144OSM   H14G15915   4.316   3.775   4.660  1.8558 -0.3170 -0.6563
  144OSM   C15F15916   4.459   3.855   4.517  0.2008  0.0636  0.1545
  144OSM   H15F15917   4.520   3.763   4.528  2.2199  1.2303 -0.5436
  144OSM   H15G15918   4.523   3.946   4.513 -0.5441  0.5692 -1.6380
  144OSM   C16F15919   4.375   3.850   4.394  0.5584 -0.5306  0.5932
  144OSM   H16F15920   4.439   3.840   4.303 -1.6424  1.1222 -1.2816
  144OSM   H16G15921   4.318   3.942   4.369  1.9897 -0.1418 -1.6025
  144OSM   C17F15922   4.268   3.740   4.392  0.5557  0.3469  1.3184
  144OSM   H17F15923   4.192   3.773   4.466  0.3113  0.1556  1.1505
  144OSM   H17G15924   4.311   3.646   4.433  0.3295  0.7839  2.6187
  144OSM   C18F15925   4.200   3.717   4.256  1.3007 -0.7654  0.2026
  144OSM   H18F15926   4.134   3.803   4.228  1.2671 -1.0362 -0.5907
  144OSM   H18G15927   4.151   3.617   4.252 -0.5826 -0.0593  2.8217
  144OSM   H18H15928   4.284   3.710   4.184 -0.0567 -2.7179 -1.3145
  145OSM      N15929   4.776   0.318   6.579  0.4884 -0.4624 -0.3157
  145OSM    C1515930   4.763   0.272   6.439 -0.6330  0.3541  0.3034
  145OSM   H15A15931   4.682   0.201   6.427  1.4879 -2.0997 -0.2761
  145OSM   H15B15932   4.853   0.223   6.405 -1.0693 -0.2245 -0.0471
  145OSM   H15C15933   4.750   0.358   6.375 -1.1063  1.1758  1.4778
  145OSM    C1415934   4.651   0.386   6.610  0.3090  0.1576  0.3059
  145OSM   H14A15935   4.644   0.477   6.552  1.9021  0.7717  1.0329
  145OSM   H14B15936   4.651   0.418   6.713  1.4384  0.1277  0.3223
  145OSM   H14C15937   4.564   0.325   6.596  0.4073 -0.2658  1.4297
  145OSM    C1315938   4.780   0.204   6.670  0.4787  0.0551  0.2592
  145OSM   H13A15939   4.792   0.244   6.770  0.9296  0.8520 -0.1063
  145OSM   H13B15940   4.866   0.141   6.651  0.5492  0.2464 -0.0619
  145OSM   H13C15941   4.690   0.144   6.663 -1.5388  2.9866 -0.8994
  145OSM    C1215942   4.906   0.395   6.603  0.6870 -0.5065  0.1963
  145OSM   H12A15943   4.987   0.331   6.570  1.5665  1.7678 -2.5054
  145OSM   H12B15944   4.911   0.430   6.705  1.0475  0.5652 -0.1771
  145OSM    C1115945   4.931   0.518   6.508  0.1226  0.5976  0.2936
  145OSM   H11A15946   4.956   0.466   6.414 -2.2071 -3.4441  1.6348
  145OSM   H11B15947   5.022   0.570   6.543  0.3602  0.6255 -0.3696
  145OSM      P15948   4.745   0.647   6.366  0.3080  0.1188 -0.3829
  145OSM    O1315949   4.604   0.632   6.410  0.3545 -0.1374  0.5723
  145OSM    O1415950   4.796   0.770   6.305 -0.4949 -0.4226 -0.3646
  145OSM    O1115951   4.784   0.524   6.274  0.0948  0.4197 -0.1237
  145OSM    O1215952   4.825   0.618   6.499 -0.1313  0.2754 -0.9051
  145OSM    C1S15953   4.717   0.508   6.145 -0.5198  0.1856  0.2339
  145OSM    H1S15954   4.656   0.596   6.113 -0.6210 -1.0972 -3.6054
  145OSM    H1T15955   4.665   0.410   6.147  0.3660 -0.2885  0.6186
  145OSM     NF15956   4.751   0.498   5.908  0.3520 -0.0499  0.4199
  145OSM    HNF15957   4.705   0.412   5.888  0.1201 -0.1883  1.4933
  145OSM    C2S15958   4.818   0.484   6.032 -0.3583  0.0313  0.1501
  145OSM    H2S15959   4.890   0.568   6.044  0.7900 -1.0600  1.0675
  145OSM    C3S15960   4.906   0.356   6.044  0.6308 -0.3050 -0.4797
  145OSM    H3S15961   4.839   0.267   6.045 -0.9932  0.8467  1.1620
  145OSM     O315962   4.955   0.347   6.176 -0.1381  0.2068  0.1508
  145OSM    HO315963   4.882   0.388   6.223 -1.8090 -0.5165 -1.7114
  145OSM    C4S15964   5.013   0.356   5.934  0.4397 -0.5659 -1.0824
  145OSM    H4S15965   5.088   0.435   5.948  0.6628 -1.0171  0.5013
  145OSM    C5S15966   5.026   0.267   5.841 -0.2246 -0.0118  0.6071
  145OSM    H5S15967   4.952   0.186   5.830 -0.2444 -0.1077  1.3807
  145OSM    C6S15968   5.148   0.259   5.749 -0.0640  0.1621  0.4011
  145OSM    H6S15969   5.183   0.155   5.765 -1.9601 -0.4158  1.1180
  145OSM    H6T15970   5.237   0.324   5.751  1.6631 -2.0699 -0.1038
  145OSM    C7S15971   5.101   0.264   5.599 -0.0853  0.3754  0.5267
  145OSM    H7S15972   5.076   0.369   5.573  0.2329  0.5246  0.8128
  145OSM    H7T15973   5.017   0.193   5.589 -0.2234  0.6284 -0.1862
  145OSM    C8S15974   5.219   0.227   5.501 -0.5327  0.4843  0.0336
  145OSM    H8S15975   5.222   0.116   5.509  0.0940  0.5026  0.1271
  145OSM    H8T15976   5.317   0.270   5.531 -0.4790  1.0921 -0.9556
  145OSM    C9S15977   5.193   0.257   5.354 -0.7634  0.2998 -0.6533
  145OSM    H9S15978   5.189   0.367   5.337 -0.9211  0.7249  1.7646
  145OSM    H9T15979   5.090   0.221   5.330 -0.1986 -1.8987 -0.0081
  145OSM   C10S15980   5.292   0.177   5.264  0.8295 -0.4353 -0.6615
  145OSM   H10S15981   5.292   0.071   5.296  1.0072  0.2148  1.6449
  145OSM   H10T15982   5.396   0.211   5.285  0.9600 -0.6180 -1.0087
  145OSM   C11S15983   5.269   0.179   5.114 -0.9659  0.3363 -0.2896
  145OSM   H11S15984   5.273   0.284   5.075 -1.7576  0.3503 -0.3392
  145OSM   H11T15985   5.164   0.146   5.105 -1.3387  0.9947  1.3752
  145OSM   C12S15986   5.347   0.079   5.022  0.2992 -0.4133 -0.4042
  145OSM   H12S15987   5.329  -0.023   5.064  0.2319  0.6223  2.2973
  145OSM   H12T15988   5.456   0.099   5.015  0.0866  0.8870 -0.2411
  145OSM   C13S15989   5.295   0.082   4.877 -0.4451  0.4307  0.1032
  145OSM   H13S15990   5.295   0.189   4.845  1.3067  1.1444  2.2447
  145OSM   H13T15991   5.190   0.046   4.866 -0.4631  0.1314  1.1501
  145OSM   C14S15992   5.377  -0.011   4.783 -0.3059  0.0043  0.3778
  145OSM   H14S15993   5.387  -0.114   4.824 -2.6660 -0.3059  0.3153
  145OSM   H14T15994   5.473   0.038   4.754 -0.3798  0.8252  1.4539
  145OSM   C15S15995   5.310  -0.027   4.645 -1.2168 -0.5270 -0.4172
  145OSM   H15S15996   5.204  -0.059   4.648 -2.0724  2.0942  0.8033
  145OSM   H15T15997   5.368  -0.103   4.588 -0.1924 -0.1012  0.0293
  145OSM   C16S15998   5.314   0.101   4.552  0.7697  0.5064  0.3855
  145OSM   H16S15999   5.319   0.197   4.608  0.0660  0.2377  0.9224
  145OSM   H16T16000   5.217   0.100   4.498 -0.1701 -0.0151  2.0043
  145OSM   C17S16001   5.430   0.093   4.452 -0.5488  0.2840 -0.1992
  145OSM   H17S16002   5.529   0.081   4.500  0.3539 -0.4701 -2.1419
  145OSM   H17T16003   5.450   0.198   4.420 -1.9277  0.7576  0.3778
  145OSM   C18S16004   5.428  -0.013   4.341  0.1572  0.4956 -0.2283
  145OSM   H18S16005   5.515   0.000   4.273  0.1293  1.5437 -0.0731
  145OSM   H18T16006   5.329   0.006   4.294 -1.3374 -0.0975  2.4154
  145OSM   H18U16007   5.430  -0.115   4.386 -0.4453  0.1916 -0.8642
  145OSM    C1F16008   4.694   0.609   5.858 -0.4951 -0.3986 -0.3063
  145OSM     OF16009   4.727   0.720   5.900  0.2880 -0.1951 -0.0888
  145OSM    C2F16010   4.596   0.590   5.747  0.0625 -0.2839  0.1941
  145OSM    H2F16011   4.537   0.498   5.763 -0.7114 -0.0553 -1.1359
  145OSM    H2G16012   4.645   0.550   5.655 -0.4098  0.0847 -0.2216
  145OSM    C3F16013   4.497   0.707   5.742  0.3133 -0.6405  0.2727
  145OSM    H3F16014   4.549   0.805   5.752  0.7602 -0.5301 -2.4303
  145OSM    H3G16015   4.419   0.703   5.821  0.1199 -1.6742  0.0406
  145OSM    C4F16016   4.442   0.710   5.598 -0.3024  0.2151  0.2366
  145OSM    H4F16017   4.354   0.778   5.596  0.3429  1.0695  0.4319
  145OSM    H4G16018   4.404   0.610   5.569  2.0885 -0.5532 -0.4865
  145OSM    C5F16019   4.530   0.760   5.492 -0.9338  0.1732 -0.6155
  145OSM    H5F16020   4.612   0.689   5.469  0.2567  2.2903 -3.5569
  145OSM    H5G16021   4.583   0.851   5.527  0.6521 -0.7356 -0.5334
  145OSM    C6F16022   4.461   0.798   5.362 -0.5681 -0.2168  0.3845
  145OSM    H6F16023   4.396   0.886   5.381  0.2547  0.2574  1.0695
  145OSM    H6G16024   4.392   0.716   5.334 -0.4224 -0.1919 -0.0647
  145OSM    C7F16025   4.568   0.836   5.251 -0.2677  0.4055 -0.4168
  145OSM    H7F16026   4.649   0.760   5.246  0.5318  1.1712  0.6964
  145OSM    H7G16027   4.613   0.930   5.287 -0.2491  0.5936 -0.9166
  145OSM    C8F16028   4.523   0.859   5.111 -0.0774 -0.2644 -1.0999
  145OSM    H8F16029   4.607   0.906   5.057  1.6727 -1.6628  0.2818
  145OSM    H8G16030   4.437   0.928   5.096 -1.3436 -0.8427  2.4896
  145OSM    C9F16031   4.491   0.733   5.036 -0.2483 -0.3865  0.9277
  145OSM    H9F16032   4.413   0.670   5.082 -0.4679 -0.9482 -0.1752
  145OSM   C10F16033   4.542   0.689   4.918 -0.9130 -0.3652 -0.0728
  145OSM   H10F16034   4.502   0.595   4.877 -0.6652 -1.0207  1.1429
  145OSM   C11F16035   4.638   0.760   4.838  0.0041  0.4421 -0.0270
  145OSM   H11F16036   4.724   0.689   4.836 -0.6611 -0.5051  2.1193
  145OSM   H11G16037   4.676   0.850   4.892 -2.4541  2.5119 -1.5370
  145OSM   C12F16038   4.579   0.809   4.712 -0.5244 -0.5865  0.3766
  145OSM   H12F16039   4.657   0.872   4.664 -1.0132 -0.1278  0.1633
  145OSM   H12G16040   4.502   0.885   4.741  0.1205 -0.1754  1.0385
  145OSM   C13F16041   4.525   0.699   4.623 -0.5034 -0.2224 -0.6061
  145OSM   H13F16042   4.436   0.662   4.678 -0.9470  1.2242 -0.3233
  145OSM   H13G16043   4.596   0.617   4.599 -1.0281 -0.9905  0.3975
  145OSM   C14F16044   4.460   0.756   4.502  0.5731 -0.6859 -0.3011
  145OSM   H14F16045   4.530   0.797   4.425  1.2852  0.9179  1.1315
  145OSM   H14G16046   4.396   0.843   4.530  0.9534 -0.3455 -0.4761
  145OSM   C15F16047   4.361   0.655   4.438 -0.3896  0.4502  0.5040
  145OSM   H15F16048   4.306   0.709   4.358  2.0751 -1.4504 -2.7237
  145OSM   H15G16049   4.285   0.613   4.508  0.4079  0.2333  1.2616
  145OSM   C16F16050   4.437   0.535   4.382  0.2954 -0.3282  0.3891
  145OSM   H16F16051   4.474   0.464   4.459  1.5861 -0.2459 -0.1346
  145OSM   H16G16052   4.523   0.563   4.317  0.5700 -1.4687  0.2417
  145OSM   C17F16053   4.346   0.456   4.286  0.1910 -0.7730 -0.3201
  145OSM   H17F16054   4.419   0.390   4.234 -0.4790 -1.4803 -0.3570
  145OSM   H17G16055   4.294   0.524   4.215 -2.2273 -2.5242 -0.3039
  145OSM   C18F16056   4.237   0.377   4.349 -0.0416 -0.0542  0.4847
  145OSM   H18F16057   4.182   0.320   4.271 -0.7065 -0.3095  1.1314
  145OSM   H18G16058   4.166   0.441   4.405 -0.1068 -0.6143  1.0619
  145OSM   H18H16059   4.262   0.297   4.423 -1.3345 -0.0465  0.9500
  146OSM      N16060   2.631   0.643   6.642  0.9393 -0.2181  0.4657
  146OSM    C1516061   2.481   0.658   6.662  0.3198  0.1620  0.7577
  146OSM   H15A16062   2.443   0.560   6.638  0.8422 -0.5119  2.5083
  146OSM   H15B16063   2.433   0.743   6.617  1.8050  0.5641 -0.1464
  146OSM   H15C16064   2.459   0.657   6.768 -0.5629 -0.6019  0.5837
  146OSM    C1416065   2.658   0.607   6.500 -0.8614 -0.3006  0.0399
  146OSM   H14A16066   2.589   0.663   6.439  0.4480  1.6575  0.2666
  146OSM   H14B16067   2.637   0.503   6.478  1.3365 -0.5407 -1.2050
  146OSM   H14C16068   2.759   0.623   6.466 -1.1419  0.5264 -0.4370
  146OSM    C1316069   2.695   0.772   6.649 -0.4756 -0.3317  0.0427
  146OSM   H13A16070   2.628   0.854   6.623 -1.3579 -0.0919  2.7168
  146OSM   H13B16071   2.785   0.780   6.590 -0.0522  2.2105  0.9108
  146OSM   H13C16072   2.712   0.809   6.749 -0.3017  0.1025 -0.1436
  146OSM    C1216073   2.699   0.559   6.746  0.2372  0.0293  0.3078
  146OSM   H12A16074   2.680   0.612   6.839 -1.9715 -1.4723  0.7869
  146OSM   H12B16075   2.803   0.563   6.717 -0.2670  0.3082 -1.6157
  146OSM    C1116076   2.662   0.409   6.752  0.2653 -0.1263 -0.2174
  146OSM   H11A16077   2.554   0.399   6.778  0.4028  0.2874  0.5363
  146OSM   H11B16078   2.707   0.361   6.842  0.9697  1.4656  0.3122
  146OSM      P16079   2.839   0.286   6.620  0.1772 -0.1089  0.0868
  146OSM    O1316080   2.932   0.398   6.606 -0.0238 -0.0430 -0.0972
  146OSM    O1416081   2.873   0.196   6.730 -0.8857  0.2258 -0.1401
  146OSM    O1116082   2.840   0.211   6.488  0.3073 -0.8741 -0.3068
  146OSM    O1216083   2.691   0.345   6.625  0.0231  0.4283  0.1757
  146OSM    C1S16084   2.755   0.224   6.373 -0.3403 -0.8466 -0.1251
  146OSM    H1S16085   2.671   0.294   6.393 -0.2825 -0.9788  0.6242
  146OSM    H1T16086   2.724   0.123   6.338  0.5941 -1.9391  1.9591
  146OSM     NF16087   2.751   0.305   6.143 -0.1147 -0.8436 -0.6207
  146OSM    HNF16088   2.725   0.220   6.097 -1.8837 -0.8260  0.2353
  146OSM    C2S16089   2.838   0.293   6.255  0.4953  0.1697  0.7439
  146OSM    H2S16090   2.867   0.398   6.280  0.2210  0.1692  1.0790
  146OSM    C3S16091   2.965   0.212   6.212 -0.2612 -0.4670 -0.6740
  146OSM    H3S16092   2.932   0.113   6.174 -0.0517 -0.3473 -1.1896
  146OSM     O316093   3.058   0.183   6.318  0.3545 -0.3319 -0.1546
  146OSM    HO316094   3.031   0.237   6.393 -1.3091 -2.2720  0.7529
  146OSM    C4S16095   3.034   0.288   6.104  0.7364  0.6600 -0.4173
  146OSM    H4S16096   3.095   0.373   6.139  1.6515  0.0877 -0.5660
  146OSM    C5S16097   3.047   0.240   5.978  0.6816 -0.1164 -0.4373
  146OSM    H5S16098   2.991   0.149   5.952 -2.7477  0.8725  2.5929
  146OSM    C6S16099   3.111   0.312   5.864 -0.3387 -0.0625  0.3719
  146OSM    H6S16100   3.187   0.389   5.886  1.8945 -2.1017  0.2909
  146OSM    H6T16101   3.025   0.372   5.829  0.9393  1.3221 -0.5094
  146OSM    C7S16102   3.184   0.216   5.766 -0.0765  0.5013  0.4454
  146OSM    H7S16103   3.114   0.140   5.726  1.2316 -0.4914 -0.0230
  146OSM    H7T16104   3.257   0.162   5.831  0.2559  1.0180  0.5024
  146OSM    C8S16105   3.274   0.287   5.662 -0.3214  0.5855  0.9058
  146OSM    H8S16106   3.329   0.211   5.603 -1.1850  1.2710 -0.8405
  146OSM    H8T16107   3.342   0.352   5.721  0.6573 -1.1257  1.7383
  146OSM    C9S16108   3.185   0.356   5.555  0.1799  0.6812 -0.0520
  146OSM    H9S16109   3.137   0.444   5.603  0.9981  0.8640  0.4690
  146OSM    H9T16110   3.106   0.286   5.522  2.2134 -1.4255 -0.7666
  146OSM   C10S16111   3.267   0.396   5.430  0.1542  0.2403  0.0137
  146OSM   H10S16112   3.339   0.322   5.388 -0.8759 -1.0327  0.4164
  146OSM   H10T16113   3.316   0.491   5.459 -3.1591  2.4424 -1.0114
  146OSM   C11S16114   3.175   0.424   5.308  0.1908 -0.5808 -0.0586
  146OSM   H11S16115   3.092   0.485   5.348  2.7091  1.3591  2.7032
  146OSM   H11T16116   3.132   0.325   5.283 -0.3630 -0.1523 -0.8370
  146OSM   C12S16117   3.249   0.497   5.190 -0.2941 -0.1905 -0.0475
  146OSM   H12S16118   3.349   0.453   5.171  0.1348 -0.5318  2.5833
  146OSM   H12T16119   3.268   0.603   5.218  0.2289 -0.3727  0.2943
  146OSM   C13S16120   3.163   0.489   5.064  1.0019  0.1902  0.2146
  146OSM   H13S16121   3.066   0.543   5.071  0.6300 -0.5292  0.7021
  146OSM   H13T16122   3.144   0.386   5.030 -2.3630  1.2594 -1.5260
  146OSM   C14S16123   3.237   0.560   4.949  0.5001  0.4858 -0.7574
  146OSM   H14S16124   3.331   0.505   4.927  0.4590 -0.1166  0.4924
  146OSM   H14T16125   3.256   0.663   4.985 -1.0360  0.4401  0.2936
  146OSM   C15S16126   3.151   0.577   4.822 -0.4495  0.6337  0.4984
  146OSM   H15S16127   3.056   0.629   4.849  1.0992  3.1164  1.4536
  146OSM   H15T16128   3.130   0.472   4.794  0.3304  0.4978  0.3962
  146OSM   C16S16129   3.210   0.646   4.696  0.9189 -0.0420 -0.2048
  146OSM   H16S16130   3.131   0.623   4.622 -0.0095  1.1809  0.3666
  146OSM   H16T16131   3.309   0.610   4.660  1.2172  0.5468 -0.0014
  146OSM   C17S16132   3.215   0.801   4.703  0.3225  0.3428 -0.5426
  146OSM   H17S16133   3.306   0.827   4.761 -0.8518 -0.3979  1.8022
  146OSM   H17T16134   3.123   0.837   4.755 -1.3458 -4.0581  0.0501
  146OSM   C18S16135   3.252   0.860   4.567  1.0470  0.4522 -0.1388
  146OSM   H18S16136   3.309   0.787   4.505 -1.1803 -2.8415  1.3732
  146OSM   H18T16137   3.319   0.945   4.592 -0.3937  1.1414  1.5440
  146OSM   H18U16138   3.169   0.904   4.507  0.7784 -0.7283 -0.6651
  146OSM    C1F16139   2.660   0.403   6.140 -0.7911 -0.3990 -0.4832
  146OSM     OF16140   2.661   0.484   6.224  0.0557 -0.4114  0.9005
  146OSM    C2F16141   2.562   0.405   6.027 -0.0189  0.0600  0.5245
  146OSM    H2F16142   2.503   0.311   6.023  0.8175 -0.4574 -1.9483
  146OSM    H2G16143   2.620   0.395   5.932  0.6184 -2.4199  1.1065
  146OSM    C3F16144   2.492   0.540   6.029 -0.0120  0.1671  0.0659
  146OSM    H3F16145   2.573   0.615   6.013  1.5336 -0.9282  2.2436
  146OSM    H3G16146   2.443   0.570   6.124 -2.9105  0.0542 -1.2671
  146OSM    C4F16147   2.391   0.563   5.918  0.6380 -0.0621  0.5711
  146OSM    H4F16148   2.312   0.638   5.938  0.6071 -0.5589  2.6129
  146OSM    H4G16149   2.329   0.474   5.896 -0.9763  1.2681 -0.4209
  146OSM    C5F16150   2.476   0.609   5.795 -0.1593  0.2984  0.3513
  146OSM    H5F16151   2.550   0.535   5.757 -1.2890 -0.2222 -0.8983
  146OSM    H5G16152   2.534   0.700   5.822  0.8002 -0.0995 -0.2854
  146OSM    C6F16153   2.398   0.630   5.669  0.8865  1.0022  0.1926
  146OSM    H6F16154   2.328   0.715   5.688 -1.4167 -0.6117 -0.5794
  146OSM    H6G16155   2.336   0.542   5.641  2.5481  0.3341 -1.6016
  146OSM    C7F16156   2.493   0.669   5.550  0.2485  0.4754  0.7026
  146OSM    H7F16157   2.561   0.583   5.535 -1.7903 -1.2246  0.6684
  146OSM    H7G16158   2.557   0.750   5.590  0.7897  0.1182  0.5638
  146OSM    C8F16159   2.413   0.703   5.416 -1.0567 -0.3720  0.0287
  146OSM    H8F16160   2.478   0.722   5.328 -0.3633 -2.3702  0.0658
  146OSM    H8G16161   2.348   0.792   5.430  0.3320  0.3991  1.9209
  146OSM    C9F16162   2.331   0.595   5.363  0.2020 -0.3398  0.0153
  146OSM    H9F16163   2.224   0.600   5.389 -0.0480 -1.1978 -0.7799
  146OSM   C10F16164   2.375   0.479   5.311 -0.3589  0.1414  0.8924
  146OSM   H10F16165   2.303   0.398   5.287 -0.2160  0.0975  0.6050
  146OSM   C11F16166   2.517   0.454   5.257 -0.5109 -1.0557 -0.4264
  146OSM   H11F16167   2.531   0.346   5.280 -1.4647 -1.2585 -0.7332
  146OSM   H11G16168   2.593   0.502   5.322  1.0836 -1.0437 -2.2506
  146OSM   C12F16169   2.531   0.479   5.106 -0.0495  0.6120  0.0736
  146OSM   H12F16170   2.486   0.402   5.040  1.6675  0.0181 -0.4655
  146OSM   H12G16171   2.635   0.456   5.073 -1.0209 -2.2583 -1.3194
  146OSM   C13F16172   2.490   0.621   5.058 -0.0157  0.0985  0.0601
  146OSM   H13F16173   2.548   0.704   5.105 -2.0776  1.3587  0.5034
  146OSM   H13G16174   2.380   0.634   5.071 -0.1622  1.9576 -2.3147
  146OSM   C14F16175   2.504   0.631   4.906 -0.0017  0.2814 -0.2040
  146OSM   H14F16176   2.439   0.552   4.864 -0.1836 -0.5597  1.5854
  146OSM   H14G16177   2.448   0.725   4.885  0.1045  0.2911 -0.4488
  146OSM   C15F16178   2.652   0.647   4.855  0.1160  0.1736  0.0735
  146OSM   H15F16179   2.704   0.550   4.871  0.3278 -0.1871 -2.3331
  146OSM   H15G16180   2.713   0.718   4.914 -0.1786 -0.4990  1.2158
  146OSM   C16F16181   2.654   0.703   4.712  0.0502  0.0313  0.5014
  146OSM   H16F16182   2.607   0.803   4.705 -0.7385 -0.3402  0.2418
  146OSM   H16G16183   2.613   0.627   4.641  1.6930  0.4180 -0.9225
  146OSM   C17F16184   2.803   0.725   4.660  0.3953 -0.2914 -0.0042
  146OSM   H17F16185   2.837   0.633   4.607 -0.8040 -0.1038 -1.1605
  146OSM   H17G16186   2.864   0.724   4.753  0.2028 -1.4052  0.1277
  146OSM   C18F16187   2.822   0.852   4.580  0.4247  0.6224 -0.1605
  146OSM   H18F16188   2.925   0.864   4.542  1.1765 -1.8542  0.8480
  146OSM   H18G16189   2.795   0.946   4.633  0.8326  0.4341  0.3893
  146OSM   H18H16190   2.757   0.854   4.490  1.5671  1.4815 -0.9822
  147OSM      N16191   3.089   6.555   1.503  0.0054  0.9000 -0.2486
  147OSM    C1516192   2.942   6.566   1.500 -0.1006  0.1388  0.1994
  147OSM   H15A16193   2.910   6.614   1.408 -0.4443 -1.9650 -0.8257
  147OSM   H15B16194   2.906   6.623   1.584  1.6193  2.4065 -0.5059
  147OSM   H15C16195   2.893   6.470   1.501  0.4008 -0.1432 -0.8465
  147OSM    C1416196   3.134   6.469   1.388 -0.5914  0.1288 -0.2857
  147OSM   H14A16197   3.085   6.375   1.407 -0.4308  0.2167  0.6151
  147OSM   H14B16198   3.241   6.457   1.389 -0.6080 -0.0872 -0.8808
  147OSM   H14C16199   3.097   6.504   1.293 -1.0808 -1.1437 -0.5808
  147OSM    C1316200   3.144   6.691   1.484  0.0571  0.0405  0.3292
  147OSM   H13A16201   3.081   6.749   1.418 -1.8753 -0.5582  1.5598
  147OSM   H13B16202   3.243   6.681   1.443  1.0921  2.6536  1.9281
  147OSM   H13C16203   3.151   6.748   1.575  0.9281 -1.5491  1.2978
  147OSM    C1216204   3.136   6.493   1.635  0.0362 -0.3861 -0.1009
  147OSM   H12A16205   3.244   6.500   1.634 -0.0541  2.3615 -1.2203
  147OSM   H12B16206   3.102   6.391   1.637 -1.7122  0.1594 -0.4720
  147OSM    C1116207   3.086   6.555   1.763  0.4900 -0.4721  0.4082
  147OSM   H11A16208   3.123   6.485   1.841 -0.6831 -1.3272  0.2132
  147OSM   H11B16209   2.976   6.558   1.773  0.5580  2.3019  1.3343
  147OSM      P16210   3.275   6.702   1.849  0.3231 -0.2871 -0.3315
  147OSM    O1316211   3.369   6.593   1.815 -0.2107 -0.1445 -0.3018
  147OSM    O1416212   3.312   6.842   1.822  0.1224 -0.1091  0.5278
  147OSM    O1116213   3.238   6.704   2.010 -0.8325 -0.1332 -0.4609
  147OSM    O1216214   3.135   6.689   1.781 -0.0463  0.2154  0.1089
  147OSM    C1S16215   3.282   6.595   2.094  0.1570  0.9208  0.2265
  147OSM    H1S16216   3.365   6.540   2.044 -0.6566  0.5030 -0.7043
  147OSM    H1T16217   3.197   6.523   2.099  2.5366 -2.1036  0.1208
  147OSM     NF16218   3.363   6.519   2.305  0.8664  0.1341 -0.2137
  147OSM    HNF16219   3.301   6.445   2.327  2.0627 -1.6468 -2.4251
  147OSM    C2S16220   3.301   6.634   2.238 -0.2478  0.4676 -0.7203
  147OSM    H2S16221   3.369   6.722   2.243 -0.5560  0.6570  0.2582
  147OSM    C3S16222   3.161   6.666   2.304  0.1791  0.9657 -0.6559
  147OSM    H3S16223   3.097   6.576   2.299  0.8630  0.4921 -0.9606
  147OSM     O316224   3.086   6.754   2.219  1.2573  0.5142  0.1252
  147OSM    HO316225   3.141   6.771   2.142  3.4170  0.6556  1.6261
  147OSM    C4S16226   3.160   6.709   2.447 -0.1503  0.1791  0.0750
  147OSM    H4S16227   3.184   6.619   2.506 -0.8735 -1.4612 -1.9843
  147OSM    C5S16228   3.124   6.826   2.502  0.9745  0.1114  0.2022
  147OSM    H5S16229   3.073   6.896   2.435  0.4518 -0.3647  0.0885
  147OSM    C6S16230   3.110   6.866   2.646 -0.1921  0.3539 -0.6376
  147OSM    H6S16231   3.005   6.879   2.680  0.0530 -0.0453  0.3179
  147OSM    H6T16232   3.158   6.965   2.661 -0.5586  0.9350 -2.9468
  147OSM    C7S16233   3.160   6.750   2.736 -0.9738  0.3193  0.4564
  147OSM    H7S16234   3.268   6.727   2.719 -0.6740  0.6923  1.7412
  147OSM    H7T16235   3.108   6.658   2.702 -1.0048  0.6425 -0.3943
  147OSM    C8S16236   3.129   6.770   2.884 -0.0748  0.3071 -0.0954
  147OSM    H8S16237   3.170   6.867   2.920 -1.5025  1.3207 -1.1151
  147OSM    H8T16238   3.185   6.690   2.936 -1.6950 -1.8519 -1.5234
  147OSM    C9S16239   2.982   6.758   2.934  0.6543 -0.4498  0.2345
  147OSM    H9S16240   2.944   6.657   2.906 -1.4946  0.4637 -0.3226
  147OSM    H9T16241   2.914   6.832   2.887 -0.3841 -0.8405  1.0921
  147OSM   C10S16242   2.968   6.774   3.088  0.2481  0.6016  0.2661
  147OSM   H10S16243   2.974   6.884   3.106  0.5716  0.8809 -1.3852
  147OSM   H10T16244   3.044   6.708   3.135 -0.5587 -0.8480 -0.3992
  147OSM   C11S16245   2.841   6.723   3.149  1.0232 -0.3788 -0.4389
  147OSM   H11S16246   2.839   6.614   3.124 -0.1451 -0.7026  0.9648
  147OSM   H11T16247   2.750   6.777   3.114  0.5662 -1.4063 -0.9040
  147OSM   C12S16248   2.830   6.735   3.300  0.2863 -0.3293  1.1253
  147OSM   H12S16249   2.923   6.680   3.326  1.2750  0.6866 -0.1365
  147OSM   H12T16250   2.735   6.692   3.338 -2.1915  0.9393 -3.0076
  147OSM   C13S16251   2.852   6.879   3.358 -0.4010  0.5253 -0.2707
  147OSM   H13S16252   2.747   6.914   3.349 -0.0369  1.7621  0.0888
  147OSM   H13T16253   2.929   6.941   3.308 -0.2118  1.4150  1.0717
  147OSM   C14S16254   2.878   6.882   3.509 -0.5166 -0.6622  0.7033
  147OSM   H14S16255   2.794   6.832   3.562  0.9526 -2.3783  1.5039
  147OSM   H14T16256   2.877   6.987   3.545  4.3537  0.4383 -1.6028
  147OSM   C15S16257   3.016   6.828   3.548 -0.5920  0.1482  0.5142
  147OSM   H15S16258   3.092   6.894   3.502 -1.7918 -0.1202 -2.0439
  147OSM   H15T16259   3.023   6.724   3.510 -1.6006  0.2100  0.1277
  147OSM   C16S16260   3.033   6.815   3.696 -0.5444 -0.2862 -0.6027
  147OSM   H16S16261   2.943   6.792   3.756  1.4919  1.2960  3.4889
  147OSM   H16T16262   3.082   6.911   3.725  0.7568 -0.7022 -1.3197
  147OSM   C17S16263   3.140   6.701   3.731 -0.6863 -0.0167 -0.3955
  147OSM   H17S16264   3.227   6.718   3.663 -0.9136  2.3102 -0.2150
  147OSM   H17T16265   3.102   6.602   3.699  3.0857 -1.6824 -0.2698
  147OSM   C18S16266   3.192   6.716   3.876 -0.3402 -0.2190 -0.4560
  147OSM   H18S16267   3.239   6.817   3.885  0.3348 -0.5553 -0.1098
  147OSM   H18T16268   3.274   6.641   3.886  1.4737  1.3229 -2.6943
  147OSM   H18U16269   3.103   6.702   3.940  0.5488  1.1805  1.1831
  147OSM    C1F16270   3.496   6.496   2.306  0.6581 -0.3367  0.1821
  147OSM     OF16271   3.576   6.585   2.272 -0.2840 -0.0599  0.2306
  147OSM    C2F16272   3.536   6.352   2.332  0.3195  0.6045  0.1115
  147OSM    H2F16273   3.526   6.299   2.235  1.1237  0.4078  0.1315
  147OSM    H2G16274   3.462   6.308   2.402  0.3847  2.3415  1.3271
  147OSM    C3F16275   3.674   6.345   2.394  0.6593  0.5226 -1.0459
  147OSM    H3F16276   3.753   6.407   2.345  0.3038  2.2370  0.4432
  147OSM    H3G16277   3.705   6.238   2.389  3.0591  0.9569  1.8533
  147OSM    C4F16278   3.684   6.370   2.549 -0.9034 -0.0180  0.5169
  147OSM    H4F16279   3.679   6.477   2.579  3.1940 -0.2560  2.7280
  147OSM    H4G16280   3.788   6.335   2.559 -1.5860 -2.3062  0.1426
  147OSM    C5F16281   3.598   6.271   2.634  0.3119 -0.1720  0.3774
  147OSM    H5F16282   3.597   6.166   2.598  1.5270 -0.1129  0.1522
  147OSM    H5G16283   3.492   6.293   2.607  1.4345  3.7968 -1.6088
  147OSM    C6F16284   3.619   6.272   2.783  0.1534  0.3845 -0.3414
  147OSM    H6F16285   3.614   6.379   2.815 -2.0672  0.3319 -0.3669
  147OSM    H6G16286   3.723   6.248   2.813 -0.2531  1.2834  2.0127
  147OSM    C7F16287   3.512   6.202   2.858  0.4912  0.1230 -0.1349
  147OSM    H7F16288   3.507   6.103   2.807  0.7491  1.0860 -2.1236
  147OSM    H7G16289   3.407   6.239   2.848  0.0522 -0.9363  0.4350
  147OSM    C8F16290   3.536   6.180   3.013 -0.4570 -0.3081  0.2346
  147OSM    H8F16291   3.623   6.111   3.025 -1.3205 -1.5873 -0.5707
  147OSM    H8G16292   3.447   6.124   3.047 -1.2041  1.6424  1.6463
  147OSM    C9F16293   3.565   6.298   3.100  1.5907  0.3031  0.2764
  147OSM    H9F16294   3.591   6.386   3.039  0.6990 -0.2014 -0.8691
  147OSM   C10F16295   3.552   6.307   3.230 -0.6031  0.5223  0.0733
  147OSM   H10F16296   3.563   6.400   3.288  1.7323 -1.4714  3.2388
  147OSM   C11F16297   3.514   6.202   3.333 -0.5347 -0.2531  0.0991
  147OSM   H11F16298   3.517   6.107   3.277 -0.7821  0.9701 -2.0857
  147OSM   H11G16299   3.408   6.219   3.362 -0.0883  1.0371  1.0749
  147OSM   C12F16300   3.611   6.207   3.455 -0.4483 -0.6980 -0.0055
  147OSM   H12F16301   3.626   6.309   3.498  1.0192 -1.6246  1.8065
  147OSM   H12G16302   3.710   6.180   3.413  0.2331  1.9868 -0.3199
  147OSM   C13F16303   3.571   6.110   3.566 -0.0250 -0.5741 -0.3255
  147OSM   H13F16304   3.543   6.009   3.530 -0.1565 -0.3696 -0.8000
  147OSM   H13G16305   3.491   6.149   3.633  2.5829  0.7438  2.2672
  147OSM   C14F16306   3.686   6.095   3.667 -0.4685 -0.1981  0.6223
  147OSM   H14F16307   3.718   6.194   3.705  0.6300 -1.5185  3.5138
  147OSM   H14G16308   3.773   6.058   3.609  0.1342  1.9445  0.0936
  147OSM   C15F16309   3.647   6.017   3.788 -0.3126  0.3723 -0.1088
  147OSM   H15F16310   3.583   5.931   3.756  0.1749  0.3582 -1.0498
  147OSM   H15G16311   3.574   6.083   3.840 -0.5654 -0.0239  0.0518
  147OSM   C16F16312   3.749   5.964   3.892  0.0020 -0.0183  0.0362
  147OSM   H16F16313   3.798   5.877   3.842  1.3060 -0.5853  2.1783
  147OSM   H16G16314   3.687   5.926   3.976 -0.8842  2.4603  0.5879
  147OSM   C17F16315   3.853   6.053   3.954  0.5029 -0.8443 -0.4508
  147OSM   H17F16316   3.914   6.090   3.869 -2.7289  2.7782 -1.4771
  147OSM   H17G16317   3.911   5.985   4.020  0.9324  0.3791  0.4588
  147OSM   C18F16318   3.785   6.168   4.031 -0.4532 -0.5526 -1.3278
  147OSM   H18F16319   3.728   6.120   4.113 -0.1833 -1.7075 -1.7897
  147OSM   H18G16320   3.715   6.230   3.971 -0.9186  0.6763  0.4201
  147OSM   H18H16321   3.864   6.227   4.082  0.4168 -1.3936 -1.6679
  148OSM      N16322   2.992   0.887   1.932  0.3520 -0.2891 -0.1197
  148OSM    C1516323   3.129   0.835   1.949  0.4250 -0.0639 -0.5276
  148OSM   H15A16324   3.153   0.841   2.054 -1.0392 -1.7903 -0.0383
  148OSM   H15B16325   3.196   0.891   1.886  2.0877 -1.0349  0.3120
  148OSM   H15C16326   3.141   0.729   1.933  1.7870  0.0904 -0.6532
  148OSM    C1416327   2.956   0.884   1.789 -0.1881  0.3005  0.4252
  148OSM   H14A16328   2.970   0.787   1.744 -3.6025  0.3007 -0.9510
  148OSM   H14B16329   2.989   0.957   1.716 -0.7338 -0.9361 -1.1179
  148OSM   H14C16330   2.850   0.904   1.778  0.0355  2.1567  1.2574
  148OSM    C1316331   2.904   0.793   1.999 -0.1372  0.4551 -0.0216
  148OSM   H13A16332   2.930   0.778   2.102  0.2626  1.9471  0.1233
  148OSM   H13B16333   2.910   0.694   1.955 -1.0399 -0.4406  1.7918
  148OSM   H13C16334   2.806   0.838   1.995 -1.0484 -1.4299  0.1986
  148OSM    C1216335   2.983   1.024   1.993  0.4431 -0.1033 -0.5677
  148OSM   H12A16336   3.075   1.078   1.976  0.2073  1.0090  1.3189
  148OSM   H12B16337   2.967   1.016   2.099 -1.4933 -0.1477 -0.8269
  148OSM    C1116338   2.861   1.108   1.940 -0.9535  0.4516  0.5328
  148OSM   H11A16339   2.874   1.122   1.830 -1.7215 -0.4835  0.3083
  148OSM   H11B16340   2.869   1.206   1.992 -1.4531  1.8591 -1.8408
  148OSM      P16341   2.611   1.121   1.966  0.2735  0.0140  0.3219
  148OSM    O1316342   2.618   1.251   1.893  0.4318  0.5029  0.4431
  148OSM    O1416343   2.501   1.024   1.938  0.1294 -0.3552 -0.2000
  148OSM    O1116344   2.603   1.153   2.121 -0.0905  1.6682 -0.1872
  148OSM    O1216345   2.739   1.046   1.957 -0.8769 -0.9231 -0.0732
  148OSM    C1S16346   2.659   1.061   2.213 -0.5267  0.4035 -0.5779
  148OSM    H1S16347   2.766   1.043   2.190 -0.4139 -0.0515  0.2599
  148OSM    H1T16348   2.603   0.966   2.229 -0.8315  0.1426 -2.8565
  148OSM     NF16349   2.732   1.048   2.449  0.8147  0.0814 -1.0337
  148OSM    HNF16350   2.685   1.009   2.528  0.3687  1.9662 -0.3237
  148OSM    C2S16351   2.658   1.133   2.354  0.0945 -0.0172 -0.1319
  148OSM    H2S16352   2.715   1.228   2.342  0.6179 -0.0421  1.8602
  148OSM    C3S16353   2.513   1.172   2.398 -0.2231  0.4103 -0.3125
  148OSM    H3S16354   2.447   1.083   2.390  0.9921 -0.7464  1.6925
  148OSM     O316355   2.449   1.273   2.314 -0.4089 -0.2200 -0.1565
  148OSM    HO316356   2.511   1.278   2.241 -2.2573  2.2957 -1.7136
  148OSM    C4S16357   2.502   1.210   2.548 -0.2495  0.1149  0.1980
  148OSM    H4S16358   2.462   1.125   2.605 -2.8691  0.1804 -1.3474
  148OSM    C5S16359   2.532   1.327   2.606 -0.9623  0.3304  0.3425
  148OSM    H5S16360   2.569   1.402   2.534  0.1467 -0.4033  0.1248
  148OSM    C6S16361   2.511   1.371   2.748  0.6296 -0.6024 -0.0519
  148OSM    H6S16362   2.416   1.428   2.752 -0.2114 -1.9892  0.2144
  148OSM    H6T16363   2.588   1.434   2.798  1.9622 -1.4012 -1.0352
  148OSM    C7S16364   2.487   1.251   2.841  0.5616  0.6939  0.4928
  148OSM    H7S16365   2.571   1.178   2.835  0.7844  1.0059 -0.3473
  148OSM    H7T16366   2.392   1.200   2.815  0.9172 -0.1300  0.7597
  148OSM    C8S16367   2.467   1.289   2.990 -0.3567 -0.0811 -0.2158
  148OSM    H8S16368   2.369   1.342   2.991 -1.0708 -1.3050 -1.6949
  148OSM    H8T16369   2.557   1.349   3.012 -0.2122  0.6095 -2.4610
  148OSM    C9S16370   2.452   1.169   3.081  0.1393  0.7836 -0.1224
  148OSM    H9S16371   2.523   1.089   3.053 -3.8620 -3.4420  0.6729
  148OSM    H9T16372   2.362   1.108   3.058  0.1735  0.8378 -0.4067
  148OSM   C10S16373   2.456   1.190   3.233  0.2416 -0.6063  0.1165
  148OSM   H10S16374   2.367   1.252   3.259 -1.4687 -2.8163 -0.1939
  148OSM   H10T16375   2.551   1.240   3.262  0.1863 -0.1636 -0.4381
  148OSM   C11S16376   2.452   1.053   3.309  0.2516  0.7526 -0.0315
  148OSM   H11S16377   2.551   1.002   3.299 -0.5020 -1.0331  1.1699
  148OSM   H11T16378   2.361   0.996   3.280  0.9203 -1.1394  1.3705
  148OSM   C12S16379   2.435   1.076   3.454  0.3362  0.0797  0.7360
  148OSM   H12S16380   2.339   1.128   3.475 -0.9085 -2.1792  0.8775
  148OSM   H12T16381   2.519   1.134   3.498  2.1331 -1.6858 -0.1823
  148OSM   C13S16382   2.419   0.939   3.527 -0.8590  0.0474  0.5978
  148OSM   H13S16383   2.523   0.900   3.534  0.6583  2.9461 -2.4291
  148OSM   H13T16384   2.360   0.858   3.480  1.4850 -1.3944 -0.0420
  148OSM   C14S16385   2.349   0.937   3.669 -0.0377 -0.5792  0.0240
  148OSM   H14S16386   2.381   0.839   3.711  2.1547 -0.8095 -1.9423
  148OSM   H14T16387   2.239   0.930   3.655  0.0155 -2.1906  0.2302
  148OSM   C15S16388   2.388   1.050   3.764 -0.7010 -0.1954  0.7510
  148OSM   H15S16389   2.339   1.037   3.863  1.2693  3.0157  2.2847
  148OSM   H15T16390   2.355   1.149   3.726  0.5586  0.8738  2.3190
  148OSM   C16S16391   2.541   1.063   3.782 -0.1824  0.4989 -0.1100
  148OSM   H16S16392   2.574   1.111   3.688  0.2215 -2.0095 -1.3277
  148OSM   H16T16393   2.590   0.964   3.796  1.2394  1.2024  0.0123
  148OSM   C17S16394   2.570   1.157   3.900 -0.3878 -0.3049 -0.2313
  148OSM   H17S16395   2.531   1.260   3.888  1.0098  0.4584  1.3500
  148OSM   H17T16396   2.681   1.158   3.904 -0.2979 -3.7844  1.2174
  148OSM   C18S16397   2.528   1.097   4.044  0.0678 -0.0962  0.0955
  148OSM   H18S16398   2.421   1.067   4.037 -0.8180  2.3501  1.6850
  148OSM   H18T16399   2.525   1.174   4.124 -2.4829  1.3857 -1.3065
  148OSM   H18U16400   2.584   1.004   4.069  0.3776 -0.5406 -2.0597
  148OSM    C1F16401   2.864   1.006   2.450 -0.0558  0.2704  0.0270
  148OSM     OF16402   2.942   1.040   2.359  0.3220 -0.3902 -0.2665
  148OSM    C2F16403   2.904   0.923   2.565 -0.5023  0.9257 -0.0316
  148OSM    H2F16404   2.849   0.827   2.570  2.2380 -0.7620 -0.5221
  148OSM    H2G16405   2.873   0.970   2.661 -3.2008 -1.7407  0.5635
  148OSM    C3F16406   3.058   0.903   2.567 -0.8708  0.5527 -0.2879
  148OSM    H3F16407   3.115   0.998   2.575  1.0323 -0.5176 -0.5698
  148OSM    H3G16408   3.083   0.839   2.480 -2.3189 -2.5439  1.4137
  148OSM    C4F16409   3.102   0.817   2.693 -0.0513 -0.1659  0.6300
  148OSM    H4F16410   3.212   0.809   2.700 -0.0461 -0.8674 -0.1806
  148OSM    H4G16411   3.065   0.714   2.674 -0.2212  0.1432 -0.8046
  148OSM    C5F16412   3.052   0.870   2.829  0.2118  0.3205  0.7995
  148OSM    H5F16413   2.941   0.868   2.817  0.3128  2.0534 -0.8495
  148OSM    H5G16414   3.094   0.970   2.853  0.5153 -0.2554  2.8318
  148OSM    C6F16415   3.091   0.776   2.940  0.0936  0.1864  0.2479
  148OSM    H6F16416   3.201   0.762   2.949 -0.1175 -1.4864  0.6821
  148OSM    H6G16417   3.056   0.675   2.909  0.9156  0.1573 -0.6248
  148OSM    C7F16418   3.036   0.822   3.073  0.1841  0.5518  0.2897
  148OSM    H7F16419   2.926   0.820   3.057  0.1646 -1.0186  0.4487
  148OSM    H7G16420   3.056   0.931   3.083 -1.8696  1.2999 -2.4706
  148OSM    C8F16421   3.070   0.741   3.201 -0.5615 -0.3946 -0.3124
  148OSM    H8F16422   3.054   0.798   3.295 -1.8755 -0.4982 -0.4568
  148OSM    H8G16423   3.180   0.729   3.199 -0.8405 -4.1785  0.1354
  148OSM    C9F16424   2.996   0.611   3.220  0.4830 -0.5362 -0.7198
  148OSM    H9F16425   2.890   0.623   3.194 -0.5932  2.0823  3.7358
  148OSM   C10F16426   3.043   0.498   3.263 -0.7017  0.4547  0.2542
  148OSM   H10F16427   2.977   0.410   3.269 -0.3198  0.2000  0.7816
  148OSM   C11F16428   3.192   0.468   3.302  0.1723 -0.6231  0.4047
  148OSM   H11F16429   3.265   0.538   3.257 -0.2344 -0.2209  0.3670
  148OSM   H11G16430   3.212   0.366   3.262 -0.7882 -1.4616  1.9487
  148OSM   C12F16431   3.215   0.495   3.449  0.3067 -0.0161 -0.3480
  148OSM   H12F16432   3.199   0.602   3.476  1.5106 -0.2772  1.6385
  148OSM   H12G16433   3.323   0.479   3.469 -0.2052 -0.7423  2.2496
  148OSM   C13F16434   3.143   0.410   3.551  0.6489  0.5364  0.2426
  148OSM   H13F16435   3.146   0.300   3.536 -1.2211  0.0917  2.4710
  148OSM   H13G16436   3.036   0.438   3.544  0.0651 -1.5356  0.1300
  148OSM   C14F16437   3.188   0.429   3.696  0.1505 -0.2816  0.1516
  148OSM   H14F16438   3.162   0.533   3.727 -3.4623 -0.3180 -2.2434
  148OSM   H14G16439   3.296   0.406   3.710 -0.1388 -3.8227 -2.1988
  148OSM   C15F16440   3.116   0.326   3.786 -0.2982 -0.0865 -0.5553
  148OSM   H15F16441   3.126   0.221   3.750 -1.1550 -1.5730  3.0577
  148OSM   H15G16442   3.011   0.361   3.781  0.3032  2.2080  1.2204
  148OSM   C16F16443   3.152   0.357   3.932  0.7765  0.3689 -0.0475
  148OSM   H16F16444   3.145   0.468   3.941  0.7666  0.4610 -1.0613
  148OSM   H16G16445   3.259   0.334   3.949  0.7875  1.0471  0.8908
  148OSM   C17F16446   3.069   0.295   4.045  0.7741  0.2078  0.2921
  148OSM   H17F16447   3.095   0.188   4.055 -0.8010 -0.3115 -0.7242
  148OSM   H17G16448   2.959   0.294   4.025  0.3158 -2.9178  2.3604
  148OSM   C18F16449   3.082   0.371   4.183  0.4780  0.5247  0.5265
  148OSM   H18F16450   2.996   0.331   4.241 -1.0024  2.6776 -0.0552
  148OSM   H18G16451   3.078   0.480   4.162  1.5043  0.5593  0.4360
  148OSM   H18H16452   3.177   0.334   4.228  1.2788 -1.8093 -2.7135
  149OSM      N16453   3.699   5.139   1.898  0.3641 -0.8531 -0.0545
  149OSM    C1516454   3.565   5.181   1.863 -0.5283 -0.1122 -0.3594
  149OSM   H15A16455   3.513   5.088   1.845  0.9179 -0.8494 -0.9123
  149OSM   H15B16456   3.573   5.255   1.785  0.6101  0.4328  0.2603
  149OSM   H15C16457   3.519   5.223   1.951  0.8533 -0.4716  0.5752
  149OSM    C1416458   3.694   5.030   2.004 -0.2278 -0.7233 -0.0513
  149OSM   H14A16459   3.648   5.078   2.089 -0.2593  0.8425 -0.9081
  149OSM   H14B16460   3.788   4.992   2.041  0.7814  0.6126 -1.1609
  149OSM   H14C16461   3.624   4.956   1.966  0.2740 -0.9722 -0.5036
  149OSM    C1316462   3.757   5.072   1.775 -0.4973 -0.2315  0.4105
  149OSM   H13A16463   3.701   4.990   1.732  0.9850 -0.3416 -1.4607
  149OSM   H13B16464   3.852   5.024   1.795  0.5210  2.1765  1.7434
  149OSM   H13C16465   3.775   5.142   1.694  0.0398 -0.0628  0.6717
  149OSM    C1216466   3.787   5.260   1.947  0.9528  0.8665  0.1350
  149OSM   H12A16467   3.885   5.231   1.981  0.8537  0.7155  0.2939
  149OSM   H12B16468   3.732   5.304   2.030  0.7514  1.3240 -0.2390
  149OSM    C1116469   3.803   5.380   1.850  0.3179 -0.0800  0.8320
  149OSM   H11A16470   3.849   5.365   1.749 -0.2157  1.6599  0.2922
  149OSM   H11B16471   3.870   5.457   1.893  0.1620  0.6277 -0.1468
  149OSM      P16472   3.618   5.553   1.918 -0.2228 -0.5482 -0.0162
  149OSM    O1316473   3.693   5.678   1.878 -0.6759  0.4612 -0.0270
  149OSM    O1416474   3.472   5.556   1.908 -0.4857  0.2537  0.1839
  149OSM    O1116475   3.644   5.501   2.060 -0.0778  0.1014 -0.1792
  149OSM    O1216476   3.680   5.443   1.825  0.3774 -0.4886  0.3451
  149OSM    C1S16477   3.727   5.581   2.144  0.0396 -0.0614 -0.3239
  149OSM    H1S16478   3.702   5.689   2.143 -0.5541 -0.1972 -0.2371
  149OSM    H1T16479   3.832   5.566   2.110 -0.3909 -0.1453 -1.6869
  149OSM     NF16480   3.800   5.623   2.375 -0.5249 -0.2176 -0.1267
  149OSM    HNF16481   3.877   5.579   2.420 -0.2330  0.3094 -0.0984
  149OSM    C2S16482   3.709   5.544   2.293  0.2582 -0.4826  0.3048
  149OSM    H2S16483   3.613   5.586   2.332 -0.6406 -1.3070 -0.9702
  149OSM    C3S16484   3.719   5.388   2.331  0.0409 -0.0828 -0.3769
  149OSM    H3S16485   3.818   5.350   2.299 -0.0194 -1.5320  1.0224
  149OSM     O316486   3.640   5.304   2.246 -0.1606 -0.3845 -0.3215
  149OSM    HO316487   3.618   5.360   2.171 -0.6689 -0.9415 -0.5964
  149OSM    C4S16488   3.714   5.370   2.479 -0.2736 -0.3178 -1.0264
  149OSM    H4S16489   3.812   5.387   2.525 -0.2140 -0.3100 -1.1586
  149OSM    C5S16490   3.609   5.347   2.564  0.3485  0.3969 -0.3173
  149OSM    H5S16491   3.507   5.343   2.523  0.3036  1.9882 -0.4032
  149OSM    C6S16492   3.614   5.330   2.716  0.0698  0.2697 -0.1185
  149OSM    H6S16493   3.589   5.225   2.742 -1.6254  0.6307 -0.1538
  149OSM    H6T16494   3.537   5.391   2.768  0.4780  0.8744 -0.2157
  149OSM    C7S16495   3.740   5.375   2.795  0.3415 -0.4624 -0.2654
  149OSM    H7S16496   3.769   5.477   2.760 -1.4152  1.8352  4.1748
  149OSM    H7T16497   3.818   5.303   2.763  0.6224 -0.7991  1.1268
  149OSM    C8S16498   3.747   5.357   2.953  0.2172 -0.0326 -0.4743
  149OSM    H8S16499   3.711   5.253   2.964  0.1842 -0.0179 -0.4398
  149OSM    H8T16500   3.681   5.427   3.008 -0.7074 -2.6117  1.9407
  149OSM    C9S16501   3.889   5.374   3.005  0.3727 -0.0858  1.2242
  149OSM    H9S16502   3.927   5.466   2.957 -3.8364 -0.1937 -3.0766
  149OSM    H9T16503   3.950   5.297   2.954 -0.5538  1.3640 -2.3989
  149OSM   C10S16504   3.898   5.369   3.158  0.3364 -0.0651 -0.3011
  149OSM   H10S16505   3.861   5.270   3.193 -0.1593  0.3248  0.2746
  149OSM   H10T16506   3.848   5.457   3.203  0.6241 -0.2605  0.4220
  149OSM   C11S16507   4.051   5.365   3.198  0.2673 -0.0365 -0.1388
  149OSM   H11S16508   4.090   5.452   3.141 -2.7759  1.1786 -0.5362
  149OSM   H11T16509   4.099   5.272   3.158  0.4216 -0.0565  0.0921
  149OSM   C12S16510   4.061   5.378   3.354 -0.1354 -0.3359 -0.4092
  149OSM   H12S16511   4.023   5.481   3.373  0.9452 -0.0870  0.5006
  149OSM   H12T16512   4.169   5.375   3.382 -0.2598 -1.7078 -0.0102
  149OSM   C13S16513   3.989   5.266   3.428 -0.8970  0.0749 -0.0775
  149OSM   H13S16514   4.010   5.167   3.383 -0.9094 -0.1139  0.3216
  149OSM   H13T16515   3.878   5.266   3.414 -0.9031  1.6329 -0.2884
  149OSM   C14S16516   4.037   5.263   3.574  1.0313  0.1893  0.2817
  149OSM   H14S16517   3.991   5.349   3.628  0.1951 -0.5006  0.6881
  149OSM   H14T16518   4.145   5.287   3.571  0.6022  2.1855 -1.9426
  149OSM   C15S16519   3.987   5.139   3.648 -0.6851  1.0463 -0.8274
  149OSM   H15S16520   4.061   5.108   3.725 -0.0158  0.8509 -1.5361
  149OSM   H15T16521   3.972   5.053   3.579 -1.1973 -0.8404  1.4770
  149OSM   C16S16522   3.847   5.145   3.714 -0.2591  0.2406  0.6958
  149OSM   H16S16523   3.777   5.175   3.632  0.9897  1.8168  0.1452
  149OSM   H16T16524   3.847   5.225   3.791  0.9113  0.0395  0.9124
  149OSM   C17S16525   3.808   5.015   3.783  0.8173  0.4540 -0.0294
  149OSM   H17S16526   3.823   4.929   3.714 -1.2520 -0.7248  0.8910
  149OSM   H17T16527   3.702   5.009   3.815  0.7327 -1.8272 -0.5675
  149OSM   C18S16528   3.893   4.995   3.907 -0.2110 -0.4581 -0.1825
  149OSM   H18S16529   3.856   4.902   3.957 -0.6922 -0.4464 -0.5076
  149OSM   H18T16530   3.878   5.081   3.976  2.0828 -0.5166  0.4516
  149OSM   H18U16531   3.998   4.969   3.884 -0.5078 -0.2568 -1.9024
  149OSM    C1F16532   3.791   5.759   2.387 -0.1960  0.0080  0.2790
  149OSM     OF16533   3.687   5.814   2.353 -0.0097 -0.2809 -0.3567
  149OSM    C2F16534   3.906   5.828   2.450 -0.3802 -0.2487 -0.1562
  149OSM    H2F16535   3.957   5.870   2.360 -2.2712 -0.4008 -1.3754
  149OSM    H2G16536   3.976   5.764   2.507  1.4507  2.2678  0.5499
  149OSM    C3F16537   3.862   5.956   2.532 -0.0054 -0.7831  0.5895
  149OSM    H3F16538   3.807   6.025   2.464 -1.0316 -0.6062  1.5629
  149OSM    H3G16539   3.948   6.006   2.580 -0.9286  0.0185  1.4666
  149OSM    C4F16540   3.770   5.927   2.654 -0.7574  0.1050 -0.0255
  149OSM    H4F16541   3.666   5.902   2.623 -0.2252 -0.5808 -1.3986
  149OSM    H4G16542   3.770   6.029   2.696  1.0496 -0.7558  2.2743
  149OSM    C5F16543   3.833   5.832   2.755  0.3194 -0.4220 -0.4985
  149OSM    H5F16544   3.939   5.860   2.768 -0.1065  2.6650 -2.5746
  149OSM    H5G16545   3.827   5.727   2.721  0.5907 -0.8276  0.6755
  149OSM    C6F16546   3.746   5.846   2.890 -0.0692  0.9068 -0.1736
  149OSM    H6F16547   3.638   5.827   2.873 -0.1109 -2.0381  2.4414
  149OSM    H6G16548   3.760   5.948   2.932  0.1291 -0.1570  2.4994
  149OSM    C7F16549   3.787   5.743   3.004 -0.7217 -0.5953 -0.4779
  149OSM    H7F16550   3.894   5.763   3.028 -0.6480 -0.2945 -1.0366
  149OSM    H7G16551   3.773   5.640   2.965 -3.0053 -0.8695  0.8957
  149OSM    C8F16552   3.694   5.741   3.121  0.0178 -0.5119  0.3210
  149OSM    H8F16553   3.718   5.647   3.175  5.7299  0.5431  0.3271
  149OSM    H8G16554   3.592   5.737   3.080  0.7094 -0.7744 -1.4473
  149OSM    C9F16555   3.703   5.856   3.217 -0.5230 -0.1067  0.3175
  149OSM    H9F16556   3.675   5.954   3.174 -0.9001 -0.9112 -1.3773
  149OSM   C10F16557   3.735   5.845   3.345 -0.2051  0.1396  0.0569
  149OSM   H10F16558   3.741   5.946   3.388 -2.0807  1.1280 -1.8299
  149OSM   C11F16559   3.779   5.723   3.431 -0.3116  0.2612 -0.2972
  149OSM   H11F16560   3.890   5.713   3.426 -0.3816 -0.1913 -1.0309
  149OSM   H11G16561   3.736   5.628   3.394 -1.3318  0.3910  0.5045
  149OSM   C12F16562   3.732   5.736   3.577 -0.3542  0.1738  0.5837
  149OSM   H12F16563   3.623   5.758   3.578 -0.5293 -0.3642  3.3859
  149OSM   H12G16564   3.781   5.823   3.626 -0.9797  0.4008  0.8148
  149OSM   C13F16565   3.763   5.613   3.667  0.6490 -0.2531  1.0610
  149OSM   H13F16566   3.874   5.599   3.668  0.8468  0.6702 -1.3890
  149OSM   H13G16567   3.719   5.524   3.618 -0.4376  0.1957  1.1973
  149OSM   C14F16568   3.705   5.611   3.813  0.3795  1.1614  0.4505
  149OSM   H14F16569   3.597   5.632   3.800  0.5678  1.7212 -0.3076
  149OSM   H14G16570   3.762   5.672   3.886  0.2311  0.1353  1.4446
  149OSM   C15F16571   3.709   5.471   3.875 -0.1120  0.2646  0.1808
  149OSM   H15F16572   3.802   5.472   3.936 -0.0569  0.9255  0.0927
  149OSM   H15G16573   3.718   5.398   3.792  1.7302 -1.1069  1.4874
  149OSM   C16F16574   3.581   5.432   3.958  0.2888 -0.2294 -0.7566
  149OSM   H16F16575   3.492   5.439   3.891  1.0801 -1.9056 -2.0470
  149OSM   H16G16576   3.547   5.495   4.043 -0.6531 -2.6401  0.7258
  149OSM   C17F16577   3.604   5.288   4.000 -0.3232  0.2542  0.3792
  149OSM   H17F16578   3.713   5.271   4.012 -0.3692 -0.6598 -0.3779
  149OSM   H17G16579   3.569   5.221   3.919  0.6359 -2.2852  1.9415
  149OSM   C18F16580   3.534   5.237   4.129  0.1544 -0.2737  0.6050
  149OSM   H18F16581   3.436   5.290   4.132  0.4236  0.2938 -0.1023
  149OSM   H18G16582   3.592   5.253   4.222  1.4135 -0.4976 -0.1139
  149OSM   H18H16583   3.492   5.134   4.124 -2.1296  0.6400 -2.5746
  150OSM      N16584   1.066   0.894   2.461  0.2140 -0.1313 -0.0914
  150OSM    C1516585   1.136   0.766   2.431  0.5434 -0.2669  0.1015
  150OSM   H15A16586   1.117   0.695   2.511 -1.8283 -0.1715 -0.3091
  150OSM   H15B16587   1.243   0.785   2.433  0.1740  1.9671  1.1388
  150OSM   H15C16588   1.100   0.722   2.340 -2.6507 -0.3354  1.2792
  150OSM    C1416589   1.096   0.939   2.600 -0.3836  0.0306  0.1604
  150OSM   H14A16590   1.057   1.037   2.626  2.9003  1.2438  0.9300
  150OSM   H14B16591   1.202   0.945   2.616 -0.5569  1.0384  1.0507
  150OSM   H14C16592   1.061   0.870   2.675 -2.3131  2.0539  1.2645
  150OSM    C1316593   1.112   1.003   2.368 -0.3245 -0.0605  0.6857
  150OSM   H13A16594   1.116   0.968   2.266 -1.7958  0.2827  0.4895
  150OSM   H13B16595   1.210   1.047   2.383 -1.4820  4.4403 -2.6293
  150OSM   H13C16596   1.044   1.087   2.366  1.5840  1.5770 -1.9045
  150OSM    C1216597   0.913   0.870   2.438  0.3318 -0.3498 -0.3648
  150OSM   H12A16598   0.861   0.962   2.460  0.6342  0.1095 -1.4811
  150OSM   H12B16599   0.864   0.789   2.491  0.8905 -1.7893 -1.9484
  150OSM    C1116600   0.864   0.838   2.290  0.5020 -0.0795 -0.0830
  150OSM   H11A16601   0.885   0.927   2.227 -0.1138  0.2518  0.1754
  150OSM   H11B16602   0.753   0.838   2.296  0.5149  0.9782  0.3562
  150OSM      P16603   0.862   0.576   2.222  0.0533  0.1134  0.2585
  150OSM    O1316604   0.787   0.564   2.096  0.0221  0.9211  0.3649
  150OSM    O1416605   0.983   0.494   2.239  0.9075 -0.2625  0.5446
  150OSM    O1116606   0.764   0.561   2.344 -0.1801  0.0899  0.0675
  150OSM    O1216607   0.921   0.721   2.230  0.7392 -0.1601  0.4986
  150OSM    C1S16608   0.818   0.524   2.479 -0.0110 -0.4364  0.2514
  150OSM    H1S16609   0.905   0.591   2.497 -0.5829  1.9396 -4.2869
  150OSM    H1T16610   0.844   0.416   2.477  0.3549 -0.3479  0.1986
  150OSM     NF16611   0.778   0.505   2.718  0.6142 -0.2412 -0.0747
  150OSM    HNF16612   0.768   0.416   2.763  1.8828  0.8033  2.4727
  150OSM    C2S16613   0.710   0.529   2.587 -0.4899 -0.7144 -0.5979
  150OSM    H2S16614   0.671   0.633   2.592  1.5234  0.1713 -1.9399
  150OSM    C3S16615   0.592   0.440   2.565  0.0506 -0.6264 -0.7703
  150OSM    H3S16616   0.634   0.338   2.561 -0.4777 -0.8478 -0.7955
  150OSM     O316617   0.538   0.448   2.431 -0.3983 -0.0870 -0.5656
  150OSM    HO316618   0.607   0.495   2.384 -1.2128  0.2211 -1.5025
  150OSM    C4S16619   0.486   0.445   2.673  0.0206  0.1731 -0.0893
  150OSM    H4S16620   0.499   0.361   2.743  1.9642  1.8209  1.6612
  150OSM    C5S16621   0.387   0.541   2.691 -0.2064  0.2243 -0.4350
  150OSM    H5S16622   0.399   0.630   2.627 -0.2670 -0.2413 -1.0998
  150OSM    C6S16623   0.284   0.543   2.805  0.3467  1.3242  0.4425
  150OSM    H6S16624   0.185   0.513   2.765  1.6086 -0.6169 -1.4077
  150OSM    H6T16625   0.276   0.635   2.868 -0.6176 -1.0099  4.0547
  150OSM    C7S16626   0.304   0.429   2.917 -0.0940  0.6242 -0.4634
  150OSM    H7S16627   0.402   0.442   2.967 -0.4872 -1.1832  0.8945
  150OSM    H7T16628   0.305   0.329   2.868 -1.2358  0.5622 -0.3993
  150OSM    C8S16629   0.196   0.425   3.034 -0.0306 -0.3086 -0.6203
  150OSM    H8S16630   0.098   0.388   2.998  0.0220 -0.7981 -0.2718
  150OSM    H8T16631   0.212   0.525   3.080  0.2543 -1.0848  1.0445
  150OSM    C9S16632   0.250   0.320   3.138  1.0089 -0.4128 -0.0470
  150OSM    H9S16633   0.357   0.339   3.160  1.1544 -0.1383 -0.9362
  150OSM    H9T16634   0.242   0.221   3.089 -0.7403 -0.1124 -0.4364
  150OSM   C10S16635   0.165   0.307   3.269 -0.1136  0.3636  0.0246
  150OSM   H10S16636   0.056   0.307   3.250 -0.0826 -4.3593 -1.5978
  150OSM   H10T16637   0.188   0.407   3.312 -1.0336  0.7596 -0.3877
  150OSM   C11S16638   0.223   0.199   3.367 -0.2678  0.3296  1.1365
  150OSM   H11S16639   0.334   0.208   3.363 -0.1340 -1.0848  1.0318
  150OSM   H11T16640   0.188   0.094   3.351  1.6560 -0.7166  3.1733
  150OSM   C12S16641   0.181   0.237   3.512 -0.3065  0.2605  0.4521
  150OSM   H12S16642   0.070   0.232   3.511 -0.3393  0.7944  0.8443
  150OSM   H12T16643   0.212   0.339   3.543 -1.8436  0.5389  1.1609
  150OSM   C13S16644   0.241   0.139   3.620  0.3081 -0.1042 -0.1977
  150OSM   H13S16645   0.352   0.142   3.614  0.2528 -0.5673 -2.1156
  150OSM   H13T16646   0.215   0.032   3.602  0.0524 -0.3110  1.2530
  150OSM   C14S16647   0.192   0.174   3.761  0.0460 -0.0631 -0.5983
  150OSM   H14S16648   0.177   0.085   3.827  0.9072 -1.1603 -1.8317
  150OSM   H14T16649   0.089   0.213   3.753  0.5386  1.2518 -0.7064
  150OSM   C15S16650   0.287   0.275   3.834  0.1076  0.3677 -0.6596
  150OSM   H15S16651   0.275   0.377   3.790 -0.6476  1.0576  1.0341
  150OSM   H15T16652   0.391   0.247   3.807 -0.3304 -2.1813  0.0030
  150OSM   C16S16653   0.264   0.297   3.985 -0.2164  0.1717 -0.3781
  150OSM   H16S16654   0.331   0.385   3.999 -1.6448  2.2792 -4.7364
  150OSM   H16T16655   0.296   0.204   4.035  0.6898 -1.1084 -3.1090
  150OSM   C17S16656   0.127   0.328   4.023  0.2031 -0.2044 -0.0131
  150OSM   H17S16657   0.065   0.247   3.980 -0.0330  0.0267 -0.1108
  150OSM   H17T16658   0.083   0.417   3.972 -1.1819  0.7227  2.6401
  150OSM   C18S16659   0.089   0.342   4.174 -0.0717  0.0545 -0.0688
  150OSM   H18S16660  -0.018   0.343   4.203  0.8261  0.5715  3.8038
  150OSM   H18T16661   0.142   0.432   4.213  0.5132 -0.0571 -0.5809
  150OSM   H18U16662   0.133   0.251   4.220 -0.6253 -0.3724 -0.3723
  150OSM    C1F16663   0.872   0.586   2.769  0.1789 -0.1402 -0.4504
  150OSM     OF16664   0.913   0.686   2.711  0.4987  0.2568  0.1800
  150OSM    C2F16665   0.921   0.546   2.905  0.4428 -0.1260 -0.6565
  150OSM    H2F16666   0.938   0.436   2.898 -0.8587 -0.3614 -0.3790
  150OSM    H2G16667   0.835   0.561   2.974  0.4943 -1.6467 -0.2230
  150OSM    C3F16668   1.034   0.634   2.955  0.3453  0.1159  0.2513
  150OSM    H3F16669   1.003   0.740   2.948 -1.6397 -0.2578  2.0602
  150OSM    H3G16670   1.122   0.622   2.889 -1.3475 -1.0101 -1.9166
  150OSM    C4F16671   1.071   0.601   3.104  0.4552 -0.1692  0.0303
  150OSM    H4F16672   1.160   0.657   3.140 -0.9524  1.9212  0.4034
  150OSM    H4G16673   1.095   0.495   3.125  2.7195  0.6416  2.0715
  150OSM    C5F16674   0.963   0.650   3.198  0.1879 -0.1546  0.1284
  150OSM    H5F16675   0.874   0.583   3.204  0.8861 -1.2331 -0.9590
  150OSM    H5G16676   0.932   0.748   3.157  0.6762 -0.7013 -1.6331
  150OSM    C6F16677   1.001   0.660   3.350  0.5600  0.5621 -0.2622
  150OSM    H6F16678   1.100   0.709   3.360  1.2811 -1.1645  1.9120
  150OSM    H6G16679   1.007   0.558   3.395 -2.3112  0.5738  0.3428
  150OSM    C7F16680   0.895   0.744   3.422  0.2380 -0.2899  0.2229
  150OSM    H7F16681   0.797   0.707   3.387 -0.1380 -0.2546  1.2060
  150OSM    H7G16682   0.893   0.852   3.395  1.0371  1.5141  6.0396
  150OSM    C8F16683   0.892   0.720   3.573 -0.1919  0.4151 -0.5293
  150OSM    H8F16684   0.911   0.612   3.596 -0.3784  0.0417 -2.0470
  150OSM    H8G16685   0.790   0.729   3.616  0.1082 -5.1671  2.3174
  150OSM    C9F16686   0.983   0.809   3.654  0.1692  0.1268  0.8230
  150OSM    H9F16687   1.069   0.854   3.603  0.3839  0.4468  1.4544
  150OSM   C10F16688   0.955   0.850   3.778 -0.1826  0.0130 -0.1075
  150OSM   H10F16689   1.022   0.927   3.819  0.0243  0.3865 -1.1119
  150OSM   C11F16690   0.839   0.806   3.874  0.3443  0.1138  0.9641
  150OSM   H11F16691   0.885   0.726   3.936  0.2193 -1.1437 -0.4860
  150OSM   H11G16692   0.757   0.749   3.824 -0.8031  1.0804  1.7022
  150OSM   C12F16693   0.772   0.902   3.969 -0.1031 -0.0755 -0.4928
  150OSM   H12F16694   0.746   1.001   3.924 -0.8598  1.6339  3.2999
  150OSM   H12G16695   0.841   0.922   4.053 -1.3428 -0.2276  0.5870
  150OSM   C13F16696   0.641   0.848   4.020  0.1956 -0.1515  0.1291
  150OSM   H13F16697   0.568   0.847   3.937  0.8087  0.1769 -0.4306
  150OSM   H13G16698   0.606   0.916   4.100  0.2832  1.8881 -1.4521
  150OSM   C14F16699   0.656   0.706   4.086 -0.0521  0.1460 -0.6665
  150OSM   H14F16700   0.746   0.709   4.151  1.1514  1.3941 -2.3098
  150OSM   H14G16701   0.677   0.630   4.007  2.4404  3.0106 -3.0149
  150OSM   C15F16702   0.524   0.671   4.153 -0.3881  0.0298  0.7272
  150OSM   H15F16703   0.449   0.671   4.071 -0.1564  0.0230  0.5125
  150OSM   H15G16704   0.499   0.748   4.228 -0.3971  0.2723  0.4782
  150OSM   C16F16705   0.502   0.540   4.233 -0.3475 -0.7930  0.3918
  150OSM   H16F16706   0.557   0.459   4.180 -1.9331 -1.2804 -0.5736
  150OSM   H16G16707   0.396   0.508   4.225 -1.4181  2.6590 -0.9439
  150OSM   C17F16708   0.529   0.543   4.384  0.4789  0.6840 -0.2272
  150OSM   H17F16709   0.467   0.611   4.446 -0.3661 -0.4561  0.2105
  150OSM   H17G16710   0.630   0.585   4.401  0.7502  0.8115 -1.9308
  150OSM   C18F16711   0.510   0.407   4.447  0.3952  0.7870  0.1523
  150OSM   H18F16712   0.566   0.332   4.388 -0.4068 -0.6795  1.1966
  150OSM   H18G16713   0.402   0.381   4.444  0.4304  0.7133 -0.8255
  150OSM   H18H16714   0.544   0.405   4.552  1.0568 -1.3811 -0.0504
  151OSM      N16715   0.315   1.290   1.869 -0.2856  0.5287  0.5383
  151OSM    C1516716   0.446   1.259   1.801 -0.2915 -0.1276 -0.1833
  151OSM   H15A16717   0.482   1.171   1.852 -1.0387  0.0448  0.6747
  151OSM   H15B16718   0.521   1.332   1.827  0.0383 -1.1499  1.9408
  151OSM   H15C16719   0.441   1.248   1.694 -1.5682  0.7960 -0.2367
  151OSM    C1416720   0.271   1.416   1.808  0.3545  0.3799 -0.4684
  151OSM   H14A16721   0.232   1.399   1.709 -1.6116 -0.1164  0.3428
  151OSM   H14B16722   0.348   1.491   1.815  0.4186  0.1738  1.3662
  151OSM   H14C16723   0.188   1.462   1.860 -1.1393 -1.8259 -0.7362
  151OSM    C1316724   0.222   1.173   1.837 -0.0449 -0.3198 -0.4224
  151OSM   H13A16725   0.232   1.146   1.733  0.2703 -0.5792 -0.3249
  151OSM   H13B16726   0.125   1.213   1.862 -0.3517 -0.2792 -1.6558
  151OSM   H13C16727   0.245   1.089   1.901 -0.7691 -0.9578 -0.9875
  151OSM    C1216728   0.329   1.312   2.018  0.3908 -0.0497 -0.6003
  151OSM   H12A16729   0.332   1.216   2.066 -0.6396  1.3085  2.4431
  151OSM   H12B16730   0.237   1.354   2.056  1.6320  1.4943  0.9404
  151OSM    C1116731   0.441   1.407   2.069 -0.4936 -0.5906 -0.0797
  151OSM   H11A16732   0.427   1.441   2.174  0.0875  0.2581 -0.2625
  151OSM   H11B16733   0.426   1.493   1.999  1.0123  1.3514  1.8681
  151OSM      P16734   0.607   1.210   2.107 -0.3177 -0.3016  0.0506
  151OSM    O1316735   0.609   1.108   2.003  0.4296  0.5012  0.8907
  151OSM    O1416736   0.731   1.228   2.187  0.3375 -0.3297  0.5786
  151OSM    O1116737   0.484   1.187   2.203 -0.1384  0.0449  0.2671
  151OSM    O1216738   0.573   1.355   2.053 -0.3010  0.2591  0.1709
  151OSM    C1S16739   0.504   1.087   2.307 -0.2018 -0.0421 -0.4081
  151OSM    H1S16740   0.607   1.047   2.313 -0.1735  0.0291 -0.4244
  151OSM    H1T16741   0.451   0.993   2.284 -1.3174  0.7033 -0.9669
  151OSM     NF16742   0.495   1.051   2.552  0.3444 -0.3136  0.5782
  151OSM    HNF16743   0.420   0.996   2.587  0.2634  0.0334  0.9658
  151OSM    C2S16744   0.462   1.145   2.449 -0.1676 -0.1448 -0.3211
  151OSM    H2S16745   0.519   1.238   2.468 -0.6069 -0.2819  1.9387
  151OSM    C3S16746   0.306   1.177   2.449  0.3625  0.5570  0.5475
  151OSM    H3S16747   0.241   1.087   2.457 -1.8221  2.1147  1.4835
  151OSM     O316748   0.262   1.251   2.335  0.3778 -0.5732  0.6017
  151OSM    HO316749   0.337   1.248   2.276 -0.3929  1.0195 -0.4991
  151OSM    C4S16750   0.276   1.263   2.571 -0.0274  0.4845  0.4948
  151OSM    H4S16751   0.303   1.208   2.663 -1.1160 -1.3373 -0.2199
  151OSM    C5S16752   0.246   1.393   2.578 -0.0123 -0.3913  0.6740
  151OSM    H5S16753   0.212   1.441   2.485  0.0932 -1.4115  0.0857
  151OSM    C6S16754   0.231   1.475   2.703 -0.0015  0.1886  0.1400
  151OSM    H6S16755   0.170   1.564   2.677  1.0754  1.0756  0.6063
  151OSM    H6T16756   0.329   1.515   2.734  0.9807 -0.8160 -1.5071
  151OSM    C7S16757   0.157   1.395   2.809  0.1319  0.2140  0.0272
  151OSM    H7S16758   0.198   1.298   2.845 -0.1694  0.0474 -0.0761
  151OSM    H7T16759   0.055   1.369   2.775  0.2911 -0.0826 -0.2202
  151OSM    C8S16760   0.140   1.472   2.947 -0.7056 -0.9260  0.2429
  151OSM    H8S16761   0.066   1.553   2.935  1.2943  0.6257 -3.1643
  151OSM    H8T16762   0.240   1.515   2.967 -1.0849  1.9659 -3.0803
  151OSM    C9S16763   0.100   1.376   3.061 -0.4168  0.3731  0.1238
  151OSM    H9S16764   0.187   1.312   3.089 -0.1500  1.3778  1.7797
  151OSM    H9T16765   0.023   1.306   3.021 -2.7778  2.2225  1.1635
  151OSM   C10S16766   0.043   1.449   3.188  0.5753 -1.1709  0.0629
  151OSM   H10S16767  -0.031   1.522   3.150 -0.1255 -1.2548  1.2207
  151OSM   H10T16768   0.125   1.510   3.232 -1.7069  3.7617 -1.8002
  151OSM   C11S16769  -0.016   1.366   3.309  0.1294  0.5690 -0.2782
  151OSM   H11S16770   0.064   1.311   3.363  1.8915  1.2722 -2.0263
  151OSM   H11T16771  -0.080   1.295   3.253 -0.9789 -0.4975  2.2173
  151OSM   C12S16772  -0.096   1.444   3.408 -0.2310 -0.0180  0.1569
  151OSM   H12S16773  -0.107   1.387   3.502  2.3523 -0.7996  0.0594
  151OSM   H12T16774  -0.189   1.486   3.364  0.1522  0.8401  0.1394
  151OSM   C13S16775  -0.019   1.572   3.453  0.3365 -0.7755  0.1830
  151OSM   H13S16776   0.016   1.631   3.366 -1.6099  0.4475  0.1557
  151OSM   H13T16777   0.077   1.528   3.488 -0.3589 -1.4656  1.2978
  151OSM   C14S16778  -0.101   1.664   3.533 -0.0841  0.1880 -0.3886
  151OSM   H14S16779  -0.160   1.598   3.601  1.6547 -0.1717  0.8555
  151OSM   H14T16780  -0.170   1.728   3.474  1.0494  0.6479 -1.2533
  151OSM   C15S16781  -0.017   1.764   3.617 -0.3254  0.7276  0.4810
  151OSM   H15S16782   0.051   1.827   3.555  0.2020 -0.0686  0.2472
  151OSM   H15T16783   0.056   1.709   3.680  0.7686  1.6998  0.1132
  151OSM   C16S16784  -0.102   1.838   3.721  0.4561 -0.2115  0.5805
  151OSM   H16S16785  -0.124   1.777   3.811  0.4758 -1.2514 -0.1000
  151OSM   H16T16786  -0.203   1.868   3.687  0.1695 -0.2115  1.4095
  151OSM   C17S16787  -0.026   1.964   3.770  0.2959 -0.6620 -0.1649
  151OSM   H17S16788  -0.029   2.054   3.704  0.2188 -0.4587  0.1134
  151OSM   H17T16789   0.077   1.930   3.795  0.0347 -0.6665  0.9276
  151OSM   C18S16790  -0.089   2.028   3.898 -0.0706  0.1961 -0.1288
  151OSM   H18S16791  -0.028   2.110   3.943 -0.0001  0.5893 -0.9389
  151OSM   H18T16792  -0.111   1.954   3.979  2.9528 -1.3476 -0.5469
  151OSM   H18U16793  -0.190   2.061   3.867  0.5876  0.7297 -1.7864
  151OSM    C1F16794   0.620   1.036   2.587  0.1646 -0.1206  0.2832
  151OSM     OF16795   0.710   1.106   2.550 -0.0408  0.3434 -0.2260
  151OSM    C2F16796   0.660   0.930   2.681  0.7211 -0.5347  0.3366
  151OSM    H2F16797   0.736   0.857   2.647 -0.7606 -1.4896 -1.0935
  151OSM    H2G16798   0.568   0.869   2.698 -0.0008  0.1265 -0.9498
  151OSM    C3F16799   0.715   0.988   2.815 -0.4007 -0.2535 -0.3595
  151OSM    H3F16800   0.680   1.093   2.824 -0.6199 -0.3802  0.4079
  151OSM    H3G16801   0.826   0.998   2.817 -0.3280 -0.5908 -1.7966
  151OSM    C4F16802   0.661   0.915   2.938 -0.2181 -0.1260 -0.0164
  151OSM    H4F16803   0.704   0.812   2.940  0.3597  0.0932 -0.7023
  151OSM    H4G16804   0.552   0.898   2.945 -0.0104 -1.1284  1.2490
  151OSM    C5F16805   0.709   0.977   3.072 -0.1275 -0.1969  0.3525
  151OSM    H5F16806   0.685   1.085   3.067 -0.6147 -0.2776  0.8958
  151OSM    H5G16807   0.818   0.978   3.096 -0.5948  0.8755  2.6857
  151OSM    C6F16808   0.642   0.916   3.196  0.5001  1.0441 -0.2871
  151OSM    H6F16809   0.720   0.900   3.274 -0.3816 -1.7912  0.1227
  151OSM    H6G16810   0.602   0.815   3.175 -0.3018  0.5135  3.1817
  151OSM    C7F16811   0.525   0.996   3.256 -0.8949 -0.5317 -0.1487
  151OSM    H7F16812   0.456   1.028   3.174 -0.2785  3.9727  0.8122
  151OSM    H7G16813   0.575   1.091   3.284  0.0050 -0.4284 -1.9501
  151OSM    C8F16814   0.455   0.918   3.369 -0.1430  0.4757  0.0963
  151OSM    H8F16815   0.390   0.836   3.332  0.4316  0.2059 -0.3325
  151OSM    H8G16816   0.379   0.996   3.395 -2.2581 -1.6728  0.6876
  151OSM    C9F16817   0.532   0.876   3.499 -0.4601  0.4461  0.3205
  151OSM    H9F16818   0.611   0.943   3.536  0.4651 -1.1703  1.3777
  151OSM   C10F16819   0.511   0.769   3.579  0.4168 -0.9279  0.0926
  151OSM   H10F16820   0.581   0.757   3.663 -0.5965 -0.3779  1.0368
  151OSM   C11F16821   0.406   0.661   3.568 -0.4663 -0.3173 -0.1362
  151OSM   H11F16822   0.433   0.572   3.629 -3.4705 -0.7437  0.7605
  151OSM   H11G16823   0.393   0.645   3.459  0.1456 -1.4903 -0.0549
  151OSM   C12F16824   0.265   0.707   3.631 -0.2620 -0.6452  0.2480
  151OSM   H12F16825   0.186   0.633   3.606  0.1215 -0.7766 -0.5684
  151OSM   H12G16826   0.229   0.805   3.593 -0.3714 -1.0689 -0.7798
  151OSM   C13F16827   0.266   0.701   3.781  0.0185  0.6206 -0.8246
  151OSM   H13F16828   0.354   0.740   3.836 -0.6965 -1.5252  2.0671
  151OSM   H13G16829   0.266   0.592   3.803 -3.1632  0.6847  0.0305
  151OSM   C14F16830   0.132   0.753   3.843  0.4755  0.3118 -0.1725
  151OSM   H14F16831   0.048   0.694   3.800 -0.2567  0.4738  0.9781
  151OSM   H14G16832   0.125   0.859   3.809  4.3197 -0.1145 -2.9491
  151OSM   C15F16833   0.116   0.746   3.996  0.0347  0.2665 -0.4464
  151OSM   H15F16834   0.209   0.786   4.041  0.8000 -1.6133 -0.2276
  151OSM   H15G16835   0.111   0.640   4.030  1.2274  0.1974 -0.4399
  151OSM   C16F16836  -0.016   0.804   4.052  0.1080 -0.2924 -0.4976
  151OSM   H16F16837  -0.102   0.761   3.998  0.1667 -0.6460 -0.3163
  151OSM   H16G16838  -0.013   0.912   4.030 -1.2162 -0.2865 -0.7365
  151OSM   C17F16839  -0.023   0.767   4.200  0.1919  0.0419  0.0057
  151OSM   H17F16840   0.027   0.672   4.229 -1.3579 -0.2745  1.9257
  151OSM   H17G16841  -0.131   0.757   4.224  0.1984 -0.1816 -0.0568
  151OSM   C18F16842   0.030   0.874   4.292  0.3829  0.2625  0.0906
  151OSM   H18F16843   0.023   0.823   4.391  0.5099  1.6296  0.8325
  151OSM   H18G16844  -0.042   0.959   4.285 -1.5086 -1.3736 -1.3523
  151OSM   H18H16845   0.132   0.901   4.256 -0.0700  0.8619 -0.7760
  152OSM      N16846   4.611   2.368   2.124 -0.0180 -0.7203  0.1499
  152OSM    C1516847   4.644   2.474   2.228  0.6154 -0.0208  0.2398
  152OSM   H15A16848   4.576   2.476   2.313  3.0705  0.0393  2.3321
  152OSM   H15B16849   4.668   2.566   2.177 -0.4975  0.4614  0.5577
  152OSM   H15C16850   4.734   2.452   2.284 -0.1641  0.9499  1.9592
  152OSM    C1416851   4.478   2.411   2.079 -0.5804  0.1197  0.3826
  152OSM   H14A16852   4.423   2.353   2.007 -1.7564 -0.9760  2.0951
  152OSM   H14B16853   4.482   2.510   2.035  1.0614 -1.3627 -3.2255
  152OSM   H14C16854   4.415   2.398   2.165 -0.2170 -0.5127  0.5634
  152OSM    C1316855   4.703   2.374   2.007 -0.2509  0.5433  0.7320
  152OSM   H13A16856   4.656   2.315   1.930  0.7987 -0.4766  0.8467
  152OSM   H13B16857   4.799   2.329   2.024 -0.0842  1.0717  1.2345
  152OSM   H13C16858   4.713   2.474   1.967  3.2760  0.5245  1.2861
  152OSM    C1216859   4.605   2.232   2.176 -0.0695 -0.3659 -0.1669
  152OSM   H12A16860   4.703   2.185   2.175 -0.0922 -0.4095 -0.3718
  152OSM   H12B16861   4.539   2.169   2.118  0.7388 -3.0392  1.5661
  152OSM    C1116862   4.545   2.209   2.316 -0.1361 -0.0665 -0.4183
  152OSM   H11A16863   4.581   2.289   2.384 -0.4166  0.5943 -1.0287
  152OSM   H11B16864   4.588   2.112   2.347 -0.0285 -0.1369 -0.7841
  152OSM      P16865   4.325   2.082   2.310  0.2443 -0.4978 -0.2242
  152OSM    O1316866   4.183   2.119   2.325  0.2342  0.1343  0.4485
  152OSM    O1416867   4.353   2.014   2.182  0.2407 -0.2010 -0.3016
  152OSM    O1116868   4.376   1.996   2.434  0.1292 -0.5336  0.0542
  152OSM    O1216869   4.407   2.221   2.320  0.0795 -0.1831  0.0150
  152OSM    C1S16870   4.341   2.022   2.570 -0.2472  0.6012 -0.1710
  152OSM    H1S16871   4.318   2.130   2.583 -1.2723  0.4781 -0.8317
  152OSM    H1T16872   4.420   1.976   2.633 -0.9679 -1.7029 -0.8390
  152OSM     NF16873   4.187   1.977   2.758  0.0014 -0.2257  0.0821
  152OSM    HNF16874   4.208   1.907   2.825 -0.0863 -0.6162 -0.2945
  152OSM    C2S16875   4.216   1.939   2.617  0.3150  0.4102  0.6063
  152OSM    H2S16876   4.126   1.958   2.553  0.8641 -0.8235 -0.5779
  152OSM    C3S16877   4.233   1.779   2.597 -0.9176  0.4054  0.1891
  152OSM    H3S16878   4.308   1.760   2.677 -0.7726 -0.7334 -0.2048
  152OSM     O316879   4.289   1.734   2.475 -0.3236 -0.1833  0.2249
  152OSM    HO316880   4.320   1.813   2.431  0.3373  0.2757  1.4774
  152OSM    C4S16881   4.111   1.700   2.628  0.1388 -0.1480  0.4502
  152OSM    H4S16882   4.023   1.710   2.562 -0.1474  3.1799  1.1769
  152OSM    C5S16883   4.092   1.604   2.725 -0.4792  0.5715  0.7911
  152OSM    H5S16884   4.170   1.593   2.801  0.7764 -0.3577 -0.5741
  152OSM    C6S16885   3.974   1.520   2.739  0.5361  0.0380 -1.1290
  152OSM    H6S16886   3.877   1.565   2.710  0.6774  0.5760 -0.7808
  152OSM    H6T16887   3.961   1.518   2.849 -2.0381  0.2684 -1.3745
  152OSM    C7S16888   3.988   1.379   2.680 -0.1218  0.5859 -0.4900
  152OSM    H7S16889   4.077   1.329   2.724 -0.7876  0.3848  0.6632
  152OSM    H7T16890   4.005   1.390   2.571  1.6790 -2.7363 -0.6874
  152OSM    C8S16891   3.864   1.281   2.695  0.6092  0.3795 -0.1916
  152OSM    H8S16892   3.903   1.179   2.678  0.6924  0.5607 -1.1304
  152OSM    H8T16893   3.783   1.307   2.623  1.4454  0.3027 -1.1884
  152OSM    C9S16894   3.788   1.282   2.826  0.0029  0.0735  0.7417
  152OSM    H9S16895   3.712   1.204   2.807  2.8560 -2.6646 -0.2762
  152OSM    H9T16896   3.751   1.381   2.861  0.7783 -0.0815  2.1009
  152OSM   C10S16897   3.875   1.231   2.941 -0.3304  0.5250 -0.2357
  152OSM   H10S16898   3.947   1.311   2.968  2.1771 -1.4628 -0.7254
  152OSM   H10T16899   3.932   1.146   2.899 -2.4145 -0.8126 -0.5111
  152OSM   C11S16900   3.796   1.179   3.065  1.0870  0.4887  0.4520
  152OSM   H11S16901   3.717   1.101   3.051  0.1363  1.1210  1.9886
  152OSM   H11T16902   3.739   1.260   3.116  2.7659 -0.2380  3.7476
  152OSM   C12S16903   3.876   1.128   3.179 -0.0390  0.7951  0.0353
  152OSM   H12S16904   3.940   1.213   3.211  0.0668  0.4822  0.6765
  152OSM   H12T16905   3.938   1.048   3.134 -1.3371 -1.2980  1.7563
  152OSM   C13S16906   3.799   1.081   3.292 -0.1181 -0.0318 -0.1012
  152OSM   H13S16907   3.723   1.003   3.270 -1.2363  0.5556  1.4857
  152OSM   H13T16908   3.728   1.156   3.333  0.4027 -0.3202  1.3833
  152OSM   C14S16909   3.884   1.033   3.410 -0.2460  0.5424 -0.0343
  152OSM   H14S16910   3.947   1.114   3.453  0.1761 -1.2189  3.0574
  152OSM   H14T16911   3.965   0.961   3.383  0.1553  1.3026 -0.8753
  152OSM   C15S16912   3.809   0.968   3.526 -0.1365 -0.0639  0.6548
  152OSM   H15S16913   3.769   0.872   3.489  0.1101 -0.5467  1.6122
  152OSM   H15T16914   3.721   1.035   3.532 -0.2108  0.0686 -1.2029
  152OSM   C16S16915   3.887   0.946   3.656  0.5883  0.4973 -1.0295
  152OSM   H16S16916   3.939   1.041   3.680  0.8913  0.5107 -1.7049
  152OSM   H16T16917   3.963   0.867   3.642  0.0318 -0.2897  0.2150
  152OSM   C17S16918   3.782   0.913   3.772 -0.3895 -0.2691  1.2278
  152OSM   H17S16919   3.731   0.817   3.747  1.3405 -0.9010 -0.1180
  152OSM   H17T16920   3.705   0.991   3.758 -2.3351 -2.4749 -1.4685
  152OSM   C18S16921   3.848   0.913   3.910  0.0723  0.2929 -0.3637
  152OSM   H18S16922   3.763   0.912   3.982 -0.8602  1.1287 -1.4212
  152OSM   H18T16923   3.926   0.993   3.916  0.1177  0.2367 -0.1903
  152OSM   H18U16924   3.903   0.818   3.927  0.5029  0.4901 -0.6431
  152OSM    C1F16925   4.112   2.087   2.789 -0.3636  0.2859 -0.5476
  152OSM     OF16926   4.079   2.169   2.707  0.2130 -0.4242  0.2246
  152OSM    C2F16927   4.091   2.110   2.939  0.1974  0.2245  0.7907
  152OSM    H2F16928   4.189   2.111   2.992 -0.0913  0.4910  1.3152
  152OSM    H2G16929   4.026   2.030   2.980 -0.3552  0.8542  1.1421
  152OSM    C3F16930   4.031   2.251   2.955  0.1543 -0.1174  0.5212
  152OSM    H3F16931   3.954   2.286   2.882  0.0792  1.3387  1.2524
  152OSM    H3G16932   4.122   2.312   2.935 -1.2778  2.5008  1.3655
  152OSM    C4F16933   3.992   2.284   3.101 -0.0322 -0.1979 -0.6140
  152OSM    H4F16934   3.965   2.391   3.117  1.7294 -0.0108  1.7038
  152OSM    H4G16935   4.078   2.272   3.171 -0.6946  1.9360  0.6985
  152OSM    C5F16936   3.877   2.189   3.151 -0.0750  0.2539  0.3976
  152OSM    H5F16937   3.893   2.082   3.127 -1.0107  0.3131 -0.5735
  152OSM    H5G16938   3.786   2.225   3.100  0.0714  1.2628  0.8298
  152OSM    C6F16939   3.852   2.190   3.302 -0.4577 -0.1465  0.3486
  152OSM    H6F16940   3.817   2.283   3.351 -0.3778 -0.0227  0.1705
  152OSM    H6G16941   3.947   2.151   3.344 -0.5938  0.3132  1.0959
  152OSM    C7F16942   3.736   2.094   3.337  0.6868 -0.5618  0.3972
  152OSM    H7F16943   3.646   2.123   3.279  0.8781 -2.7917 -1.1279
  152OSM    H7G16944   3.702   2.124   3.438 -1.4640  0.5188 -0.5865
  152OSM    C8F16945   3.770   1.946   3.333 -0.3454 -0.0510 -0.5573
  152OSM    H8F16946   3.797   1.931   3.226 -0.2089 -0.7102 -0.4361
  152OSM    H8G16947   3.677   1.885   3.335 -1.5496  1.7032  1.8385
  152OSM    C9F16948   3.868   1.901   3.441  0.0370  0.8098 -0.4787
  152OSM    H9F16949   3.967   1.899   3.394  0.3026  0.3352  0.0933
  152OSM   C10F16950   3.851   1.882   3.570 -0.3372  0.1910  0.0555
  152OSM   H10F16951   3.947   1.860   3.620  0.2166 -1.4259 -1.5866
  152OSM   C11F16952   3.727   1.903   3.656 -0.1972 -0.2913  0.4504
  152OSM   H11F16953   3.642   1.930   3.590 -0.6452  2.5010  2.0205
  152OSM   H11G16954   3.736   1.998   3.712 -1.8868  0.4539 -0.4758
  152OSM   C12F16955   3.694   1.782   3.736  0.0926  0.0703  0.4192
  152OSM   H12F16956   3.788   1.747   3.785  0.0605 -2.2414 -1.0637
  152OSM   H12G16957   3.668   1.698   3.670  0.3308 -0.2131  0.6822
  152OSM   C13F16958   3.584   1.817   3.838  0.6757  0.2543 -0.0443
  152OSM   H13F16959   3.490   1.851   3.791  0.3045  1.0770  1.2521
  152OSM   H13G16960   3.620   1.905   3.895  0.5054  0.2218  0.1129
  152OSM   C14F16961   3.543   1.699   3.921  0.3023 -0.8734  0.2333
  152OSM   H14F16962   3.541   1.606   3.861  0.2347 -0.9773  0.3955
  152OSM   H14G16963   3.442   1.725   3.958 -0.0588 -0.4064 -1.0466
  152OSM   C15F16964   3.628   1.685   4.044 -0.4115 -0.2502  0.3059
  152OSM   H15F16965   3.613   1.779   4.102  1.3498 -1.2725  2.5623
  152OSM   H15G16966   3.736   1.686   4.016 -0.2731 -1.8065  0.7032
  152OSM   C16F16967   3.578   1.571   4.138 -0.0331 -0.6975  0.4953
  152OSM   H16F16968   3.577   1.487   4.065  1.9840 -0.2174 -0.1583
  152OSM   H16G16969   3.474   1.591   4.171  0.1143 -0.7151  0.9869
  152OSM   C17F16970   3.676   1.549   4.245 -0.3871 -0.5519  0.8647
  152OSM   H17F16971   3.779   1.540   4.205 -0.0133  1.4681  1.2817
  152OSM   H17G16972   3.654   1.450   4.291 -0.6438 -0.8186  0.1895
  152OSM   C18F16973   3.681   1.660   4.353 -0.5885  0.7793 -0.9342
  152OSM   H18F16974   3.686   1.760   4.305 -0.1254  0.7523 -0.9459
  152OSM   H18G16975   3.768   1.629   4.416 -2.1708 -0.7475  0.5900
  152OSM   H18H16976   3.589   1.662   4.416  1.0041 -0.8806  1.6724
  153OSM      N16977   0.688   2.185   1.783  0.3910  0.3176 -0.1423
  153OSM    C1516978   0.685   2.269   1.663 -0.2286  0.3858 -0.1518
  153OSM   H15A16979   0.702   2.371   1.694 -0.1045 -0.1822  1.7399
  153OSM   H15B16980   0.588   2.260   1.615 -0.0392 -0.6203 -0.3618
  153OSM   H15C16981   0.770   2.245   1.600  0.4170 -0.6787  1.0836
  153OSM    C1416982   0.597   2.245   1.878  0.1098 -0.3823 -0.4546
  153OSM   H14A16983   0.490   2.231   1.866  0.2433 -3.9566  1.1736
  153OSM   H14B16984   0.615   2.351   1.886 -0.1223 -0.3472 -0.3681
  153OSM   H14C16985   0.612   2.189   1.970  0.6792 -1.1099 -0.9778
  153OSM    C1316986   0.628   2.052   1.740  0.1736  0.3934 -0.2387
  153OSM   H13A16987   0.681   2.017   1.652  2.3850 -0.0056  1.1845
  153OSM   H13B16988   0.522   2.061   1.718  0.0419 -0.8332 -0.1603
  153OSM   H13C16989   0.643   1.977   1.816 -0.8492  1.2961  0.8835
  153OSM    C1216990   0.826   2.170   1.842  0.3889 -0.0280 -0.1153
  153OSM   H12A16991   0.862   2.267   1.875  0.1891  0.2149 -0.6028
  153OSM   H12B16992   0.886   2.128   1.763  0.3278 -2.7558  1.1944
  153OSM    C1116993   0.833   2.074   1.966  0.9590 -0.1135 -0.0302
  153OSM   H11A16994   0.939   2.048   1.988  0.7670  0.5877  1.9637
  153OSM   H11B16995   0.778   1.980   1.944 -0.0275  0.4244  0.0947
  153OSM      P16996   0.807   2.245   2.174  0.0930 -0.3423 -0.3184
  153OSM    O1316997   0.940   2.295   2.130 -0.3285 -0.0662 -0.7580
  153OSM    O1416998   0.699   2.345   2.178 -0.0799  0.0174  0.3296
  153OSM    O1116999   0.833   2.185   2.312 -0.1555 -0.1810 -0.3136
  153OSM    O1217000   0.761   2.124   2.082 -0.1167  0.7311 -0.0765
  153OSM    C1S17001   0.915   2.068   2.327  0.1801  0.2998  0.3453
  153OSM    H1S17002   1.009   2.070   2.267 -0.9365 -0.3877 -1.4978
  153OSM    H1T17003   0.864   1.978   2.286  1.2578  0.0372 -0.4676
  153OSM     NF17004   1.078   1.978   2.476 -0.5296  0.3349  0.0621
  153OSM    HNF17005   1.078   1.883   2.508  1.3091 -0.5009 -2.1550
  153OSM    C2S17006   0.955   2.054   2.474 -0.9639  0.0218 -0.5748
  153OSM    H2S17007   0.978   2.156   2.511  1.3703 -0.2368 -1.2101
  153OSM    C3S17008   0.840   2.005   2.560  0.3713  0.1192 -0.1930
  153OSM    H3S17009   0.815   1.900   2.533 -0.6671  0.3120 -0.0086
  153OSM     O317010   0.713   2.066   2.538 -0.7003 -0.0841 -0.5665
  153OSM    HO317011   0.742   2.127   2.470  1.6302 -1.4425 -0.8806
  153OSM    C4S17012   0.874   2.020   2.714 -0.5503  0.3476 -0.0695
  153OSM    H4S17013   0.871   2.125   2.746  1.6501 -0.0847  1.7917
  153OSM    C5S17014   0.890   1.921   2.803  0.0751  0.3357  0.3582
  153OSM    H5S17015   0.883   1.818   2.765  0.3531  1.0338 -1.7113
  153OSM    C6S17016   0.922   1.946   2.950  0.1810  0.5019  0.0715
  153OSM    H6S17017   0.915   2.053   2.977 -0.9341  0.7292 -1.0543
  153OSM    H6T17018   1.015   1.903   2.993  0.3793  0.9922  0.1368
  153OSM    C7S17019   0.813   1.860   3.025 -0.1202  0.1829  0.1765
  153OSM    H7S17020   0.823   1.753   2.997 -1.2460  0.4935 -1.5477
  153OSM    H7T17021   0.710   1.883   2.991  0.6852  2.7508 -0.7667
  153OSM    C8S17022   0.822   1.881   3.176 -0.8572  0.0110  0.1790
  153OSM    H8S17023   0.817   1.987   3.209  1.3589  0.9377 -2.1668
  153OSM    H8T17024   0.926   1.850   3.201 -1.2178  0.1555  1.9800
  153OSM    C9S17025   0.724   1.792   3.244 -0.0407 -0.1736 -0.2749
  153OSM    H9S17026   0.773   1.692   3.243  1.8745  0.7136  0.4842
  153OSM    H9T17027   0.625   1.773   3.195  1.1092 -1.4513 -2.2565
  153OSM   C10S17028   0.691   1.842   3.387  0.0937 -0.3082  0.1045
  153OSM   H10S17029   0.648   1.944   3.381 -1.0538 -0.8433 -1.4922
  153OSM   H10T17030   0.778   1.848   3.455 -2.1102 -0.9908  3.1958
  153OSM   C11S17031   0.575   1.756   3.451  0.7931  0.0124 -0.7967
  153OSM   H11S17032   0.601   1.649   3.436  1.3708  0.0324 -0.0126
  153OSM   H11T17033   0.484   1.787   3.395  0.3206  1.4445  0.6914
  153OSM   C12S17034   0.567   1.789   3.596  0.5506 -0.4859 -0.3686
  153OSM   H12S17035   0.541   1.896   3.614 -0.0436 -0.8483  1.0051
  153OSM   H12T17036   0.658   1.768   3.657  1.1243  0.5514 -0.8238
  153OSM   C13S17037   0.451   1.709   3.663 -0.0365  0.2400  0.4000
  153OSM   H13S17038   0.462   1.598   3.665 -0.0170  0.2085 -0.6531
  153OSM   H13T17039   0.353   1.730   3.616 -0.8209 -1.5927  1.1075
  153OSM   C14S17040   0.434   1.747   3.809 -0.0229 -0.8351 -0.4776
  153OSM   H14S17041   0.406   1.855   3.815 -2.1214 -1.3864  0.7742
  153OSM   H14T17042   0.524   1.739   3.874 -1.2094 -1.8928  1.1297
  153OSM   C15S17043   0.330   1.662   3.884  0.0860  0.3623 -0.0778
  153OSM   H15S17044   0.338   1.553   3.866 -0.6754 -0.0435  1.7611
  153OSM   H15T17045   0.227   1.692   3.853  0.3006  1.6910  0.4265
  153OSM   C16S17046   0.340   1.676   4.041 -0.7518  0.8670 -0.0169
  153OSM   H16S17047   0.387   1.772   4.071  2.3929  0.0208 -1.8245
  153OSM   H16T17048   0.408   1.594   4.071 -1.0389 -0.1605 -1.9819
  153OSM   C17S17049   0.208   1.670   4.113  0.1048 -0.4425  1.0441
  153OSM   H17S17050   0.142   1.587   4.084 -2.7548  0.2159  4.9465
  153OSM   H17T17051   0.147   1.761   4.096  0.5488  0.0490  1.9645
  153OSM   C18S17052   0.223   1.656   4.264  0.2534 -0.1749 -1.0675
  153OSM   H18S17053   0.116   1.669   4.291  0.1473  0.8003 -1.9053
  153OSM   H18T17054   0.282   1.734   4.317 -0.7001 -0.3224  0.2443
  153OSM   H18U17055   0.242   1.551   4.293  0.6142  0.4346  1.0468
  153OSM    C1F17056   1.198   2.028   2.440 -0.0882 -0.3215  0.2474
  153OSM     OF17057   1.217   2.138   2.382  0.3899  0.1292  0.3339
  153OSM    C2F17058   1.310   1.940   2.468 -1.0438  0.0407  0.5345
  153OSM    H2F17059   1.397   1.993   2.424 -1.7270 -0.6186 -1.7356
  153OSM    H2G17060   1.300   1.844   2.413  3.2713 -0.4942  0.3531
  153OSM    C3F17061   1.338   1.904   2.617 -0.1066  0.2587  0.4306
  153OSM    H3F17062   1.422   1.833   2.604  0.4445  1.2117 -1.5920
  153OSM    H3G17063   1.246   1.856   2.656 -0.7012  0.4906 -0.6662
  153OSM    C4F17064   1.389   2.021   2.707  0.1683 -0.2337  0.4293
  153OSM    H4F17065   1.321   2.109   2.706 -1.3340 -1.3615 -0.5690
  153OSM    H4G17066   1.489   2.058   2.675  0.4884  0.6171  2.2365
  153OSM    C5F17067   1.423   1.985   2.853  0.4479 -0.3092 -0.0114
  153OSM    H5F17068   1.486   2.064   2.899 -0.0428  0.9004 -1.3481
  153OSM    H5G17069   1.479   1.889   2.857  2.2755  0.6738 -0.7287
  153OSM    C6F17070   1.295   1.988   2.948  0.3684  0.4089 -0.9536
  153OSM    H6F17071   1.250   1.887   2.938  0.2243  0.1518  1.5263
  153OSM    H6G17072   1.220   2.056   2.903 -1.2605 -1.2733 -0.8442
  153OSM    C7F17073   1.342   2.019   3.091 -0.5750 -0.0125 -0.0487
  153OSM    H7F17074   1.373   2.126   3.088  2.2870 -0.7596 -0.9445
  153OSM    H7G17075   1.441   1.969   3.099  0.9276  2.5184 -1.5048
  153OSM    C8F17076   1.254   1.975   3.208  0.1174  0.2323  0.3447
  153OSM    H8F17077   1.218   1.870   3.199 -0.6799  0.4686  0.6315
  153OSM    H8G17078   1.166   2.044   3.209  0.2182  0.4176 -1.3238
  153OSM    C9F17079   1.331   1.985   3.345  0.2771  0.0202 -0.0414
  153OSM    H9F17080   1.440   2.002   3.337  0.8594 -2.7640  0.7947
  153OSM   C10F17081   1.278   1.993   3.468  0.4509  0.0791 -0.1527
  153OSM   H10F17082   1.344   1.998   3.556 -1.3985 -1.1886  1.3740
  153OSM   C11F17083   1.130   1.981   3.493  0.0068 -0.5224  0.5194
  153OSM   H11F17084   1.105   1.876   3.469 -0.8976 -0.4022  0.8991
  153OSM   H11G17085   1.066   2.042   3.426  0.5684  1.2248  1.4934
  153OSM   C12F17086   1.092   2.024   3.636 -0.1457 -0.1949 -0.0840
  153OSM   H12F17087   1.094   2.135   3.640 -0.5743 -0.1970  0.3004
  153OSM   H12G17088   1.156   1.966   3.707 -2.1267 -0.6969  1.3944
  153OSM   C13F17089   0.953   1.972   3.673  0.5215 -0.5566  0.3119
  153OSM   H13F17090   0.949   1.863   3.656 -0.2635 -0.4737 -0.1077
  153OSM   H13G17091   0.890   2.009   3.589  2.2518  0.1006 -0.7521
  153OSM   C14F17092   0.893   2.008   3.808 -0.8064 -0.1918  0.3509
  153OSM   H14F17093   0.813   2.084   3.795 -1.0189 -0.5559 -0.5229
  153OSM   H14G17094   0.979   2.047   3.866  0.3289  0.3833 -1.6038
  153OSM   C15F17095   0.835   1.896   3.892 -0.7480  0.4043 -0.0158
  153OSM   H15F17096   0.904   1.820   3.933  0.9156  2.4786  1.2181
  153OSM   H15G17097   0.762   1.842   3.827  1.5511 -2.7973 -0.1255
  153OSM   C16F17098   0.762   1.951   4.014  0.1441 -0.7837 -1.0864
  153OSM   H16F17099   0.671   2.007   3.985  0.0999 -0.2010  0.1312
  153OSM   H16G17100   0.817   2.033   4.065 -0.8258 -1.6566  1.5133
  153OSM   C17F17101   0.723   1.855   4.125 -0.2909  0.6018 -0.7699
  153OSM   H17F17102   0.812   1.800   4.163  0.7687  2.9865  0.3843
  153OSM   H17G17103   0.641   1.790   4.086  2.6735 -2.6080 -2.3141
  153OSM   C18F17104   0.663   1.936   4.242  1.4799  0.1153 -0.5562
  153OSM   H18F17105   0.554   1.939   4.224  1.2883 -0.6719  0.3588
  153OSM   H18G17106   0.709   2.037   4.234 -0.0995  1.0463  1.1453
  153OSM   H18H17107   0.669   1.884   4.341 -0.3303  1.8095  0.5203
  154OSM      N17108   0.317   6.832   1.777  0.3465  0.8372  0.2308
  154OSM    C1517109   0.438   6.805   1.702 -0.3393 -0.5523  0.8779
  154OSM   H15A17110   0.477   6.893   1.653 -0.7960  0.0767  1.6135
  154OSM   H15B17111   0.428   6.729   1.626  2.0133 -0.0352 -0.0286
  154OSM   H15C17112   0.520   6.780   1.767 -1.7193  0.1871  3.0265
  154OSM    C1417113   0.347   6.938   1.873 -0.0141  1.1915 -0.0502
  154OSM   H14A17114   0.393   7.017   1.817 -2.5398  0.7723 -3.0465
  154OSM   H14B17115   0.403   6.902   1.958 -1.1047 -0.2878  0.1036
  154OSM   H14C17116   0.252   6.976   1.908  0.3304  2.4055 -0.4033
  154OSM    C1317117   0.219   6.886   1.673  0.3049 -0.1735 -0.0447
  154OSM   H13A17118   0.125   6.894   1.725  0.9114 -0.4826  1.1294
  154OSM   H13B17119   0.199   6.820   1.589 -3.1136  0.6651 -0.0525
  154OSM   H13C17120   0.254   6.977   1.626 -0.3199 -0.3689 -0.9084
  154OSM    C1217121   0.274   6.701   1.844  0.0847 -0.5951  0.1727
  154OSM   H12A17122   0.363   6.663   1.892  0.9175 -0.5606 -1.2782
  154OSM   H12B17123   0.236   6.628   1.774 -1.6377  0.2715  0.1601
  154OSM    C1117124   0.153   6.713   1.938  0.5241  0.2343 -1.0322
  154OSM   H11A17125   0.167   6.783   2.023 -0.0016  0.3016 -1.0006
  154OSM   H11B17126   0.145   6.610   1.979  2.4646  0.9907  1.5689
  154OSM      P17127  -0.103   6.713   1.932  0.8940 -0.0058  0.4345
  154OSM    O1317128  -0.213   6.782   1.855 -0.1515  0.4447  0.2318
  154OSM    O1417129  -0.115   6.565   1.935 -0.2842  0.0180 -0.2377
  154OSM    O1117130  -0.094   6.777   2.075 -0.8048  0.2679  0.2744
  154OSM    O1217131   0.036   6.746   1.860  0.3862  0.0016  0.6263
  154OSM    C1S17132  -0.198   6.789   2.173 -0.1355 -0.3130 -0.4723
  154OSM    H1S17133  -0.235   6.689   2.203 -1.0953 -0.8297 -3.0901
  154OSM    H1T17134  -0.278   6.859   2.141  1.0218  1.3295  0.0801
  154OSM     NF17135  -0.225   6.826   2.429  0.1097  0.3266  0.0376
  154OSM    HNF17136  -0.250   6.903   2.487  2.8758  0.2979  1.4100
  154OSM    C2S17137  -0.138   6.839   2.309  0.2712 -0.7111  0.2212
  154OSM    H2S17138  -0.046   6.778   2.324  1.1509  0.5365  0.0252
  154OSM    C3S17139  -0.080   6.977   2.299  0.1575 -0.1967  0.1526
  154OSM    H3S17140  -0.165   7.049   2.296  0.2539 -0.0947 -0.1236
  154OSM     O317141   0.003   7.001   2.186  0.7040  0.4285  0.4796
  154OSM    HO317142  -0.018   6.928   2.127 -0.2660 -0.5190  1.9552
  154OSM    C4S17143  -0.000   7.014   2.425 -0.5402  0.7561 -0.3036
  154OSM    H4S17144  -0.067   7.028   2.511  0.4997 -1.2372  0.8962
  154OSM    C5S17145   0.132   7.024   2.442  0.7063 -0.0092  0.6210
  154OSM    H5S17146   0.209   7.003   2.366  2.4129 -1.1518  2.5591
  154OSM    C6S17147   0.189   7.059   2.575 -0.9648  0.2810 -0.2400
  154OSM    H6S17148   0.233   7.161   2.570  2.4020 -1.0605 -0.4139
  154OSM    H6T17149   0.279   6.995   2.586 -0.1997  1.6452  2.1843
  154OSM    C7S17150   0.118   7.058   2.711 -0.4349  0.3890 -0.2404
  154OSM    H7S17151   0.191   7.090   2.788 -1.2850  3.3935 -0.5410
  154OSM    H7T17152   0.076   6.958   2.735  1.7920 -0.7736 -0.9001
  154OSM    C8S17153  -0.004   7.148   2.737  1.0125 -0.4667  0.5035
  154OSM    H8S17154  -0.039   7.216   2.656 -1.2040  0.0692  1.8261
  154OSM    H8T17155   0.027   7.214   2.820  1.3610 -2.7844  2.3322
  154OSM    C9S17156  -0.128   7.069   2.788 -0.1689  0.8085 -0.3423
  154OSM    H9S17157  -0.154   6.993   2.711  1.3229 -1.5956  1.3727
  154OSM    H9T17158  -0.217   7.134   2.802 -1.1897 -0.3243 -1.2861
  154OSM   C10S17159  -0.115   6.999   2.930  0.1025  0.3589 -0.1834
  154OSM   H10S17160  -0.056   7.064   2.998  0.0925 -0.8774  1.0371
  154OSM   H10T17161  -0.045   6.914   2.916  1.9037  2.0189 -1.9634
  154OSM   C11S17162  -0.245   6.955   2.998  0.1764 -0.1300  0.3880
  154OSM   H11S17163  -0.309   6.919   2.915 -0.6262 -0.0963  0.9904
  154OSM   H11T17164  -0.292   7.039   3.053  0.6830 -0.3224  1.1386
  154OSM   C12S17165  -0.228   6.846   3.108 -0.4786 -0.4109 -0.4724
  154OSM   H12S17166  -0.198   6.747   3.068  0.8371 -0.4280  0.4794
  154OSM   H12T17167  -0.337   6.836   3.126 -0.5400  0.7700 -0.1380
  154OSM   C13S17168  -0.142   6.893   3.218  0.4234 -0.1773  0.0369
  154OSM   H13S17169  -0.186   6.989   3.250  2.1137  0.4233  0.6512
  154OSM   H13T17170  -0.036   6.919   3.197  1.2969 -2.0660  1.7078
  154OSM   C14S17171  -0.133   6.790   3.333 -0.1706 -0.7381  0.4705
  154OSM   H14S17172  -0.069   6.704   3.302  1.4873  0.0308  1.6129
  154OSM   H14T17173  -0.237   6.754   3.346 -0.8973  1.0172 -0.2809
  154OSM   C15S17174  -0.075   6.849   3.452 -0.1958 -0.2202 -0.5424
  154OSM   H15S17175  -0.100   6.957   3.460  1.8365  0.1830  1.6988
  154OSM   H15T17176   0.036   6.840   3.464 -0.1078  2.0025  1.0151
  154OSM   C16S17177  -0.113   6.777   3.582  0.8857 -0.5715 -0.1802
  154OSM   H16S17178  -0.069   6.677   3.596  0.4936 -0.7465 -0.1729
  154OSM   H16T17179  -0.224   6.786   3.584  0.9397  0.0447  1.2162
  154OSM   C17S17180  -0.066   6.870   3.699 -0.3662 -0.8164  0.5389
  154OSM   H17S17181  -0.075   6.976   3.669 -0.7229 -0.7295  0.9525
  154OSM   H17T17182   0.044   6.852   3.702 -0.0835  0.1654 -1.7467
  154OSM   C18S17183  -0.120   6.840   3.838 -0.1894 -0.2843 -0.4121
  154OSM   H18S17184  -0.088   6.738   3.870  0.4661 -0.1633 -0.6747
  154OSM   H18T17185  -0.230   6.844   3.854 -0.1518 -3.6822  1.8538
  154OSM   H18U17186  -0.075   6.917   3.904  2.5684 -1.3101 -0.9891
  154OSM    C1F17187  -0.260   6.703   2.469  0.1618  0.3276 -0.3942
  154OSM     OF17188  -0.222   6.598   2.413 -0.0049 -0.5285  0.5531
  154OSM    C2F17189  -0.323   6.705   2.603 -0.2524  0.1985  0.8730
  154OSM    H2F17190  -0.432   6.722   2.589  0.1350  0.5129 -2.8035
  154OSM    H2G17191  -0.266   6.764   2.677  0.4115 -0.6099  1.0276
  154OSM    C3F17192  -0.339   6.565   2.675 -0.2833  0.0045  0.4433
  154OSM    H3F17193  -0.243   6.509   2.679 -1.8487 -3.0023 -0.8895
  154OSM    H3G17194  -0.411   6.500   2.623 -0.7619 -0.4221  1.6136
  154OSM    C4F17195  -0.395   6.569   2.816 -0.0646  0.2137  0.0114
  154OSM    H4F17196  -0.494   6.617   2.799 -0.5192 -0.6393  0.1907
  154OSM    H4G17197  -0.325   6.631   2.876  0.2730  0.1713 -0.3328
  154OSM    C5F17198  -0.409   6.425   2.862 -0.6615 -0.8768 -0.0104
  154OSM    H5F17199  -0.305   6.386   2.854  0.1631  1.3083 -0.5946
  154OSM    H5G17200  -0.484   6.366   2.805 -1.3137 -0.6032  0.5427
  154OSM    C6F17201  -0.433   6.418   3.015  0.7693 -0.5333  0.3196
  154OSM    H6F17202  -0.470   6.314   3.025  0.7514 -0.5432  0.1468
  154OSM    H6G17203  -0.513   6.491   3.038 -0.7131 -1.1068 -2.5589
  154OSM    C7F17204  -0.319   6.451   3.113  0.1402 -0.3518 -0.3310
  154OSM    H7F17205  -0.305   6.561   3.103  0.3748 -0.5137 -2.2229
  154OSM    H7G17206  -0.228   6.405   3.068  0.9703  0.3311  0.6020
  154OSM    C8F17207  -0.337   6.406   3.258 -0.2743 -0.3448  0.1833
  154OSM    H8F17208  -0.245   6.436   3.313 -1.7870  1.0619  2.0850
  154OSM    H8G17209  -0.362   6.298   3.255 -1.9166 -0.0343  1.3741
  154OSM    C9F17210  -0.441   6.489   3.337 -0.5814 -0.1875 -0.2687
  154OSM    H9F17211  -0.406   6.592   3.351  0.3393 -0.6806  1.2692
  154OSM   C10F17212  -0.542   6.439   3.414 -0.1907 -0.3632 -0.0123
  154OSM   H10F17213  -0.613   6.494   3.478  0.1119 -0.3675  0.3277
  154OSM   C11F17214  -0.579   6.295   3.424  0.1535 -0.3636 -0.3348
  154OSM   H11F17215  -0.491   6.233   3.395  0.3656  0.0078 -0.4843
  154OSM   H11G17216  -0.665   6.280   3.356 -1.5216  2.5974  0.9361
  154OSM   C12F17217  -0.629   6.260   3.564  0.7483  0.8350 -0.5636
  154OSM   H12F17218  -0.557   6.303   3.637  1.1058  1.5877 -1.3333
  154OSM   H12G17219  -0.632   6.149   3.564 -1.7563  0.8487 -1.6690
  154OSM   C13F17220  -0.765   6.314   3.598  0.6124  0.9358  0.0088
  154OSM   H13F17221  -0.830   6.296   3.510 -1.4265 -0.2016  1.6532
  154OSM   H13G17222  -0.754   6.424   3.612  0.1184  1.1047 -0.8850
  154OSM   C14F17223  -0.826   6.274   3.727 -0.0006  0.2051  0.1115
  154OSM   H14F17224  -0.749   6.255   3.805  1.2847 -0.3953 -1.2513
  154OSM   H14G17225  -0.862   6.171   3.705 -1.5383  0.5315  0.9470
  154OSM   C15F17226  -0.935   6.357   3.779 -0.0418  0.4400 -0.2054
  154OSM   H15F17227  -1.035   6.310   3.767  1.0305 -1.6190 -1.6294
  154OSM   H15G17228  -0.940   6.456   3.727  0.4836  0.7210  0.2774
  154OSM   C16F17229  -0.921   6.387   3.933 -0.4685 -0.2422  0.2987
  154OSM   H16F17230  -0.825   6.430   3.966  0.2487 -0.5812 -1.2792
  154OSM   H16G17231  -0.922   6.290   3.988  1.7123  0.4780  1.7401
  154OSM   C17F17232  -1.028   6.469   3.982 -0.5770  0.1373  0.4996
  154OSM   H17F17233  -1.122   6.449   3.925 -0.6316  0.4741  0.4649
  154OSM   H17G17234  -1.002   6.575   3.962 -0.3565  0.1205  0.7025
  154OSM   C18F17235  -1.084   6.445   4.120  0.5227  0.0345 -0.5664
  154OSM   H18F17236  -1.165   6.515   4.148 -0.3699 -1.7344  1.6524
  154OSM   H18G17237  -0.998   6.445   4.192 -1.8956 -2.7198  2.6686
  154OSM   H18H17238  -1.132   6.345   4.117  0.8823 -0.1127 -3.0279
  155OSM      N17239   3.328   3.474   1.826  0.6546  0.5105 -0.0400
  155OSM    C1517240   3.378   3.409   1.701 -0.0743 -0.2597 -0.1833
  155OSM   H15A17241   3.327   3.450   1.615 -0.3716 -1.2698 -0.4987
  155OSM   H15B17242   3.356   3.304   1.701 -1.7147  0.0530  0.3750
  155OSM   H15C17243   3.483   3.427   1.683 -0.4940  3.7545  0.4570
  155OSM    C1417244   3.356   3.625   1.829 -0.1053  0.4854  0.5602
  155OSM   H14A17245   3.461   3.648   1.833  0.5780 -1.6487 -2.2946
  155OSM   H14B17246   3.324   3.668   1.923  0.8670 -0.2311  1.2439
  155OSM   H14C17247   3.306   3.682   1.752 -1.5473 -2.1110 -0.5391
  155OSM    C1317248   3.180   3.465   1.844  0.0105 -1.0769  0.1717
  155OSM   H13A17249   3.145   3.475   1.946 -0.1605  0.6179 -0.0211
  155OSM   H13B17250   3.152   3.364   1.818  0.0849 -1.4437  1.4525
  155OSM   H13C17251   3.133   3.535   1.777  0.8210 -1.1054 -0.4520
  155OSM    C1217252   3.397   3.401   1.945  0.5539  0.3425 -0.1118
  155OSM   H12A17253   3.501   3.379   1.924  0.7381 -0.0100  1.1138
  155OSM   H12B17254   3.352   3.304   1.963 -0.2133  1.0477  2.1248
  155OSM    C1117255   3.400   3.471   2.087  0.3212 -0.1012 -0.2953
  155OSM   H11A17256   3.433   3.577   2.094 -0.0159 -0.0883  3.5912
  155OSM   H11B17257   3.466   3.414   2.156 -1.2941 -2.4667 -0.6105
  155OSM      P17258   3.218   3.319   2.199 -0.0258 -0.4201  0.2200
  155OSM    O1317259   3.075   3.346   2.234 -0.3102 -0.0056 -0.6599
  155OSM    O1417260   3.242   3.213   2.102  0.1614 -0.0687  0.5976
  155OSM    O1117261   3.309   3.307   2.325 -0.5740 -0.2380  0.4158
  155OSM    O1217262   3.270   3.462   2.146  1.2888  0.1271  0.1263
  155OSM    C1S17263   3.335   3.417   2.412  0.4564 -0.5472  0.4833
  155OSM    H1S17264   3.259   3.494   2.387 -1.0256 -2.4619 -1.3740
  155OSM    H1T17265   3.439   3.453   2.400  0.3078  0.3898  1.8269
  155OSM     NF17266   3.320   3.466   2.652 -0.0087 -0.2989  0.4029
  155OSM    HNF17267   3.398   3.495   2.707  0.4261 -0.5726 -0.0571
  155OSM    C2S17268   3.330   3.358   2.557  0.0289  0.3079  0.0925
  155OSM    H2S17269   3.237   3.297   2.561 -0.0717  0.5034  0.8831
  155OSM    C3S17270   3.451   3.265   2.586 -0.7605 -0.3212 -0.6823
  155OSM    H3S17271   3.544   3.324   2.573 -0.7311  0.0249  0.8867
  155OSM     O317272   3.462   3.159   2.490 -0.2216 -0.2148 -0.3924
  155OSM    HO317273   3.411   3.189   2.414 -0.5538  0.1887 -0.0159
  155OSM    C4S17274   3.453   3.198   2.728 -0.2208 -0.5054 -0.1434
  155OSM    H4S17275   3.393   3.106   2.732  1.7830 -1.9931 -1.7603
  155OSM    C5S17276   3.515   3.231   2.845  0.3429  0.4268  1.0662
  155OSM    H5S17277   3.573   3.325   2.850 -0.2247  0.7167  3.2072
  155OSM    C6S17278   3.515   3.153   2.974 -0.0334  0.5490  0.1340
  155OSM    H6S17279   3.622   3.135   3.001 -0.1560  0.8632  0.8551
  155OSM    H6T17280   3.459   3.058   2.964  1.4968 -0.7888  2.8722
  155OSM    C7S17281   3.461   3.239   3.082 -0.3324 -0.1416  0.4142
  155OSM    H7S17282   3.354   3.267   3.076 -1.2403 -1.9553  4.5878
  155OSM    H7T17283   3.499   3.343   3.085 -0.8705  0.1201 -0.9938
  155OSM    C8S17284   3.472   3.174   3.218 -0.4137 -0.7872  0.1798
  155OSM    H8S17285   3.579   3.166   3.248 -0.7412 -1.3590  1.2489
  155OSM    H8T17286   3.423   3.074   3.223 -0.9005 -0.6052 -0.7071
  155OSM    C9S17287   3.405   3.252   3.331  0.0264  0.1161  0.2643
  155OSM    H9S17288   3.296   3.231   3.316  0.3545 -1.8241  0.3782
  155OSM    H9T17289   3.434   3.359   3.331 -0.2411  0.1914  0.0066
  155OSM   C10S17290   3.439   3.190   3.467 -0.3871 -0.2707 -0.5477
  155OSM   H10S17291   3.548   3.171   3.472 -0.7391 -2.3516  0.3019
  155OSM   H10T17292   3.397   3.088   3.475 -0.9982  0.0233  0.1372
  155OSM   C11S17293   3.395   3.272   3.594 -0.5321 -0.6021 -0.1719
  155OSM   H11S17294   3.284   3.267   3.598 -0.5611 -0.8335 -1.1182
  155OSM   H11T17295   3.423   3.378   3.572  0.4455 -1.1071 -1.5017
  155OSM   C12S17296   3.459   3.224   3.722 -0.4878 -0.4737 -0.0849
  155OSM   H12S17297   3.570   3.224   3.711 -0.5750  1.9058 -1.7138
  155OSM   H12T17298   3.423   3.120   3.731  1.6714 -1.2603  0.0568
  155OSM   C13S17299   3.435   3.308   3.851 -0.0071  0.6044  0.2837
  155OSM   H13S17300   3.326   3.326   3.859  0.4912  3.8182  1.0634
  155OSM   H13T17301   3.488   3.401   3.823  1.6455 -0.6653 -1.1162
  155OSM   C14S17302   3.495   3.240   3.976 -0.2667 -0.0791 -0.6115
  155OSM   H14S17303   3.606   3.250   3.973 -0.4138  1.6212 -1.4716
  155OSM   H14T17304   3.457   3.136   3.987 -1.0141  0.3808  1.6128
  155OSM   C15S17305   3.446   3.334   4.091 -1.2049  0.1953 -0.0768
  155OSM   H15S17306   3.337   3.318   4.110 -1.3899  1.4669  0.0124
  155OSM   H15T17307   3.468   3.440   4.066  0.3488  0.1412  0.9097
  155OSM   C16S17308   3.513   3.308   4.224 -0.1950 -0.2917  0.7245
  155OSM   H16S17309   3.623   3.309   4.207 -0.1956  0.4152  0.7505
  155OSM   H16T17310   3.489   3.204   4.257  0.9120 -0.9240 -0.3839
  155OSM   C17S17311   3.483   3.416   4.323  0.4769 -0.3530  0.7869
  155OSM   H17S17312   3.374   3.411   4.342  0.1270  1.7270 -0.2853
  155OSM   H17T17313   3.528   3.510   4.282 -0.3126 -1.7989 -3.9680
  155OSM   C18S17314   3.540   3.393   4.462 -0.4039 -0.0897  0.7090
  155OSM   H18S17315   3.520   3.482   4.526 -0.1766 -0.0521  0.7287
  155OSM   H18T17316   3.651   3.389   4.453 -0.1595  2.9829  1.0569
  155OSM   H18U17317   3.500   3.305   4.515  1.8398 -1.3084  0.4715
  155OSM    C1F17318   3.209   3.541   2.659  0.2312  0.5049  0.3127
  155OSM     OF17319   3.114   3.510   2.586 -0.4894  0.0406 -0.0611
  155OSM    C2F17320   3.217   3.659   2.757  0.5184  0.1168 -0.4359
  155OSM    H2F17321   3.205   3.753   2.699  1.1350 -0.2224 -1.1265
  155OSM    H2G17322   3.317   3.652   2.804  0.4535  1.2795 -0.0989
  155OSM    C3F17323   3.101   3.658   2.868  0.3066  0.1615 -0.7675
  155OSM    H3F17324   3.112   3.558   2.916 -1.7188  1.1660  2.0716
  155OSM    H3G17325   3.000   3.658   2.823  0.1952  1.6567 -0.5470
  155OSM    C4F17326   3.133   3.755   2.982  0.7852  0.4868  0.3840
  155OSM    H4F17327   3.152   3.856   2.939 -2.5255  1.4852  0.9850
  155OSM    H4G17328   3.226   3.720   3.032  0.3353 -0.0211  0.8714
  155OSM    C5F17329   3.017   3.772   3.082  0.1059 -0.3431 -0.6536
  155OSM    H5F17330   2.988   3.669   3.110 -1.0253  0.4841  1.3716
  155OSM    H5G17331   2.924   3.821   3.043  0.2569 -0.8249 -1.6698
  155OSM    C6F17332   3.064   3.862   3.197 -0.2231  0.4739 -0.8206
  155OSM    H6F17333   3.060   3.970   3.171 -2.2581  0.6258 -0.0598
  155OSM    H6G17334   3.170   3.831   3.212  0.8294  3.1598 -2.1293
  155OSM    C7F17335   2.991   3.830   3.328  0.0199  0.3727 -0.3565
  155OSM    H7F17336   3.024   3.725   3.347  1.1536  0.5080 -1.4415
  155OSM    H7G17337   2.883   3.831   3.299  0.1411  0.6523 -0.8065
  155OSM    C8F17338   3.035   3.909   3.444  0.5655 -0.1178 -0.1453
  155OSM    H8F17339   3.143   3.887   3.456  0.8863  0.8132 -1.1694
  155OSM    H8G17340   2.991   3.869   3.538  1.1484 -0.4944 -0.0298
  155OSM    C9F17341   3.003   4.057   3.430 -0.9817 -0.4152  0.4956
  155OSM    H9F17342   2.907   4.069   3.376 -1.9448 -0.2663  2.1807
  155OSM   C10F17343   3.088   4.161   3.440 -0.5466 -0.3105  0.2053
  155OSM   H10F17344   3.060   4.263   3.410  3.2551  1.2108  1.2954
  155OSM   C11F17345   3.231   4.143   3.476  0.6064 -0.5749 -0.1357
  155OSM   H11F17346   3.281   4.223   3.417  0.2765  1.0287  1.6819
  155OSM   H11G17347   3.271   4.046   3.441 -1.0516 -1.2927 -0.1534
  155OSM   C12F17348   3.239   4.176   3.629  0.5754  0.1675  0.4578
  155OSM   H12F17349   3.328   4.124   3.670  1.2057  0.6562 -0.2479
  155OSM   H12G17350   3.150   4.138   3.682 -0.1594 -0.0707 -0.9025
  155OSM   C13F17351   3.233   4.324   3.652 -0.2071 -0.2039 -0.3074
  155OSM   H13F17352   3.134   4.356   3.614 -0.3731 -1.5490 -1.0840
  155OSM   H13G17353   3.303   4.374   3.582 -0.2767  2.6511  1.5089
  155OSM   C14F17354   3.259   4.367   3.796 -0.2527  0.0455  0.3937
  155OSM   H14F17355   3.290   4.473   3.782  3.5761 -0.4373  3.4601
  155OSM   H14G17356   3.352   4.319   3.834  0.5716  1.6860  0.5445
  155OSM   C15F17357   3.146   4.344   3.897 -0.1658  0.2270  0.3625
  155OSM   H15F17358   3.121   4.236   3.902 -1.8079  0.5678 -0.0284
  155OSM   H15G17359   3.054   4.392   3.857 -1.6402 -3.0890 -0.6077
  155OSM   C16F17360   3.167   4.414   4.037  0.4003 -0.4805 -0.2512
  155OSM   H16F17361   3.269   4.384   4.070  0.1404 -2.6370 -1.1957
  155OSM   H16G17362   3.090   4.370   4.104  0.1319 -0.0316 -0.2598
  155OSM   C17F17363   3.148   4.571   4.048 -0.1011  0.8438  0.5399
  155OSM   H17F17364   3.065   4.590   3.976  0.9189  1.4640 -0.5118
  155OSM   H17G17365   3.241   4.622   4.013 -0.1597 -0.0193 -0.9496
  155OSM   C18F17366   3.107   4.625   4.181  1.0425 -1.0280  0.1234
  155OSM   H18F17367   3.176   4.589   4.261  1.2042  0.3298  0.6212
  155OSM   H18G17368   3.007   4.586   4.209  1.2366  0.0173  2.5347
  155OSM   H18H17369   3.101   4.732   4.210  0.1743 -0.9990 -0.1438
  156OSM      N17370   4.708   1.590   2.271  0.4520 -0.4326  0.1726
  156OSM    C1517371   4.767   1.467   2.216 -0.0012 -0.2170 -0.6045
  156OSM   H15A17372   4.875   1.468   2.224 -0.0682  1.3524  0.3107
  156OSM   H15B17373   4.744   1.461   2.110  0.7952  0.8553 -0.8520
  156OSM   H15C17374   4.725   1.384   2.270 -0.9579  0.7086  0.1103
  156OSM    C1417375   4.558   1.582   2.257 -0.0771 -0.4755 -0.0219
  156OSM   H14A17376   4.518   1.491   2.299 -0.7154  0.6361  1.9205
  156OSM   H14B17377   4.526   1.574   2.154  2.1759 -0.0192 -0.8200
  156OSM   H14C17378   4.504   1.664   2.302  0.2513 -0.4485  0.3302
  156OSM    C1317379   4.741   1.598   2.418 -0.5157 -0.0686 -0.2840
  156OSM   H13A17380   4.669   1.654   2.476 -0.0132  1.1997 -0.8569
  156OSM   H13B17381   4.840   1.636   2.437 -0.8338  0.5592  0.1349
  156OSM   H13C17382   4.740   1.499   2.460 -4.4890  0.1682  0.5656
  156OSM    C1217383   4.752   1.715   2.187  0.5756 -0.2609  0.0613
  156OSM   H12A17384   4.719   1.699   2.086 -2.6736  0.9869  0.7817
  156OSM   H12B17385   4.860   1.722   2.184  0.6362 -1.4607 -1.5100
  156OSM    C1117386   4.712   1.859   2.236 -0.3645  0.7236 -0.1813
  156OSM   H11A17387   4.743   1.875   2.342 -1.1348 -0.0088  0.1611
  156OSM   H11B17388   4.601   1.864   2.238 -0.4840 -0.9503 -0.6596
  156OSM      P17389   4.920   2.007   2.168  0.1837  0.0107 -0.1603
  156OSM    O1317390   5.016   1.906   2.111  0.3178 -0.5237  0.0387
  156OSM    O1417391   4.913   2.147   2.121 -0.0140 -0.4656  0.5251
  156OSM    O1117392   4.959   2.009   2.318  0.3781 -0.7255 -0.2053
  156OSM    O1217393   4.772   1.956   2.152  0.4390  0.3627 -0.2733
  156OSM    C1S17394   4.886   2.099   2.404  0.4227  0.8020  0.4767
  156OSM    H1S17395   4.780   2.066   2.414 -0.1806  2.6269  0.3429
  156OSM    H1T17396   4.888   2.203   2.367  2.0510  0.2192 -1.2489
  156OSM     NF17397   4.864   2.170   2.631 -0.3294  0.1047 -0.1248
  156OSM    HNF17398   4.902   2.258   2.658  0.0534 -0.7249  2.3485
  156OSM    C2S17399   4.951   2.097   2.543 -0.3201  0.5154  0.3030
  156OSM    H2S17400   4.960   1.993   2.581 -0.5443  1.9004  4.6230
  156OSM    C3S17401   5.100   2.151   2.521  0.3443  0.0715 -0.0641
  156OSM    H3S17402   5.090   2.260   2.499  0.4908  0.4621  1.6540
  156OSM     O317403   5.178   2.101   2.410 -0.5728  0.5352 -0.5188
  156OSM    HO317404   5.114   2.044   2.368 -0.9750  1.2548 -0.9004
  156OSM    C4S17405   5.182   2.136   2.652  0.0706 -0.2522 -0.3224
  156OSM    H4S17406   5.181   2.231   2.707  2.2351 -0.2506 -0.1761
  156OSM    C5S17407   5.262   2.046   2.702 -0.4037 -0.6008  0.1325
  156OSM    H5S17408   5.293   1.961   2.640  2.3318 -0.3841  1.0562
  156OSM    C6S17409   5.342   2.060   2.831  0.4361  0.6411 -0.3123
  156OSM    H6S17410   5.446   2.095   2.822  0.5594  0.4261  0.1914
  156OSM    H6T17411   5.352   1.959   2.877  0.5277  0.4739 -0.6971
  156OSM    C7S17412   5.269   2.142   2.935 -0.1476  0.3325 -0.0774
  156OSM    H7S17413   5.163   2.108   2.942 -0.5741  1.4871 -0.7050
  156OSM    H7T17414   5.253   2.244   2.894 -2.0401 -0.0080 -0.2780
  156OSM    C8S17415   5.334   2.131   3.072 -1.1373  0.6513  0.4140
  156OSM    H8S17416   5.437   2.166   3.046 -1.1231 -0.1508 -0.6819
  156OSM    H8T17417   5.344   2.030   3.116 -0.0240  2.0226  3.6598
  156OSM    C9S17418   5.275   2.223   3.180 -0.2374 -0.2678  0.3475
  156OSM    H9S17419   5.168   2.196   3.177  0.1132 -1.7239 -2.6934
  156OSM    H9T17420   5.281   2.328   3.146 -1.5866  0.3299  1.8299
  156OSM   C10S17421   5.348   2.199   3.313  0.0078 -0.0871  0.0238
  156OSM   H10S17422   5.456   2.218   3.294 -0.5142  0.2570 -3.3643
  156OSM   H10T17423   5.340   2.092   3.340  0.2604 -0.2214 -0.4210
  156OSM   C11S17424   5.287   2.286   3.419 -0.4001  0.2019  0.0054
  156OSM   H11S17425   5.180   2.307   3.398 -0.6887  0.7988  1.9265
  156OSM   H11T17426   5.348   2.378   3.429 -2.9614  1.9681  0.4116
  156OSM   C12S17427   5.292   2.214   3.552  0.3800 -0.5556 -0.2156
  156OSM   H12S17428   5.398   2.203   3.582  1.2268  2.2826 -1.7533
  156OSM   H12T17429   5.253   2.111   3.539 -1.6600  0.1304  0.2078
  156OSM   C13S17430   5.207   2.284   3.654  0.0338 -0.1729 -0.1764
  156OSM   H13S17431   5.122   2.342   3.611 -0.9240  0.0961  1.9853
  156OSM   H13T17432   5.267   2.360   3.708 -1.9327 -0.0543  1.9928
  156OSM   C14S17433   5.140   2.186   3.748  0.1284  0.3609 -0.2997
  156OSM   H14S17434   5.219   2.137   3.808  1.7000 -0.5757 -2.9527
  156OSM   H14T17435   5.097   2.109   3.680  1.1774  1.0288 -1.7861
  156OSM   C15S17436   5.033   2.238   3.832  0.2038  0.0198 -0.4936
  156OSM   H15S17437   4.941   2.261   3.773  1.7983  1.3637 -2.6151
  156OSM   H15T17438   5.066   2.333   3.879  0.8066 -1.0496  1.3030
  156OSM   C16S17439   5.007   2.151   3.961  0.5853  0.4147  0.2289
  156OSM   H16S17440   5.100   2.169   4.019  1.4060  1.6714 -1.3946
  156OSM   H16T17441   4.994   2.042   3.944  1.4495  0.5620 -1.6836
  156OSM   C17S17442   4.875   2.185   4.024 -0.4767  0.5349  0.2591
  156OSM   H17S17443   4.851   2.114   4.106 -0.4893  1.0093  0.6672
  156OSM   H17T17444   4.805   2.164   3.941  0.9834 -2.0049 -0.4593
  156OSM   C18S17445   4.869   2.327   4.084 -0.2223  0.1916  0.4574
  156OSM   H18S17446   4.946   2.338   4.164 -0.8353  2.6215  0.7991
  156OSM   H18T17447   4.765   2.349   4.118  0.4528  1.3877  1.8972
  156OSM   H18U17448   4.892   2.401   4.004 -0.2675 -0.6025 -0.2995
  156OSM    C1F17449   4.750   2.122   2.675  0.1883 -0.4200 -0.7651
  156OSM     OF17450   4.692   2.030   2.618 -0.0512  0.2523  0.2431
  156OSM    C2F17451   4.696   2.182   2.799 -0.4678 -0.6032 -0.4711
  156OSM    H2F17452   4.704   2.293   2.792  0.3870 -0.7555 -4.1008
  156OSM    H2G17453   4.769   2.153   2.877  0.2621  1.8722 -0.1416
  156OSM    C3F17454   4.549   2.138   2.812 -0.5658 -0.1584  0.3142
  156OSM    H3F17455   4.539   2.029   2.830  0.0843 -0.4749 -1.1114
  156OSM    H3G17456   4.507   2.158   2.711 -0.7741 -1.8358  0.0444
  156OSM    C4F17457   4.458   2.200   2.917  0.1790 -0.3426  0.2275
  156OSM    H4F17458   4.352   2.195   2.883  0.5786  1.5016 -1.4956
  156OSM    H4G17459   4.476   2.310   2.927  5.6754 -1.0252  0.9305
  156OSM    C5F17460   4.474   2.141   3.059 -0.6785 -0.0275 -0.2987
  156OSM    H5F17461   4.582   2.123   3.076 -0.4318 -1.3783 -2.7036
  156OSM    H5G17462   4.426   2.041   3.045 -2.1372  0.6281 -0.1308
  156OSM    C6F17463   4.405   2.229   3.167  0.9919 -0.0487 -0.6549
  156OSM    H6F17464   4.295   2.220   3.154  0.5010  0.7243  2.2496
  156OSM    H6G17465   4.417   2.338   3.148 -1.3410  0.0527 -1.9086
  156OSM    C7F17466   4.446   2.204   3.319 -0.0301 -0.0910  0.3389
  156OSM    H7F17467   4.402   2.288   3.377 -0.1754  0.7954 -1.0104
  156OSM    H7G17468   4.557   2.208   3.321 -0.0733  2.1975  0.3440
  156OSM    C8F17469   4.383   2.077   3.371  0.8911  0.3780 -0.3882
  156OSM    H8F17470   4.443   2.032   3.452 -0.1941  1.3108  0.9846
  156OSM    H8G17471   4.392   2.006   3.285 -0.1272  1.7704 -1.7064
  156OSM    C9F17472   4.238   2.095   3.410  0.7030 -0.0189  0.2405
  156OSM    H9F17473   4.173   2.161   3.350 -2.2156 -0.1399  2.9679
  156OSM   C10F17474   4.189   2.043   3.529 -0.1939  0.8071 -0.2627
  156OSM   H10F17475   4.088   2.070   3.562  0.7227  0.6009  3.0139
  156OSM   C11F17476   4.267   1.986   3.649  0.1181  0.3755  0.5491
  156OSM   H11F17477   4.322   1.894   3.618  1.2813  1.2229  0.0201
  156OSM   H11G17478   4.200   1.937   3.722 -0.8495 -2.0651 -1.7756
  156OSM   C12F17479   4.363   2.080   3.724 -0.0822 -0.6284 -0.1670
  156OSM   H12F17480   4.418   2.151   3.659  1.7421 -0.0292  1.9209
  156OSM   H12G17481   4.443   2.022   3.776  1.5058  0.0451 -1.7684
  156OSM   C13F17482   4.277   2.174   3.812  0.2327 -0.2822  0.2034
  156OSM   H13F17483   4.202   2.106   3.859 -0.2836 -1.6682 -2.3930
  156OSM   H13G17484   4.217   2.232   3.738  0.1762 -2.1119 -1.2823
  156OSM   C14F17485   4.355   2.247   3.921  0.3969  0.5727  0.1726
  156OSM   H14F17486   4.432   2.290   3.853 -1.5441  2.3478 -1.0155
  156OSM   H14G17487   4.405   2.172   3.987  1.4417  0.5012 -0.6680
  156OSM   C15F17488   4.274   2.348   4.007  0.3829  0.4480  0.3954
  156OSM   H15F17489   4.181   2.311   4.056  0.7250  0.7835  1.3391
  156OSM   H15G17490   4.237   2.432   3.945  0.4079  3.1667  3.7429
  156OSM   C16F17491   4.374   2.414   4.104  0.6401 -0.0172 -0.0121
  156OSM   H16F17492   4.466   2.463   4.066  0.5634  0.6670  0.6536
  156OSM   H16G17493   4.411   2.330   4.167  1.7888  0.5846  0.1426
  156OSM   C17F17494   4.291   2.519   4.180  0.2403  0.1729  0.0156
  156OSM   H17F17495   4.190   2.476   4.196  0.1475  0.3515 -0.0904
  156OSM   H17G17496   4.287   2.610   4.116 -0.0640 -0.5115 -0.9654
  156OSM   C18F17497   4.336   2.565   4.321 -0.4244 -0.1794 -0.2378
  156OSM   H18F17498   4.256   2.594   4.391  0.8825 -1.8284  2.0714
  156OSM   H18G17499   4.411   2.647   4.311 -0.0300 -0.6634 -1.5273
  156OSM   H18H17500   4.381   2.473   4.365  2.2440  0.7521 -0.8035
  157OSM      N17501   5.717   2.540   2.134  0.5880 -0.0275 -0.8129
  157OSM    C1517502   5.811   2.448   2.060  0.4549 -0.1642 -0.2156
  157OSM   H15A17503   5.760   2.381   1.992  1.3186 -1.0228 -0.0303
  157OSM   H15B17504   5.870   2.387   2.126  1.9616 -2.0096 -3.0737
  157OSM   H15C17505   5.871   2.509   1.994 -1.9676 -0.0645 -2.5526
  157OSM    C1417506   5.623   2.466   2.232 -0.7068  0.1116  0.5622
  157OSM   H14A17507   5.675   2.411   2.309 -1.1800 -0.1234  0.7205
  157OSM   H14B17508   5.551   2.404   2.182  0.8419  0.0817 -1.7606
  157OSM   H14C17509   5.559   2.533   2.288  0.6301  0.0209  2.2964
  157OSM    C1317510   5.801   2.630   2.224 -0.2666 -0.0501 -0.3660
  157OSM   H13A17511   5.867   2.570   2.285  0.0380  0.3713 -0.2795
  157OSM   H13B17512   5.745   2.697   2.287 -2.1423 -1.4620 -0.4256
  157OSM   H13C17513   5.868   2.693   2.168 -0.5615 -0.2209 -0.9155
  157OSM    C1217514   5.631   2.623   2.043 -0.0517 -0.3924  0.1734
  157OSM   H12A17515   5.697   2.683   1.982  0.1164  0.4620  1.1655
  157OSM   H12B17516   5.564   2.697   2.084 -0.2483 -1.0051  0.9964
  157OSM    C1117517   5.532   2.540   1.954  0.4907 -0.3864 -0.3213
  157OSM   H11A17518   5.582   2.449   1.913 -0.9240 -1.4128  0.1653
  157OSM   H11B17519   5.493   2.596   1.866 -1.1235  0.7760  1.0830
  157OSM      P17520   5.288   2.542   2.073  0.0845  0.2706 -0.0642
  157OSM    O1317521   5.205   2.562   1.954 -0.0389  0.0634 -0.8803
  157OSM    O1417522   5.232   2.453   2.173 -0.1272  0.0183 -0.9127
  157OSM    O1117523   5.329   2.679   2.140 -0.9493  0.1242 -0.5859
  157OSM    O1217524   5.428   2.480   2.030 -0.6782  0.2486 -0.0322
  157OSM    C1S17525   5.231   2.750   2.218  0.3026  0.3268 -0.4908
  157OSM    H1S17526   5.126   2.721   2.195 -0.9659  1.9812  2.6232
  157OSM    H1T17527   5.248   2.858   2.201 -1.0551  0.8866  1.3492
  157OSM     NF17528   5.158   2.818   2.453 -0.5694  0.6185 -0.1259
  157OSM    HNF17529   5.181   2.902   2.502 -2.7936  1.6290 -0.6752
  157OSM    C2S17530   5.256   2.748   2.373  0.4496 -0.8829  0.0767
  157OSM    H2S17531   5.248   2.639   2.395 -0.3570 -0.9913 -0.6706
  157OSM    C3S17532   5.400   2.801   2.396 -0.6668  0.6797 -0.6166
  157OSM    H3S17533   5.400   2.912   2.391  0.3461  0.7410  0.2589
  157OSM     O317534   5.509   2.755   2.314  0.0635  0.2493  0.1077
  157OSM    HO317535   5.460   2.722   2.239 -4.7101  2.6243  1.7418
  157OSM    C4S17536   5.434   2.787   2.542 -0.4211  0.1363  0.2261
  157OSM    H4S17537   5.391   2.866   2.604  0.4514  1.3772 -0.6968
  157OSM    C5S17538   5.499   2.676   2.593 -0.8231 -0.0277  0.0592
  157OSM    H5S17539   5.515   2.592   2.524 -1.6246 -0.8656  0.8755
  157OSM    C6S17540   5.522   2.649   2.736 -0.7568 -0.0136 -0.3884
  157OSM    H6S17541   5.628   2.671   2.762 -0.3823 -0.7247 -1.2399
  157OSM    H6T17542   5.515   2.541   2.762  0.7325 -0.6156 -2.2458
  157OSM    C7S17543   5.433   2.724   2.838  0.1678 -0.3135 -1.2995
  157OSM    H7S17544   5.327   2.711   2.808 -1.1908  1.7275  2.0230
  157OSM    H7T17545   5.455   2.833   2.842  2.5959 -0.6821 -2.5373
  157OSM    C8S17546   5.442   2.658   2.980  0.0075 -0.2936 -0.0828
  157OSM    H8S17547   5.541   2.656   3.031 -0.1089 -2.4698  0.1631
  157OSM    H8T17548   5.405   2.554   2.975  0.2456 -0.3598 -0.5676
  157OSM    C9S17549   5.342   2.723   3.077  0.5855 -0.2008 -0.2135
  157OSM    H9S17550   5.240   2.725   3.034 -0.9907  1.3054  3.2392
  157OSM    H9T17551   5.362   2.830   3.096 -0.9811 -0.2130  1.8621
  157OSM   C10S17552   5.333   2.651   3.214 -0.1154 -0.6752  0.4250
  157OSM   H10S17553   5.431   2.632   3.262 -0.1320 -1.1728  0.2589
  157OSM   H10T17554   5.285   2.553   3.194 -0.7489 -0.1543 -0.7121
  157OSM   C11S17555   5.234   2.719   3.310 -0.3431 -0.3518 -0.2538
  157OSM   H11S17556   5.137   2.750   3.265  0.4055  0.6472 -1.2404
  157OSM   H11T17557   5.273   2.814   3.353 -1.8559  0.6420 -0.9702
  157OSM   C12S17558   5.217   2.639   3.440  0.5361 -1.0516  0.0527
  157OSM   H12S17559   5.311   2.589   3.471  1.3698  0.6238  0.3713
  157OSM   H12T17560   5.144   2.557   3.435  0.4705 -0.9558 -0.6920
  157OSM   C13S17561   5.182   2.732   3.565 -0.6731 -0.5739  0.1079
  157OSM   H13S17562   5.091   2.793   3.544 -0.1583 -0.4198 -1.9476
  157OSM   H13T17563   5.263   2.804   3.587 -0.5149 -0.5980 -0.3958
  157OSM   C14S17564   5.167   2.641   3.681 -0.5669  0.5659 -0.5365
  157OSM   H14S17565   5.252   2.570   3.690 -2.2900 -1.4838  0.7782
  157OSM   H14T17566   5.085   2.568   3.665  0.1668 -0.4430  0.1761
  157OSM   C15S17567   5.140   2.719   3.809  0.5647  0.5732  0.6258
  157OSM   H15S17568   5.038   2.761   3.801  0.0572 -0.2230  2.5096
  157OSM   H15T17569   5.215   2.801   3.812  1.2536  0.0998 -1.6636
  157OSM   C16S17570   5.137   2.627   3.930  0.0709 -0.3212 -0.2568
  157OSM   H16S17571   5.240   2.603   3.963 -0.2001 -0.8535  0.2303
  157OSM   H16T17572   5.080   2.532   3.916 -0.1919 -0.6870  2.6329
  157OSM   C17S17573   5.071   2.709   4.051  0.1086  0.2628 -0.0830
  157OSM   H17S17574   5.087   2.645   4.141 -0.2707  0.4288  0.1046
  157OSM   H17T17575   4.965   2.715   4.017  0.3175  1.1047 -0.6217
  157OSM   C18S17576   5.125   2.848   4.071 -0.0191 -0.2944  0.0481
  157OSM   H18S17577   5.075   2.901   4.155  1.8191 -1.2220  1.7799
  157OSM   H18T17578   5.104   2.910   3.981  0.6992 -0.9262 -0.5691
  157OSM   H18U17579   5.235   2.847   4.082  0.0987 -0.3025 -1.0381
  157OSM    C1F17580   5.030   2.779   2.467  0.2490  0.2633 -0.3663
  157OSM     OF17581   4.983   2.681   2.416 -0.0425 -0.2016  0.4338
  157OSM    C2F17582   4.951   2.868   2.552  0.6651  0.0156  0.0100
  157OSM    H2F17583   4.966   2.976   2.530  1.5323 -0.0340  0.3295
  157OSM    H2G17584   4.966   2.851   2.661 -3.0343  0.4203  0.7370
  157OSM    C3F17585   4.798   2.838   2.530 -0.7286 -0.1459  0.0960
  157OSM    H3F17586   4.792   2.729   2.550  3.5818 -0.5964 -0.1811
  157OSM    H3G17587   4.764   2.849   2.425 -1.2625 -0.6626  0.2123
  157OSM    C4F17588   4.701   2.925   2.609  0.1321 -0.1008 -0.2399
  157OSM    H4F17589   4.597   2.897   2.584  0.3204 -0.7873 -0.2680
  157OSM    H4G17590   4.713   3.029   2.571 -0.0249 -0.3381 -0.9414
  157OSM    C5F17591   4.724   2.937   2.763 -0.0775  1.1751  0.3278
  157OSM    H5F17592   4.822   2.985   2.784  0.0328  0.8468  0.5731
  157OSM    H5G17593   4.726   2.833   2.802 -3.4086  0.8814 -0.0235
  157OSM    C6F17594   4.621   3.018   2.833  0.1866  0.1562  0.1289
  157OSM    H6F17595   4.519   2.986   2.804 -0.7054  0.9747  2.1621
  157OSM    H6G17596   4.621   3.122   2.795  1.2284  0.2203  0.2814
  157OSM    C7F17597   4.627   3.002   2.988  0.4773 -0.3594 -0.4050
  157OSM    H7F17598   4.731   3.024   3.018  0.4126 -1.8819  1.0654
  157OSM    H7G17599   4.621   2.894   3.015 -1.0685 -0.9262 -2.7349
  157OSM    C8F17600   4.530   3.091   3.069  0.2369 -0.1208  0.3144
  157OSM    H8F17601   4.424   3.066   3.045 -0.3069  1.0905  1.2848
  157OSM    H8G17602   4.542   3.198   3.039  1.3087 -0.7907 -1.8087
  157OSM    C9F17603   4.542   3.078   3.224  0.8356 -0.0356  0.1775
  157OSM    H9F17604   4.614   3.003   3.260 -0.8818 -1.7498  0.2254
  157OSM   C10F17605   4.479   3.147   3.320  0.1065 -0.2784 -0.3610
  157OSM   H10F17606   4.506   3.123   3.424  0.5593  0.6986 -0.2450
  157OSM   C11F17607   4.373   3.258   3.295  0.2269  0.5810  0.4808
  157OSM   H11F17608   4.274   3.215   3.322  1.1789 -1.3892  0.9891
  157OSM   H11G17609   4.370   3.286   3.188  0.8483 -0.5588  0.1537
  157OSM   C12F17610   4.392   3.380   3.385 -0.2794  0.0992  0.2414
  157OSM   H12F17611   4.499   3.410   3.392 -0.4587  0.8527 -0.2140
  157OSM   H12G17612   4.368   3.337   3.485  2.8861 -1.9526  0.2823
  157OSM   C13F17613   4.302   3.499   3.336 -0.0782 -0.5010 -1.0601
  157OSM   H13F17614   4.205   3.446   3.348 -0.1162  0.0729  2.1142
  157OSM   H13G17615   4.333   3.524   3.232 -0.6608 -1.5234 -1.4912
  157OSM   C14F17616   4.317   3.633   3.420 -0.3840  0.4300  0.6590
  157OSM   H14F17617   4.414   3.672   3.383  0.1940 -0.9098  0.7011
  157OSM   H14G17618   4.311   3.599   3.526  0.6551 -0.1513  0.5464
  157OSM   C15F17619   4.218   3.744   3.386  0.4967 -0.2322  0.1185
  157OSM   H15F17620   4.216   3.749   3.275  2.7060 -2.3837 -0.1010
  157OSM   H15G17621   4.254   3.845   3.415 -0.2993 -0.3906  1.7345
  157OSM   C16F17622   4.082   3.731   3.449  0.5177  0.5810  0.5999
  157OSM   H16F17623   4.087   3.739   3.559  1.0050 -0.1280  0.6342
  157OSM   H16G17624   4.057   3.625   3.428  1.1730  0.2781  1.3408
  157OSM   C17F17625   3.984   3.837   3.403 -0.1971 -0.0173 -0.7202
  157OSM   H17F17626   4.008   3.934   3.451  0.4509  0.2698 -1.6178
  157OSM   H17G17627   3.881   3.805   3.431 -0.2490  0.7807  0.0531
  157OSM   C18F17628   3.992   3.855   3.248 -0.0200  0.0197 -0.6246
  157OSM   H18F17629   3.986   3.760   3.189 -1.0969  0.8137 -1.8574
  157OSM   H18G17630   4.087   3.903   3.217  0.5217 -0.4422  0.2786
  157OSM   H18H17631   3.900   3.913   3.224 -1.4084 -1.9445 -0.2937
  158OSM      N17632   1.213   1.529   1.717 -0.2350 -1.0184  0.3220
  158OSM    C1517633   1.331   1.625   1.752  0.2051 -1.2196  0.8796
  158OSM   H15A17634   1.297   1.724   1.725 -0.5117 -1.6587  0.1262
  158OSM   H15B17635   1.422   1.604   1.699  0.2759 -0.1637  0.5683
  158OSM   H15C17636   1.341   1.638   1.859 -0.4557 -0.1339  0.8220
  158OSM    C1417637   1.194   1.528   1.564 -0.3874 -0.8131 -0.0595
  158OSM   H14A17638   1.164   1.627   1.531 -0.0547 -0.5944  0.2891
  158OSM   H14B17639   1.118   1.457   1.534  0.2092 -2.0080  1.1462
  158OSM   H14C17640   1.274   1.498   1.498 -1.0325  0.0893 -1.2845
  158OSM    C1317641   1.252   1.388   1.759 -0.0996  0.1522 -0.5889
  158OSM   H13A17642   1.175   1.319   1.726  0.8379 -0.7140 -1.0188
  158OSM   H13B17643   1.257   1.363   1.864 -2.2299 -1.4834 -0.8061
  158OSM   H13C17644   1.352   1.356   1.732  1.5001  0.5360  4.0824
  158OSM    C1217645   1.079   1.566   1.772 -0.4038  0.0720 -0.6315
  158OSM   H12A17646   0.999   1.511   1.726 -0.8986 -1.7540  2.1325
  158OSM   H12B17647   1.054   1.668   1.747 -4.0478 -0.6277 -0.3289
  158OSM    C1117648   1.072   1.552   1.926 -0.3605 -0.0123  0.1158
  158OSM   H11A17649   1.100   1.446   1.948 -1.6778 -0.4846 -0.4190
  158OSM   H11B17650   0.970   1.572   1.965  0.0121  0.8316  0.6870
  158OSM      P17651   1.146   1.779   2.032 -0.1444  0.3025 -0.5336
  158OSM    O1317652   1.267   1.830   2.097  0.0903 -0.2090 -0.2943
  158OSM    O1417653   1.097   1.849   1.915 -0.1095 -0.2607  0.2317
  158OSM    O1117654   1.028   1.758   2.140 -0.2569 -0.4463  0.2334
  158OSM    O1217655   1.177   1.627   1.991  0.5339  0.2713  0.4177
  158OSM    C1S17656   1.049   1.667   2.253 -0.2744 -0.5415  0.2981
  158OSM    H1S17657   1.127   1.718   2.313  0.7634  1.5094 -2.5916
  158OSM    H1T17658   1.081   1.566   2.218 -1.4017 -1.2931  1.3548
  158OSM     NF17659   0.941   1.547   2.431 -0.4754  0.5985  0.1329
  158OSM    HNF17660   0.910   1.454   2.415  0.2190  0.6328 -1.7183
  158OSM    C2S17661   0.917   1.638   2.325 -0.0001  0.1314 -0.2636
  158OSM    H2S17662   0.872   1.730   2.369 -1.3393 -0.1895 -0.9232
  158OSM    C3S17663   0.798   1.592   2.230  0.0398 -0.2599 -0.0645
  158OSM    H3S17664   0.815   1.484   2.209 -3.3100 -1.5433  2.7140
  158OSM     O317665   0.780   1.655   2.106 -0.0366  0.4924 -0.0004
  158OSM    HO317666   0.864   1.699   2.094 -1.8865  4.1109 -0.9247
  158OSM    C4S17667   0.669   1.581   2.307  0.6384  0.1389 -0.1790
  158OSM    H4S17668   0.628   1.480   2.321 -1.6158  1.0567  0.2554
  158OSM    C5S17669   0.598   1.681   2.367  0.4065  0.0925 -0.2887
  158OSM    H5S17670   0.622   1.788   2.374 -1.6961  0.4707  2.0773
  158OSM    C6S17671   0.461   1.638   2.420  0.6661 -0.1546 -0.3368
  158OSM    H6S17672   0.477   1.560   2.497  0.8681  0.5297  0.3253
  158OSM    H6T17673   0.403   1.592   2.337 -2.0249 -0.5043  1.6291
  158OSM    C7S17674   0.365   1.745   2.470 -0.4183  0.1088 -0.1243
  158OSM    H7S17675   0.269   1.695   2.494 -0.2098 -0.8233 -1.1611
  158OSM    H7T17676   0.355   1.828   2.397  2.2153  0.1371 -0.5575
  158OSM    C8S17677   0.426   1.795   2.609  0.2209  0.5236 -0.4001
  158OSM    H8S17678   0.522   1.846   2.587  0.4317  0.6607  0.7761
  158OSM    H8T17679   0.450   1.712   2.679 -0.8221 -0.7443 -1.4694
  158OSM    C9S17680   0.321   1.878   2.680 -1.4010  0.2023  0.0891
  158OSM    H9S17681   0.227   1.825   2.655 -1.4658  0.1463  0.4394
  158OSM    H9T17682   0.302   1.965   2.615  0.1333 -0.0859 -0.7970
  158OSM   C10S17683   0.346   1.911   2.831 -0.0630  0.5129  0.8418
  158OSM   H10S17684   0.273   1.989   2.859  0.1568  1.6158 -1.3997
  158OSM   H10T17685   0.445   1.956   2.854  0.4008  0.6776 -1.2630
  158OSM   C11S17686   0.325   1.788   2.918  0.2034  0.3824  0.4131
  158OSM   H11S17687   0.410   1.718   2.902  0.7535  1.2128 -0.3653
  158OSM   H11T17688   0.233   1.731   2.892  0.1537  1.4300 -1.9556
  158OSM   C12S17689   0.323   1.825   3.066  0.0660  0.3098 -0.1289
  158OSM   H12S17690   0.389   1.912   3.085  0.6009  0.1147 -1.0383
  158OSM   H12T17691   0.361   1.743   3.131  0.0958  0.3569 -0.0866
  158OSM   C13S17692   0.180   1.847   3.116  0.0828  0.0861 -0.0206
  158OSM   H13S17693   0.128   1.749   3.113 -0.4198  0.3028  1.0665
  158OSM   H13T17694   0.131   1.923   3.051 -1.4054 -0.7629  0.0582
  158OSM   C14S17695   0.185   1.889   3.268  0.1591  0.8978  0.2368
  158OSM   H14S17696   0.222   1.800   3.323  0.7260  0.6705 -0.4956
  158OSM   H14T17697   0.084   1.913   3.306  0.1307  1.0306  0.0801
  158OSM   C15S17698   0.269   2.007   3.289 -0.2453 -0.5491  0.5187
  158OSM   H15S17699   0.254   2.075   3.202  2.1373  1.0563  1.2626
  158OSM   H15T17700   0.378   1.989   3.284  0.4474  2.9464  0.8396
  158OSM   C16S17701   0.224   2.087   3.415 -0.4899  0.2277  0.0558
  158OSM   H16S17702   0.113   2.085   3.414 -0.4875  0.2407 -0.3490
  158OSM   H16T17703   0.254   2.194   3.415 -2.2155  0.7602 -1.0341
  158OSM   C17S17704   0.280   2.031   3.540  0.5563  0.7921  0.2494
  158OSM   H17S17705   0.388   2.011   3.527  0.8428  0.6947  2.4770
  158OSM   H17T17706   0.222   1.937   3.551 -2.9446  2.8019  0.3523
  158OSM   C18S17707   0.263   2.113   3.667  0.4361 -0.2723 -0.1928
  158OSM   H18S17708   0.329   2.202   3.654 -0.3358  0.5438  1.2616
  158OSM   H18T17709   0.290   2.062   3.762  0.5074  1.3175  0.6799
  158OSM   H18U17710   0.163   2.161   3.672 -0.3172 -1.6716 -0.9270
  158OSM    C1F17711   1.004   1.572   2.542 -0.4730  0.0256  0.2281
  158OSM     OF17712   1.059   1.680   2.560 -0.0603 -0.2663  0.1177
  158OSM    C2F17713   1.007   1.473   2.654 -0.0797  0.4423 -0.0823
  158OSM    H2F17714   1.112   1.467   2.691  0.0455 -2.3734 -0.6391
  158OSM    H2G17715   0.996   1.374   2.604  1.3739 -0.7660  1.8172
  158OSM    C3F17716   0.899   1.505   2.757 -0.3454  0.1654  0.3519
  158OSM    H3F17717   0.911   1.604   2.807 -2.8351 -0.0752  1.5474
  158OSM    H3G17718   0.908   1.425   2.833 -0.6344  0.9643  1.2422
  158OSM    C4F17719   0.761   1.502   2.700 -0.5685  0.4342 -0.9091
  158OSM    H4F17720   0.746   1.399   2.663 -0.8362  0.8634 -2.0346
  158OSM    H4G17721   0.747   1.578   2.620  1.5774  0.3005 -1.4682
  158OSM    C5F17722   0.658   1.529   2.807 -0.1767  0.3341 -0.1976
  158OSM    H5F17723   0.567   1.562   2.753  0.0044 -0.4477 -0.9934
  158OSM    H5G17724   0.682   1.612   2.878 -1.6891  2.2302 -1.7780
  158OSM    C6F17725   0.625   1.423   2.910  0.2378 -0.2003 -0.5468
  158OSM    H6F17726   0.713   1.365   2.944  1.2434  1.3361 -0.4329
  158OSM    H6G17727   0.560   1.352   2.855 -0.2568  0.0860 -0.3450
  158OSM    C7F17728   0.551   1.482   3.031  0.0291 -0.2897  0.1274
  158OSM    H7F17729   0.456   1.527   2.993 -0.0937  1.2071  2.0208
  158OSM    H7G17730   0.614   1.562   3.077  1.6293 -0.4317 -1.6942
  158OSM    C8F17731   0.510   1.381   3.146 -0.7854 -0.6482 -0.0534
  158OSM    H8F17732   0.602   1.344   3.196 -0.0405  0.4365 -0.5734
  158OSM    H8G17733   0.449   1.300   3.101 -2.9421  0.8139  0.1219
  158OSM    C9F17734   0.415   1.456   3.239 -0.3204  0.0299  0.3085
  158OSM    H9F17735   0.382   1.553   3.198  0.6966  1.6214  3.0273
  158OSM   C10F17736   0.400   1.444   3.370  0.2167 -0.2103  0.1038
  158OSM   H10F17737   0.333   1.517   3.418  1.9919  1.8779 -0.4383
  158OSM   C11F17738   0.457   1.341   3.465 -0.0498  0.2115  0.2216
  158OSM   H11F17739   0.479   1.390   3.562  2.8975 -1.9942  0.8197
  158OSM   H11G17740   0.543   1.288   3.417  0.6258  0.2656  1.3453
  158OSM   C12F17741   0.349   1.236   3.512  0.1084  0.5489 -0.1545
  158OSM   H12F17742   0.410   1.151   3.550 -0.4138 -0.1460 -0.8444
  158OSM   H12G17743   0.296   1.183   3.430  3.1149 -1.3202 -1.0777
  158OSM   C13F17744   0.254   1.275   3.618  0.6502 -0.0290 -0.0653
  158OSM   H13F17745   0.156   1.227   3.594  2.4830 -3.6994 -0.9744
  158OSM   H13G17746   0.235   1.384   3.619 -0.2269 -0.1699 -0.1369
  158OSM   C14F17747   0.302   1.240   3.760  0.5718 -0.1970  0.2223
  158OSM   H14F17748   0.381   1.309   3.795  1.4214 -2.4926  3.3661
  158OSM   H14G17749   0.355   1.143   3.753  1.0286  0.0764 -0.0890
  158OSM   C15F17750   0.198   1.227   3.874 -0.5485 -0.7301  0.1365
  158OSM   H15F17751   0.118   1.152   3.859 -0.3892 -0.8741  0.0067
  158OSM   H15G17752   0.147   1.326   3.884  0.9995  0.2058 -0.7926
  158OSM   C16F17753   0.260   1.204   4.012  0.4581 -0.3493 -0.2354
  158OSM   H16F17754   0.323   1.113   3.996 -1.1041 -1.4626 -0.2835
  158OSM   H16G17755   0.174   1.177   4.076 -0.6030  0.4955 -1.2664
  158OSM   C17F17756   0.348   1.315   4.064 -1.0838  0.3397 -0.1828
  158OSM   H17F17757   0.292   1.411   4.072 -0.3132  0.7783  0.0548
  158OSM   H17G17758   0.437   1.327   3.998 -2.1293  1.0401 -1.5243
  158OSM   C18F17759   0.385   1.291   4.206 -0.8663  0.1190  0.4927
  158OSM   H18F17760   0.294   1.281   4.267 -1.0335  3.7274  1.0825
  158OSM   H18G17761   0.436   1.383   4.243  0.1245 -0.7469  1.3368
  158OSM   H18H17762   0.451   1.201   4.205 -1.5698 -0.3977  0.3375
  159OSM      N17763   4.786   3.036   1.973 -0.1143 -0.6373 -0.7630
  159OSM    C1517764   4.641   3.041   1.995 -0.0620  0.5852  0.2482
  159OSM   H15A17765   4.601   3.094   1.909 -0.0509 -0.8617 -0.6774
  159OSM   H15B17766   4.606   3.092   2.083  0.3196 -1.0689  1.4073
  159OSM   H15C17767   4.604   2.943   2.018 -0.7126  0.9602  0.8241
  159OSM    C1417768   4.839   2.941   1.870  0.0342  0.5407  0.5412
  159OSM   H14A17769   4.857   2.844   1.915  1.3117 -0.5887 -2.1534
  159OSM   H14B17770   4.928   2.985   1.828  0.1821 -1.0469 -0.9672
  159OSM   H14C17771   4.768   2.925   1.789 -0.8611 -1.5358  1.6485
  159OSM    C1317772   4.827   3.173   1.938  0.3555 -1.1073 -0.1119
  159OSM   H13A17773   4.771   3.239   2.003  0.8515  0.2162 -0.9926
  159OSM   H13B17774   4.802   3.194   1.835 -2.3275 -0.8535  0.5024
  159OSM   H13C17775   4.932   3.190   1.952  0.6141 -2.3408 -0.4017
  159OSM    C1217776   4.853   3.009   2.111  0.3747 -0.0337 -0.1094
  159OSM   H12A17777   4.814   2.913   2.142 -0.3788  0.4317  0.3931
  159OSM   H12B17778   4.821   3.085   2.180  2.1323  2.0829 -1.4906
  159OSM    C1117779   5.003   3.007   2.131  0.7827  0.6109  0.5327
  159OSM   H11A17780   5.037   2.927   2.062  0.9119  1.3601 -0.3064
  159OSM   H11B17781   5.023   2.972   2.234 -0.0502  0.7390  0.7467
  159OSM      P17782   5.217   3.146   2.079  0.0298 -0.2355 -0.2494
  159OSM    O1317783   5.249   3.039   1.985 -0.3513  0.0755  0.3096
  159OSM    O1417784   5.259   3.281   2.039  0.2655  0.5495 -0.0561
  159OSM    O1117785   5.280   3.115   2.222 -0.2308 -0.2926  0.0165
  159OSM    O1217786   5.058   3.135   2.109  0.3634  0.1661  0.2508
  159OSM    C1S17787   5.232   3.167   2.346 -0.0209  0.3216  0.2389
  159OSM    H1S17788   5.159   3.092   2.385 -1.1869 -0.0410 -2.4637
  159OSM    H1T17789   5.191   3.270   2.333  0.2485  0.5343  0.9851
  159OSM     NF17790   5.299   3.236   2.575  0.8164  0.1507 -0.2369
  159OSM    HNF17791   5.329   3.329   2.593  1.5669  0.6985 -3.6905
  159OSM    C2S17792   5.344   3.184   2.455  0.1205  0.2397 -0.4125
  159OSM    H2S17793   5.384   3.081   2.471 -2.5467 -0.6157  1.4977
  159OSM    C3S17794   5.466   3.265   2.383  0.5478  0.3967  0.4589
  159OSM    H3S17795   5.433   3.366   2.351 -0.3810  0.2481  0.9266
  159OSM     O317796   5.515   3.209   2.262  0.3014  0.1313  0.0576
  159OSM    HO317797   5.446   3.143   2.251 -0.4733  0.3843  2.7765
  159OSM    C4S17798   5.568   3.281   2.493  0.1308  1.1845  0.4497
  159OSM    H4S17799   5.549   3.368   2.557 -1.7055  0.5429  0.8341
  159OSM    C5S17800   5.665   3.191   2.518 -0.0598 -0.2654  0.1956
  159OSM    H5S17801   5.679   3.103   2.453  0.5295  0.2169 -0.3553
  159OSM    C6S17802   5.761   3.206   2.643  0.1953 -0.4135 -0.5640
  159OSM    H6S17803   5.742   3.305   2.690  0.2468 -1.2710  1.3259
  159OSM    H6T17804   5.867   3.197   2.610  0.1562  0.7035 -1.0621
  159OSM    C7S17805   5.740   3.105   2.761  0.3999 -0.9992  0.2792
  159OSM    H7S17806   5.818   3.116   2.840 -0.1754 -0.1246  0.7523
  159OSM    H7T17807   5.739   3.001   2.722 -0.4383 -0.7782 -0.3110
  159OSM    C8S17808   5.602   3.125   2.823  1.2943  0.1019  0.0777
  159OSM    H8S17809   5.523   3.086   2.754 -0.2070  1.8100  0.7320
  159OSM    H8T17810   5.582   3.233   2.841 -0.1467 -0.1903  0.4175
  159OSM    C9S17811   5.594   3.064   2.960  0.1281  0.0952 -0.4484
  159OSM    H9S17812   5.643   2.964   2.965 -1.6310 -0.7604  2.3129
  159OSM    H9T17813   5.491   3.045   2.998 -0.9166 -0.9594 -3.5292
  159OSM   C10S17814   5.673   3.150   3.061 -0.5420  0.1358  0.1630
  159OSM   H10S17815   5.645   3.258   3.061  1.4312  0.7300  1.4242
  159OSM   H10T17816   5.784   3.152   3.052 -0.6545 -0.5696 -1.6794
  159OSM   C11S17817   5.646   3.100   3.202  0.6073 -0.0573 -0.2460
  159OSM   H11S17818   5.693   3.000   3.214  0.1211 -0.2963 -0.2875
  159OSM   H11T17819   5.536   3.088   3.218  0.7773 -2.3486 -0.5219
  159OSM   C12S17820   5.685   3.210   3.309  0.0999  0.6224 -0.2517
  159OSM   H12S17821   5.621   3.300   3.295  0.0409  0.5901 -0.1883
  159OSM   H12T17822   5.787   3.247   3.285  0.6370 -0.5482  0.1487
  159OSM   C13S17823   5.676   3.167   3.452  0.4013 -0.4934  0.0568
  159OSM   H13S17824   5.748   3.083   3.461  0.7792 -0.3828 -1.4948
  159OSM   H13T17825   5.569   3.147   3.472  0.0576  1.5829  0.6290
  159OSM   C14S17826   5.716   3.279   3.546 -0.0942 -0.1856  0.1448
  159OSM   H14S17827   5.647   3.361   3.518 -0.1686  0.0572  1.0020
  159OSM   H14T17828   5.820   3.314   3.530 -0.0121  0.2068  1.4096
  159OSM   C15S17829   5.699   3.244   3.694  0.4431  0.4787  0.1003
  159OSM   H15S17830   5.778   3.172   3.724  1.2306  1.0967 -0.4358
  159OSM   H15T17831   5.598   3.201   3.711  0.6307 -1.1783 -2.3914
  159OSM   C16S17832   5.720   3.370   3.776  0.7298 -0.4537  0.1797
  159OSM   H16S17833   5.635   3.439   3.759 -1.5982 -2.6555  2.0786
  159OSM   H16T17834   5.812   3.431   3.775  0.3027  0.3546  2.9951
  159OSM   C17S17835   5.709   3.332   3.920 -0.5620  0.9026  0.2894
  159OSM   H17S17836   5.784   3.252   3.941  0.4643  1.7721  0.0060
  159OSM   H17T17837   5.611   3.291   3.955  0.2280  0.2856  1.9267
  159OSM   C18S17838   5.731   3.459   4.015  0.2460 -0.3848  0.0694
  159OSM   H18S17839   5.825   3.504   3.978 -0.3468  1.6894  0.9717
  159OSM   H18T17840   5.744   3.410   4.114 -1.1340 -0.6364  0.1411
  159OSM   H18U17841   5.654   3.539   4.011 -0.6404 -1.2056  0.2770
  159OSM    C1F17842   5.221   3.161   2.658 -0.4258  0.4782  0.5329
  159OSM     OF17843   5.189   3.056   2.615  0.4821  0.5793 -0.3179
  159OSM    C2F17844   5.193   3.209   2.796 -0.3575  0.2258  0.1513
  159OSM    H2F17845   5.156   3.314   2.795 -1.5197 -0.1006  2.5024
  159OSM    H2G17846   5.277   3.197   2.867 -1.7198 -0.6283  1.7002
  159OSM    C3F17847   5.082   3.121   2.856  0.6048 -0.1585 -0.6465
  159OSM    H3F17848   5.123   3.018   2.862  1.3487  0.0472 -1.8294
  159OSM    H3G17849   4.997   3.111   2.785 -0.7247 -0.9619  0.9939
  159OSM    C4F17850   5.029   3.171   2.990  0.1282  0.8665  0.1855
  159OSM    H4F17851   4.918   3.164   2.989  0.1841 -1.5402 -2.6353
  159OSM    H4G17852   5.056   3.276   3.011  0.0419  0.6786  1.3052
  159OSM    C5F17853   5.081   3.089   3.102 -0.5174  0.1339 -0.1232
  159OSM    H5F17854   5.191   3.079   3.097 -0.4408  0.2874  0.9418
  159OSM    H5G17855   5.043   2.985   3.092  0.0778 -0.1428  0.3991
  159OSM    C6F17856   5.035   3.136   3.236 -0.1078  0.8046 -0.4294
  159OSM    H6F17857   5.054   3.245   3.237 -1.0075  1.0150 -2.1579
  159OSM    H6G17858   5.110   3.100   3.309  0.7971  1.5770 -0.9657
  159OSM    C7F17859   4.897   3.102   3.279  0.0835 -0.0915  0.3274
  159OSM    H7F17860   4.879   2.999   3.243 -0.4495  1.5017 -4.6337
  159OSM    H7G17861   4.827   3.152   3.209  1.7947  0.1850 -1.2647
  159OSM    C8F17862   4.861   3.120   3.434  0.3498 -0.0695  0.7933
  159OSM    H8F17863   4.937   3.055   3.482 -0.2558 -0.8219  0.7378
  159OSM    H8G17864   4.760   3.075   3.444  0.1636  0.2943  0.5983
  159OSM    C9F17865   4.856   3.265   3.465 -0.2124 -0.3131 -0.0050
  159OSM    H9F17866   4.916   3.333   3.403 -3.9920  0.4213 -3.2920
  159OSM   C10F17867   4.762   3.324   3.543  0.0811  0.7876 -0.1547
  159OSM   H10F17868   4.764   3.434   3.554 -0.3682  0.8600 -0.7440
  159OSM   C11F17869   4.658   3.251   3.624 -0.4196 -0.0982 -0.0337
  159OSM   H11F17870   4.655   3.140   3.619 -2.3199 -0.1029  0.4616
  159OSM   H11G17871   4.555   3.289   3.609 -0.7671 -0.5981  0.9661
  159OSM   C12F17872   4.684   3.283   3.771  0.4814  0.5471  0.3019
  159OSM   H12F17873   4.593   3.230   3.807  1.3974 -2.0413 -0.8644
  159OSM   H12G17874   4.672   3.391   3.790 -2.5371  0.0436  1.9744
  159OSM   C13F17875   4.811   3.233   3.843 -0.9462 -0.3852 -0.2226
  159OSM   H13F17876   4.900   3.258   3.782  0.4760  0.2186  1.9795
  159OSM   H13G17877   4.810   3.122   3.847  1.1162 -0.4411  2.7068
  159OSM   C14F17878   4.822   3.282   3.985  0.4201  0.0180 -0.4000
  159OSM   H14F17879   4.727   3.282   4.042  1.5837 -1.3596  1.6684
  159OSM   H14G17880   4.856   3.388   3.977  3.6567 -0.9023 -0.4921
  159OSM   C15F17881   4.943   3.218   4.054  0.1385 -0.5215 -0.5004
  159OSM   H15F17882   5.029   3.215   3.984  0.1231 -0.2539 -0.5326
  159OSM   H15G17883   4.918   3.116   4.090 -0.8701 -0.1524 -0.1185
  159OSM   C16F17884   5.003   3.301   4.177 -0.4188 -0.2674  0.1985
  159OSM   H16F17885   4.915   3.343   4.229 -1.2808 -0.9647 -0.6534
  159OSM   H16G17886   5.050   3.387   4.124 -0.2440 -1.2642 -1.3511
  159OSM   C17F17887   5.099   3.227   4.276  0.2774  0.1024  0.6416
  159OSM   H17F17888   5.056   3.125   4.289  2.2206 -1.3591 -2.8647
  159OSM   H17G17889   5.113   3.271   4.376 -0.4645 -0.4255  0.9876
  159OSM   C18F17890   5.239   3.219   4.222  0.4679  0.0386 -0.0936
  159OSM   H18F17891   5.246   3.137   4.148 -0.3028 -2.7526  2.6970
  159OSM   H18G17892   5.319   3.196   4.296  0.3495  2.0643  0.7405
  159OSM   H18H17893   5.284   3.312   4.180  2.3421 -0.4334  0.7671
  160OSM      N17894   1.400   3.362   1.877  0.5747  0.3233 -0.3086
  160OSM    C1517895   1.298   3.309   1.777 -0.6966 -0.1345  0.7669
  160OSM   H15A17896   1.326   3.348   1.680  0.2469  2.2156  1.8923
  160OSM   H15B17897   1.201   3.357   1.783 -0.6285  0.4697 -1.7512
  160OSM   H15C17898   1.289   3.202   1.779 -0.7855 -0.1387  0.2319
  160OSM    C1417899   1.524   3.318   1.829  0.0514  0.0259  0.2736
  160OSM   H14A17900   1.543   3.364   1.734  0.4331  1.4026  0.9918
  160OSM   H14B17901   1.517   3.210   1.821 -0.5463  0.0137  0.8338
  160OSM   H14C17902   1.609   3.332   1.894  0.6262 -1.3565 -0.1348
  160OSM    C1317903   1.387   3.513   1.891 -0.4619 -0.3780 -0.1441
  160OSM   H13A17904   1.284   3.540   1.906  0.0276  0.5031  2.0349
  160OSM   H13B17905   1.422   3.574   1.809 -0.3145  1.4902  1.2304
  160OSM   H13C17906   1.454   3.532   1.973  1.6453  0.3913 -1.9426
  160OSM    C1217907   1.373   3.303   2.012  0.3797 -1.1221  0.0723
  160OSM   H12A17908   1.461   3.302   2.075  0.5781 -1.6367 -0.2033
  160OSM   H12B17909   1.356   3.197   2.001  0.0590 -1.2097  1.2690
  160OSM    C1117910   1.249   3.366   2.095 -0.6811 -0.5048 -1.4861
  160OSM   H11A17911   1.168   3.399   2.026 -2.1228 -2.6035 -0.8787
  160OSM   H11B17912   1.277   3.455   2.155  0.4107 -2.2532  0.7609
  160OSM      P17913   1.125   3.143   2.120  0.0176  0.4235 -0.3094
  160OSM    O1317914   1.000   3.193   2.048  0.1924 -0.8932  0.3268
  160OSM    O1417915   1.213   3.064   2.032  0.5031 -0.2443 -0.3840
  160OSM    O1117916   1.083   3.065   2.248  0.2522 -0.5916  0.1819
  160OSM    O1217917   1.196   3.260   2.181 -0.2760  0.2080 -0.5376
  160OSM    C1S17918   1.146   3.072   2.377 -0.1919 -0.4685  0.9670
  160OSM    H1S17919   1.135   3.176   2.414 -1.2063 -0.2512  0.1088
  160OSM    H1T17920   1.254   3.047   2.376 -0.6707 -2.7897  0.7276
  160OSM     NF17921   1.067   3.010   2.612 -0.3448  0.7049 -0.2439
  160OSM    HNF17922   1.136   2.958   2.661  0.7617  2.5671  0.2471
  160OSM    C2S17923   1.061   2.976   2.471 -0.3233  0.1839 -0.4177
  160OSM    H2S17924   0.953   2.966   2.447 -0.4975 -3.3681  1.1695
  160OSM    C3S17925   1.124   2.838   2.428  0.4167 -0.2379  0.2492
  160OSM    H3S17926   1.234   2.846   2.428  0.6953 -2.8952  2.2032
  160OSM     O317927   1.114   2.812   2.291  0.8595  0.5573  0.3694
  160OSM    HO317928   1.073   2.893   2.260  0.3870 -0.2296 -1.1554
  160OSM    C4S17929   1.074   2.724   2.506 -0.3064  0.1326 -0.3431
  160OSM    H4S17930   1.136   2.714   2.596 -0.7233  1.4509  0.1218
  160OSM    C5S17931   0.986   2.623   2.487  0.9151 -0.4604 -0.0629
  160OSM    H5S17932   0.938   2.617   2.389  1.0298 -0.5806 -0.1125
  160OSM    C6S17933   0.945   2.512   2.572 -0.2466  0.0167 -0.2455
  160OSM    H6S17934   0.981   2.416   2.528  2.8127  1.0706 -0.2890
  160OSM    H6T17935   0.837   2.505   2.595 -0.4161 -1.3311 -1.3260
  160OSM    C7S17936   1.013   2.527   2.715 -0.8490 -0.2884  0.0500
  160OSM    H7S17937   0.972   2.623   2.754 -2.7914 -1.0105 -0.0847
  160OSM    H7T17938   1.122   2.529   2.697 -1.2281  0.2134 -2.6737
  160OSM    C8S17939   0.979   2.406   2.806 -0.2667 -0.4767  1.0952
  160OSM    H8S17940   1.002   2.312   2.752 -1.7637 -0.4830  0.4238
  160OSM    H8T17941   0.872   2.410   2.836 -1.8790 -4.3098 -3.0265
  160OSM    C9S17942   1.055   2.420   2.943 -0.3380 -0.0738  1.4263
  160OSM    H9S17943   1.050   2.530   2.957 -2.4839  0.3560 -1.6026
  160OSM    H9T17944   1.161   2.386   2.938 -1.0673 -2.4304  0.2466
  160OSM   C10S17945   1.004   2.320   3.048  0.3576 -0.1646 -0.4450
  160OSM   H10S17946   1.000   2.218   3.004 -1.3585  0.2155 -1.2409
  160OSM   H10T17947   0.897   2.347   3.056  0.3787 -0.4852  1.1556
  160OSM   C11S17948   1.073   2.320   3.186  0.7640 -0.2514  0.3169
  160OSM   H11S17949   1.182   2.298   3.181  0.5213 -1.1352 -1.9292
  160OSM   H11T17950   1.021   2.241   3.244 -1.7924  0.0802 -1.3808
  160OSM   C12S17951   1.055   2.450   3.270 -0.0217 -0.3141  0.1562
  160OSM   H12S17952   0.951   2.486   3.258 -0.9768 -3.3596 -1.7357
  160OSM   H12T17953   1.126   2.525   3.227 -0.7502  0.1758 -0.2179
  160OSM   C13S17954   1.083   2.427   3.418 -0.1016 -0.5431 -0.8155
  160OSM   H13S17955   1.190   2.401   3.432  0.3215  1.1151 -0.7561
  160OSM   H13T17956   1.023   2.338   3.447  0.4491  0.3169  3.6759
  160OSM   C14S17957   1.043   2.547   3.506  0.1630 -0.0255  0.5435
  160OSM   H14S17958   0.933   2.557   3.491  0.0325 -0.4499  1.1899
  160OSM   H14T17959   1.095   2.640   3.474 -0.6493 -0.2601 -1.6750
  160OSM   C15S17960   1.082   2.514   3.646 -0.1898 -0.2395 -0.0337
  160OSM   H15S17961   1.191   2.505   3.629 -0.1336  2.4104 -1.7046
  160OSM   H15T17962   1.037   2.420   3.685  1.8885 -0.8489  1.0085
  160OSM   C16S17963   1.060   2.621   3.746 -0.0002  0.1120 -0.5693
  160OSM   H16S17964   0.961   2.669   3.734  0.4105  1.4953  1.1941
  160OSM   H16T17965   1.140   2.694   3.718  0.2214 -0.6447 -2.0020
  160OSM   C17S17966   1.076   2.574   3.890  0.2279  0.3039  0.2961
  160OSM   H17S17967   1.160   2.502   3.904  0.0897 -0.3421 -1.8247
  160OSM   H17T17968   0.979   2.521   3.905  0.4329 -0.9295 -2.2329
  160OSM   C18S17969   1.089   2.702   3.974 -0.6845  0.0710  0.4059
  160OSM   H18S17970   1.168   2.766   3.929  0.6920 -1.7125  0.1552
  160OSM   H18T17971   1.106   2.676   4.080 -2.5115 -0.9233  0.5118
  160OSM   H18U17972   0.991   2.756   3.972  0.0557  1.6576  3.0103
  160OSM    C1F17973   1.025   3.135   2.644 -0.2986 -0.1195 -0.4055
  160OSM     OF17974   0.969   3.202   2.561 -0.3224  0.0965  0.0808
  160OSM    C2F17975   1.057   3.191   2.781  0.0334  0.5127  0.0272
  160OSM    H2F17976   1.163   3.225   2.778 -0.0974  0.8850 -0.9610
  160OSM    H2G17977   1.042   3.110   2.855  2.5131 -0.7708 -0.7711
  160OSM    C3F17978   0.960   3.304   2.816  0.0432  0.7603  0.3846
  160OSM    H3F17979   0.850   3.292   2.808 -0.1905  2.6757  0.2528
  160OSM    H3G17980   0.989   3.394   2.759 -0.0905  2.1337  2.3710
  160OSM    C4F17981   0.966   3.352   2.962 -0.1807 -0.0524  0.0142
  160OSM    H4F17982   0.962   3.264   3.029  1.5380 -0.7676 -0.7674
  160OSM    H4G17983   0.882   3.421   2.983  1.1847  1.7090 -0.0321
  160OSM    C5F17984   1.096   3.428   3.000  0.2632  0.6614 -0.7379
  160OSM    H5F17985   1.105   3.522   2.940  3.4095 -0.2960 -1.9716
  160OSM    H5G17986   1.176   3.358   2.968 -0.3116 -0.5632  0.4502
  160OSM    C6F17987   1.088   3.471   3.149  0.1130  0.0064 -0.3837
  160OSM    H6F17988   1.087   3.379   3.212  1.0128 -1.0278 -1.8353
  160OSM    H6G17989   0.994   3.523   3.178  0.1301  0.2838 -0.8347
  160OSM    C7F17990   1.209   3.551   3.212  0.6961  0.2734 -0.2419
  160OSM    H7F17991   1.232   3.642   3.153  0.1968  0.4141 -0.2204
  160OSM    H7G17992   1.299   3.488   3.193  0.7435 -0.4130  1.9752
  160OSM    C8F17993   1.200   3.578   3.368 -0.3099 -0.2922 -0.3530
  160OSM    H8F17994   1.183   3.476   3.407 -0.0781  0.1902  1.0446
  160OSM    H8G17995   1.115   3.642   3.397  0.1760  0.5480 -0.7261
  160OSM    C9F17996   1.328   3.628   3.428  0.2846  0.1507 -0.2972
  160OSM    H9F17997   1.411   3.678   3.376 -1.0818  2.9924  0.0562
  160OSM   C10F17998   1.358   3.629   3.556  0.1526 -0.5426  0.1174
  160OSM   H10F17999   1.457   3.674   3.575 -0.5168  1.3532 -0.6816
  160OSM   C11F18000   1.271   3.587   3.670 -0.0352  0.5257  0.2334
  160OSM   H11F18001   1.327   3.533   3.750 -0.8850  1.3930  1.4574
  160OSM   H11G18002   1.189   3.523   3.631  1.1269  0.4751 -2.3299
  160OSM   C12F18003   1.196   3.701   3.741 -0.1356 -0.6900  0.4161
  160OSM   H12F18004   1.118   3.663   3.811  0.2833  0.9435  1.8385
  160OSM   H12G18005   1.131   3.759   3.672  0.0782 -0.0098  0.7830
  160OSM   C13F18006   1.278   3.802   3.820  0.4303 -0.1840  0.4013
  160OSM   H13F18007   1.214   3.891   3.840 -1.7301 -1.7655  0.8686
  160OSM   H13G18008   1.368   3.842   3.769 -0.1455  5.0736  2.8153
  160OSM   C14F18009   1.336   3.748   3.945  0.0593  0.6604 -0.1469
  160OSM   H14F18010   1.415   3.678   3.911  0.7713  2.0600 -1.5354
  160OSM   H14G18011   1.260   3.692   4.003 -0.6089 -1.3329 -2.7510
  160OSM   C15F18012   1.385   3.857   4.041 -0.3216 -0.1055  1.0412
  160OSM   H15F18013   1.321   3.948   4.037  0.3571  0.3422 -0.1526
  160OSM   H15G18014   1.490   3.881   4.014 -1.2420  1.1419 -1.8744
  160OSM   C16F18015   1.378   3.825   4.195 -0.4875  0.2545  0.3342
  160OSM   H16F18016   1.438   3.734   4.219 -0.3512 -0.1216 -1.2682
  160OSM   H16G18017   1.274   3.797   4.221  0.0567 -1.3082  0.9905
  160OSM   C17F18018   1.416   3.939   4.292  0.3704  0.1723 -0.2922
  160OSM   H17F18019   1.355   4.030   4.274 -2.0340 -0.9253  1.6964
  160OSM   H17G18020   1.521   3.956   4.260  0.2520 -1.0889 -1.4826
  160OSM   C18F18021   1.407   3.903   4.445 -0.2078 -0.6355 -0.2153
  160OSM   H18F18022   1.492   3.843   4.486 -1.1877 -0.0829  2.8621
  160OSM   H18G18023   1.305   3.862   4.455 -1.8068  3.1652  0.7342
  160OSM   H18H18024   1.399   3.997   4.503  0.6049  0.9386 -2.5088
  161OSM      N18025   0.130   2.970   2.374  0.1983 -0.5939 -0.7886
  161OSM    C1518026   0.003   2.890   2.389 -0.5018 -0.1412 -0.1126
  161OSM   H15A18027  -0.036   2.908   2.488  1.8818  2.9800  0.4138
  161OSM   H15B18028   0.021   2.786   2.362  1.7213  0.2740 -0.4459
  161OSM   H15C18029  -0.078   2.933   2.332  1.2593  2.7581 -0.5994
  161OSM    C1418030   0.213   2.942   2.497  0.1518  0.6994 -0.3475
  161OSM   H14A18031   0.279   2.862   2.465  0.9974  0.7353  1.1921
  161OSM   H14B18032   0.162   2.893   2.579 -0.2975 -0.9246 -1.5566
  161OSM   H14C18033   0.276   3.025   2.526  0.0830  1.9230 -3.4266
  161OSM    C1318034   0.210   2.932   2.255  0.4796 -0.9588  0.1349
  161OSM   H13A18035   0.226   2.826   2.260 -1.0143 -1.1823  0.8899
  161OSM   H13B18036   0.305   2.983   2.248  0.9388 -0.8849  4.2085
  161OSM   H13C18037   0.155   2.948   2.164  0.0518 -0.2318  0.5024
  161OSM    C1218038   0.092   3.118   2.370 -0.2992  0.6023  0.1627
  161OSM   H12A18039   0.181   3.169   2.404 -0.1511 -0.0952  0.8499
  161OSM   H12B18040   0.026   3.141   2.453  1.2041 -0.6812  1.7982
  161OSM    C1118041   0.040   3.182   2.232  0.0811 -0.1094 -0.8009
  161OSM   H11A18042   0.119   3.155   2.158  1.3542  0.5094  0.2804
  161OSM   H11B18043   0.046   3.292   2.242 -0.2979 -0.2004  0.6120
  161OSM      P18044  -0.217   3.213   2.239  0.1970  0.1472 -0.5924
  161OSM    O1318045  -0.196   3.351   2.186 -0.1496 -0.0081 -0.0734
  161OSM    O1418046  -0.343   3.142   2.211  0.5455 -0.2847 -0.3881
  161OSM    O1118047  -0.203   3.210   2.401 -0.5646  0.1630  0.2192
  161OSM    O1218048  -0.091   3.126   2.200 -0.0012 -0.1056  0.3621
  161OSM    C1S18049  -0.156   3.325   2.473  0.4129  0.2484 -0.0173
  161OSM    H1S18050  -0.212   3.412   2.433 -3.4163 -1.0363  2.0425
  161OSM    H1T18051  -0.047   3.337   2.457  0.5354 -0.5026  0.1904
  161OSM     NF18052  -0.149   3.459   2.671  0.6637 -0.2354  0.1453
  161OSM    HNF18053  -0.056   3.465   2.707  0.7373  2.4291 -0.3249
  161OSM    C2S18054  -0.201   3.334   2.621 -0.2512  0.3830  0.0099
  161OSM    H2S18055  -0.311   3.344   2.633 -0.0487  0.1453  2.5480
  161OSM    C3S18056  -0.164   3.204   2.708  0.0473 -0.7798 -0.3237
  161OSM    H3S18057  -0.054   3.192   2.715  0.3183  0.4002 -1.9453
  161OSM     O318058  -0.200   3.084   2.634  0.3285 -0.2408 -0.3924
  161OSM    HO318059  -0.204   3.120   2.546 -1.3212 -2.1065 -1.1382
  161OSM    C4S18060  -0.212   3.195   2.853 -1.0338 -0.2564  0.2332
  161OSM    H4S18061  -0.138   3.229   2.927 -0.0816  0.9433 -1.2077
  161OSM    C5S18062  -0.330   3.152   2.898 -0.5421 -0.4681 -0.2059
  161OSM    H5S18063  -0.413   3.127   2.831 -0.1196  1.1032 -1.3772
  161OSM    C6S18064  -0.386   3.156   3.040 -0.0177 -0.3340 -0.5306
  161OSM    H6S18065  -0.436   3.064   3.078 -0.5485  0.1208 -0.1040
  161OSM    H6T18066  -0.465   3.234   3.041  0.7885  0.4926  0.2213
  161OSM    C7S18067  -0.291   3.209   3.151  0.2094  0.3904 -0.4452
  161OSM    H7S18068  -0.236   3.303   3.131 -1.3315  1.6083  0.7090
  161OSM    H7T18069  -0.213   3.131   3.163  1.0015  1.1247 -0.7184
  161OSM    C8S18070  -0.360   3.230   3.285  0.5509 -0.0999 -1.2092
  161OSM    H8S18071  -0.400   3.138   3.332 -1.4717  0.3389 -1.9577
  161OSM    H8T18072  -0.448   3.296   3.270  0.0365  0.2023  2.2235
  161OSM    C9S18073  -0.289   3.310   3.399 -0.2795  0.0375  0.3416
  161OSM    H9S18074  -0.264   3.412   3.365  3.7688 -0.8046  0.2830
  161OSM    H9T18075  -0.194   3.256   3.422  0.2090  0.8993  0.3833
  161OSM   C10S18076  -0.367   3.315   3.530  0.1909  0.9098 -0.0819
  161OSM   H10S18077  -0.408   3.216   3.560 -0.6592  0.2833 -2.9578
  161OSM   H10T18078  -0.461   3.366   3.499  0.7042  1.2166 -1.1514
  161OSM   C11S18079  -0.292   3.388   3.642  0.4116  0.3798 -0.1096
  161OSM   H11S18080  -0.244   3.487   3.624  0.4919  0.5688  1.0672
  161OSM   H11T18081  -0.211   3.321   3.675 -0.5382  0.6961  3.2623
  161OSM   C12S18082  -0.390   3.420   3.758 -0.3531 -0.0016 -0.7593
  161OSM   H12S18083  -0.435   3.328   3.802  1.6551 -0.5927  0.1778
  161OSM   H12T18084  -0.472   3.487   3.726 -0.2650  0.6829  0.3807
  161OSM   C13S18085  -0.312   3.476   3.879 -0.1255  0.5007 -0.1853
  161OSM   H13S18086  -0.261   3.561   3.828 -1.3219  1.0501 -0.5139
  161OSM   H13T18087  -0.236   3.401   3.909 -0.0264  0.7633  0.2306
  161OSM   C14S18088  -0.384   3.529   3.995  0.2624  0.1365 -0.0516
  161OSM   H14S18089  -0.460   3.600   3.957  0.4160  0.7650  0.7878
  161OSM   H14T18090  -0.308   3.593   4.045  0.2622 -0.1207  0.2773
  161OSM   C15S18091  -0.449   3.423   4.083  0.2544  0.7385  0.0981
  161OSM   H15S18092  -0.514   3.349   4.031  0.0012 -0.5542  2.1263
  161OSM   H15T18093  -0.507   3.475   4.162  0.4387  0.0487  0.7056
  161OSM   C16S18094  -0.350   3.332   4.155 -0.2585  0.0262 -0.1880
  161OSM   H16S18095  -0.259   3.380   4.198 -1.1620  1.8751 -0.2186
  161OSM   H16T18096  -0.306   3.275   4.071 -1.8395 -1.4442 -0.0635
  161OSM   C17S18097  -0.405   3.251   4.272  0.3112  0.2064  0.4648
  161OSM   H17S18098  -0.326   3.185   4.314 -1.4306 -1.3801  1.4481
  161OSM   H17T18099  -0.490   3.186   4.241  1.1043 -1.0551  0.8627
  161OSM   C18S18100  -0.452   3.336   4.395  0.4584  0.7002  0.1056
  161OSM   H18S18101  -0.473   3.272   4.484  1.1657  0.9529  0.4641
  161OSM   H18T18102  -0.545   3.394   4.375 -1.9808 -2.5107  1.3036
  161OSM   H18U18103  -0.369   3.402   4.430  1.6247 -1.6375  2.0637
  161OSM    C1F18104  -0.211   3.576   2.644  0.0063 -0.7035  0.5745
  161OSM     OF18105  -0.314   3.589   2.573 -0.2822  0.4694  0.0111
  161OSM    C2F18106  -0.147   3.693   2.694 -0.1731  0.4276 -0.2183
  161OSM    H2F18107  -0.159   3.769   2.613 -1.9483 -0.4377 -0.8131
  161OSM    H2G18108  -0.038   3.677   2.710  0.7252  3.4065 -2.4683
  161OSM    C3F18109  -0.228   3.757   2.806  0.0543  0.4369 -0.7823
  161OSM    H3F18110  -0.278   3.849   2.769  3.1482  2.3879 -0.5518
  161OSM    H3G18111  -0.160   3.817   2.870 -2.4614  0.5019  2.0072
  161OSM    C4F18112  -0.319   3.668   2.892 -0.0261  0.7854 -0.2548
  161OSM    H4F18113  -0.262   3.577   2.922 -3.4751 -0.9598  1.5288
  161OSM    H4G18114  -0.398   3.611   2.840  2.1813 -4.0325  1.1454
  161OSM    C5F18115  -0.378   3.738   3.014 -0.8338  0.0297 -0.2948
  161OSM    H5F18116  -0.457   3.804   2.970 -1.0568 -0.2209 -0.2711
  161OSM    H5G18117  -0.310   3.812   3.062 -1.7078  0.8986 -0.3480
  161OSM    C6F18118  -0.429   3.642   3.114 -0.3594  0.7968 -0.7244
  161OSM    H6F18119  -0.344   3.590   3.162 -2.3210 -2.7906 -0.7614
  161OSM    H6G18120  -0.486   3.565   3.057  0.6873 -2.3236  2.1460
  161OSM    C7F18121  -0.512   3.716   3.225  0.1873 -0.4532 -0.3502
  161OSM    H7F18122  -0.553   3.628   3.278 -1.6166  0.0814 -0.7572
  161OSM    H7G18123  -0.598   3.774   3.183  1.6163  1.1681 -1.1587
  161OSM    C8F18124  -0.428   3.808   3.308 -0.6776 -0.2179 -0.1374
  161OSM    H8F18125  -0.498   3.880   3.354 -1.0552 -1.4799  1.3492
  161OSM    H8G18126  -0.359   3.877   3.255 -2.9594  1.0265 -1.6843
  161OSM    C9F18127  -0.349   3.730   3.412  0.5834  0.7524 -0.3150
  161OSM    H9F18128  -0.326   3.625   3.386  2.4240  1.6600 -2.7274
  161OSM   C10F18129  -0.303   3.781   3.528 -0.6471  0.5010 -0.4672
  161OSM   H10F18130  -0.259   3.716   3.604 -1.4169 -1.4586 -1.6273
  161OSM   C11F18131  -0.333   3.925   3.572 -0.6813 -0.3245  0.0728
  161OSM   H11F18132  -0.441   3.953   3.569 -0.2386  1.4789 -2.1827
  161OSM   H11G18133  -0.277   3.999   3.512 -0.1466 -0.7953 -0.0118
  161OSM   C12F18134  -0.283   3.957   3.715  0.5092  0.4727 -0.1348
  161OSM   H12F18135  -0.300   4.065   3.731 -0.5341  0.3363 -0.2405
  161OSM   H12G18136  -0.177   3.926   3.725  0.3912  0.1243  0.0638
  161OSM   C13F18137  -0.357   3.894   3.822 -0.8536 -0.1113 -0.4321
  161OSM   H13F18138  -0.346   3.783   3.820 -2.2008 -0.2695 -0.1631
  161OSM   H13G18139  -0.467   3.905   3.808 -0.9584  1.2295  1.1521
  161OSM   C14F18140  -0.319   3.948   3.961  0.1624 -0.4016  0.0367
  161OSM   H14F18141  -0.393   3.904   4.030 -0.0184  0.1147  0.1726
  161OSM   H14G18142  -0.340   4.054   3.986  0.9624  0.0356 -1.0420
  161OSM   C15F18143  -0.182   3.902   4.002  0.5842  0.2540  0.0903
  161OSM   H15F18144  -0.115   3.970   3.945 -0.5781  0.7193 -0.7400
  161OSM   H15G18145  -0.153   3.796   3.983  0.0081 -0.5402  3.0977
  161OSM   C16F18146  -0.181   3.915   4.156  0.0144  0.5344  0.6807
  161OSM   H16F18147  -0.253   3.838   4.191  0.0690  0.2770  0.2403
  161OSM   H16G18148  -0.223   4.012   4.189  0.9130  0.7313  1.2694
  161OSM   C17F18149  -0.047   3.874   4.220  0.6349 -0.4081  0.5390
  161OSM   H17F18150   0.028   3.953   4.198 -1.7602  2.1417  1.0354
  161OSM   H17G18151  -0.020   3.774   4.181 -1.8226 -1.1538  0.5821
  161OSM   C18F18152  -0.047   3.882   4.370 -0.5703  0.1267 -0.0070
  161OSM   H18F18153   0.057   3.864   4.406  0.0743  1.1428 -1.2666
  161OSM   H18G18154  -0.110   3.801   4.412  1.0472 -0.5035  1.3165
  161OSM   H18H18155  -0.078   3.985   4.397  1.8258  0.9387 -0.0689
  162OSM      N18156   6.634   1.715   1.771  0.2742 -0.6729  0.2627
  162OSM    C1518157   6.487   1.690   1.733  0.0840  0.4529 -0.4094
  162OSM   H15A18158   6.482   1.660   1.629 -2.3191 -0.1182 -0.1838
  162OSM   H15B18159   6.420   1.773   1.753 -0.3129  0.1790 -0.6018
  162OSM   H15C18160   6.434   1.612   1.785 -0.9085  2.2618  1.4705
  162OSM    C1418161   6.645   1.741   1.915 -0.1849 -0.2450 -0.2674
  162OSM   H14A18162   6.591   1.831   1.941 -2.4499 -2.2148  2.5200
  162OSM   H14B18163   6.745   1.771   1.942 -0.2809  0.4376 -0.6601
  162OSM   H14C18164   6.610   1.663   1.982 -1.5438  0.7445  0.2264
  162OSM    C1318165   6.729   1.610   1.726 -0.0993 -0.0503 -0.2558
  162OSM   H13A18166   6.712   1.520   1.783 -0.6877  0.7532  0.8821
  162OSM   H13B18167   6.832   1.640   1.737 -0.1860 -0.5444  2.3225
  162OSM   H13C18168   6.712   1.594   1.620  0.5214  0.5254 -0.4517
  162OSM    C1218169   6.655   1.850   1.701 -0.3852  1.1733  0.2550
  162OSM   H12A18170   6.644   1.837   1.594  3.2238  0.8105 -0.2078
  162OSM   H12B18171   6.752   1.894   1.721 -1.1560  2.4489  1.3543
  162OSM    C1118172   6.576   1.979   1.738 -0.7069  0.3616  0.0858
  162OSM   H11A18173   6.466   1.965   1.746 -0.2765 -2.6961  5.1959
  162OSM   H11B18174   6.600   2.050   1.656  0.7425  1.2477  1.2251
  162OSM      P18175   6.541   2.165   1.915  0.4378  0.0829 -0.1374
  162OSM    O1318176   6.619   2.281   1.876 -0.2708 -0.5449 -0.3368
  162OSM    O1418177   6.406   2.168   1.859 -0.3817 -0.1358 -0.0615
  162OSM    O1118178   6.530   2.162   2.069  0.0179  0.5268  0.3031
  162OSM    O1218179   6.613   2.029   1.865  0.1357 -0.0226 -0.1979
  162OSM    C1S18180   6.545   2.042   2.143  0.5206  0.2369 -0.0465
  162OSM    H1S18181   6.651   2.009   2.142  0.1774 -1.0030  1.4766
  162OSM    H1T18182   6.482   1.963   2.096 -0.1286  1.0569 -0.5718
  162OSM     NF18183   6.558   1.991   2.388 -0.1028  0.0819  0.3506
  162OSM    HNF18184   6.481   1.951   2.436 -1.0661  2.5224  0.9672
  162OSM    C2S18185   6.509   2.077   2.289  0.0743 -0.0880  0.0223
  162OSM    H2S18186   6.557   2.173   2.318 -0.3789  0.9210 -2.3015
  162OSM    C3S18187   6.356   2.104   2.291 -0.4678  0.5568  0.4290
  162OSM    H3S18188   6.295   2.014   2.266 -0.2550  0.1570  1.3073
  162OSM     O318189   6.295   2.200   2.201 -0.5516  0.0055  0.2705
  162OSM    HO318190   6.372   2.232   2.154  1.3536 -0.7686  2.6875
  162OSM    C4S18191   6.319   2.138   2.430 -0.3390  0.0712 -0.0682
  162OSM    H4S18192   6.264   2.061   2.486 -1.0512  1.2431  0.8972
  162OSM    C5S18193   6.338   2.256   2.491 -0.1945  0.5647  0.9993
  162OSM    H5S18194   6.367   2.335   2.420  0.4627  0.5591  1.2526
  162OSM    C6S18195   6.283   2.298   2.622  0.0299 -0.5585 -0.3997
  162OSM    H6S18196   6.210   2.382   2.624  0.1028 -0.4470 -1.7932
  162OSM    H6T18197   6.364   2.351   2.678 -0.7924 -0.1634  0.4386
  162OSM    C7S18198   6.228   2.184   2.716 -0.6012 -0.2525 -0.1397
  162OSM    H7S18199   6.309   2.111   2.738 -0.7784  0.1315  1.9935
  162OSM    H7T18200   6.150   2.132   2.657  0.1683 -1.6390  0.0175
  162OSM    C8S18201   6.177   2.244   2.849  0.6283  0.0025  0.1055
  162OSM    H8S18202   6.099   2.177   2.892  0.2102  1.5180  1.8228
  162OSM    H8T18203   6.136   2.345   2.828  3.2976  0.5019 -3.7211
  162OSM    C9S18204   6.297   2.253   2.948  0.1978 -0.4367  0.6172
  162OSM    H9S18205   6.368   2.331   2.911  0.3570 -1.0386 -0.3601
  162OSM    H9T18206   6.352   2.157   2.953  0.4712 -0.2805  0.6314
  162OSM   C10S18207   6.249   2.300   3.083  0.3022 -0.4470  0.4674
  162OSM   H10S18208   6.186   2.226   3.136 -0.2765 -2.5892 -2.9097
  162OSM   H10T18209   6.187   2.391   3.063  0.5537 -0.2594  0.5393
  162OSM   C11S18210   6.371   2.335   3.163  0.0208 -0.3602  0.1765
  162OSM   H11S18211   6.438   2.401   3.104  3.3954  0.1725  4.1276
  162OSM   H11T18212   6.416   2.238   3.195 -0.0094 -0.6363 -0.6173
  162OSM   C12S18213   6.326   2.414   3.291  0.2771 -0.1941  0.1882
  162OSM   H12S18214   6.254   2.493   3.259  1.4171  0.9006  0.2364
  162OSM   H12T18215   6.420   2.461   3.328 -0.3529  1.2962 -0.0248
  162OSM   C13S18216   6.272   2.333   3.413  0.6689 -0.0584 -0.0151
  162OSM   H13S18217   6.357   2.278   3.460 -0.3980 -1.6831  0.0513
  162OSM   H13T18218   6.189   2.268   3.378 -0.8952  2.1286 -0.5783
  162OSM   C14S18219   6.215   2.427   3.516 -0.0015 -0.2379  0.5452
  162OSM   H14S18220   6.126   2.484   3.483  0.4907 -0.0744 -0.5474
  162OSM   H14T18221   6.289   2.508   3.533  0.5575 -0.3336 -1.2196
  162OSM   C15S18222   6.170   2.352   3.640 -0.5683 -0.3699 -0.9612
  162OSM   H15S18223   6.247   2.278   3.672 -0.4048  0.6805  1.2766
  162OSM   H15T18224   6.087   2.281   3.619 -3.3919  2.1232  1.0272
  162OSM   C16S18225   6.132   2.449   3.762 -0.4715  0.1949  0.2878
  162OSM   H16S18226   6.055   2.518   3.721 -1.5613 -0.7683  0.6858
  162OSM   H16T18227   6.234   2.492   3.775 -0.0010 -1.0571  0.8145
  162OSM   C17S18228   6.086   2.387   3.893 -0.0383 -0.2016 -0.6558
  162OSM   H17S18229   6.155   2.309   3.931  2.0768  2.6694  1.9528
  162OSM   H17T18230   5.993   2.333   3.864 -0.2368 -0.7707  0.9710
  162OSM   C18S18231   6.051   2.493   3.996  0.3447 -0.7979  0.2199
  162OSM   H18S18232   5.981   2.567   3.951  2.0103  0.4714 -0.3617
  162OSM   H18T18233   6.138   2.537   4.049  0.4231 -0.4136 -0.2279
  162OSM   H18U18234   5.988   2.458   4.081 -1.5470  2.0129  0.1123
  162OSM    C1F18235   6.683   1.953   2.405  0.1070  1.0159  0.2399
  162OSM     OF18236   6.777   2.004   2.342  0.0574 -0.0964 -0.0008
  162OSM    C2F18237   6.706   1.835   2.509  0.5697 -0.1971 -0.4155
  162OSM    H2F18238   6.748   1.752   2.448 -0.2163 -2.1416  1.5488
  162OSM    H2G18239   6.607   1.804   2.549 -0.5536  0.6029 -2.4360
  162OSM    C3F18240   6.806   1.892   2.613 -0.5356 -0.0854  0.5429
  162OSM    H3F18241   6.764   1.990   2.644 -1.3299  0.3985 -1.8260
  162OSM    H3G18242   6.906   1.912   2.569 -1.8680  3.0339 -1.3988
  162OSM    C4F18243   6.816   1.807   2.737 -0.2140  0.3185  0.0846
  162OSM    H4F18244   6.898   1.844   2.801  2.0909 -2.2639 -1.1818
  162OSM    H4G18245   6.850   1.708   2.698  0.8306  0.2626  1.0994
  162OSM    C5F18246   6.678   1.770   2.801  0.4879 -0.2518  1.0322
  162OSM    H5F18247   6.626   1.690   2.744 -1.9046  1.1118  1.1837
  162OSM    H5G18248   6.614   1.861   2.811 -1.0172 -1.1062 -0.2381
  162OSM    C6F18249   6.702   1.732   2.951 -0.5590 -0.1660  0.2886
  162OSM    H6F18250   6.792   1.780   2.993 -1.1140  1.3071 -0.1693
  162OSM    H6G18251   6.709   1.621   2.950 -0.8825 -0.1895  0.4462
  162OSM    C7F18252   6.583   1.780   3.039 -0.2776 -0.4162 -0.2294
  162OSM    H7F18253   6.506   1.700   3.035 -0.2659 -0.3790 -3.2045
  162OSM    H7G18254   6.540   1.876   3.003 -0.4195 -0.1560  0.6270
  162OSM    C8F18255   6.622   1.798   3.197  0.4485  0.2302 -0.0532
  162OSM    H8F18256   6.713   1.863   3.196  0.3870  0.3097 -0.6765
  162OSM    H8G18257   6.648   1.696   3.231 -1.8518 -0.5922 -0.5937
  162OSM    C9F18258   6.511   1.855   3.274 -0.3492  0.6875  1.2916
  162OSM    H9F18259   6.421   1.793   3.261 -0.8219  1.6825 -0.4456
  162OSM   C10F18260   6.508   1.954   3.357  0.3359 -0.1659 -0.5176
  162OSM   H10F18261   6.416   1.965   3.417 -0.3008 -2.3738 -0.9959
  162OSM   C11F18262   6.632   2.032   3.398  0.3476 -0.1926 -0.2534
  162OSM   H11F18263   6.703   2.040   3.312  1.2468 -0.9023  0.3992
  162OSM   H11G18264   6.697   1.983   3.474 -0.8472  0.5839  1.3300
  162OSM   C12F18265   6.609   2.184   3.441 -0.5624  1.0995 -0.4311
  162OSM   H12F18266   6.534   2.183   3.523 -1.7058  1.2565 -1.4419
  162OSM   H12G18267   6.578   2.237   3.348 -2.6765  3.1755  1.3131
  162OSM   C13F18268   6.748   2.236   3.485 -0.1553 -0.0188 -0.5460
  162OSM   H13F18269   6.820   2.227   3.401  2.0323 -1.2596  1.3412
  162OSM   H13G18270   6.784   2.178   3.572 -2.0357  0.1970  0.4384
  162OSM   C14F18271   6.735   2.384   3.524 -0.4448  0.8032 -0.1369
  162OSM   H14F18272   6.648   2.436   3.477 -1.2081  0.3650  0.7634
  162OSM   H14G18273   6.826   2.429   3.479 -0.2590  0.5271 -0.0385
  162OSM   C15F18274   6.728   2.418   3.670 -0.3328 -0.1560 -0.4428
  162OSM   H15F18275   6.710   2.527   3.679 -0.6246 -0.0861 -1.6705
  162OSM   H15G18276   6.821   2.384   3.719  0.7513 -1.6061 -3.2868
  162OSM   C16F18277   6.618   2.341   3.752  0.0197 -0.2118  0.7148
  162OSM   H16F18278   6.636   2.232   3.737 -1.7707 -0.6815  1.6347
  162OSM   H16G18279   6.520   2.372   3.710  0.4786  1.4336  0.8197
  162OSM   C17F18280   6.612   2.369   3.902 -0.3877  0.4429  0.1822
  162OSM   H17F18281   6.717   2.349   3.932 -0.0249 -1.3683 -1.9886
  162OSM   H17G18282   6.552   2.287   3.948  2.0781 -0.5788  1.7857
  162OSM   C18F18283   6.554   2.503   3.950 -0.3236 -0.2349 -0.2112
  162OSM   H18F18284   6.446   2.523   3.931 -0.6091  1.8613  2.8697
  162OSM   H18G18285   6.623   2.583   3.916  2.1699 -1.5092  1.5767
  162OSM   H18H18286   6.562   2.506   4.061 -0.7572  0.3727 -0.1911
  163OSM      N18287   4.969   4.188   2.108  0.4267 -0.6333  0.1145
  163OSM    C1518288   5.007   4.055   2.049 -0.7079  0.7388  0.1102
  163OSM   H15A18289   5.106   4.063   2.007 -0.0233  1.8413  1.8276
  163OSM   H15B18290   4.945   4.035   1.963  0.1807 -0.6835 -0.2430
  163OSM   H15C18291   4.998   3.974   2.121 -0.1701 -0.3749 -1.0286
  163OSM    C1418292   4.956   4.286   2.000 -0.3070  0.1029 -0.1643
  163OSM   H14A18293   4.967   4.384   2.044  0.0256 -0.8370  2.0084
  163OSM   H14B18294   4.861   4.278   1.949 -1.2646  0.7021  1.4517
  163OSM   H14C18295   5.032   4.263   1.927 -0.3958 -0.9033  0.0346
  163OSM    C1318296   4.833   4.180   2.179  0.6381  0.2123  0.1233
  163OSM   H13A18297   4.826   4.274   2.231  1.5338  0.2014  0.2824
  163OSM   H13B18298   4.838   4.094   2.243  0.1699 -2.4864 -3.1664
  163OSM   H13C18299   4.757   4.173   2.102  2.4690  0.4253 -1.8214
  163OSM    C1218300   5.069   4.229   2.215  0.1794  0.3915 -0.3485
  163OSM   H12A18301   5.166   4.208   2.173  1.0009  2.2449  0.4957
  163OSM   H12B18302   5.066   4.159   2.297 -1.3337  0.1326 -0.5822
  163OSM    C1118303   5.071   4.378   2.259 -0.0132 -0.0085  0.4933
  163OSM   H11A18304   5.135   4.380   2.350 -0.0981 -1.9067  0.6204
  163OSM   H11B18305   4.970   4.408   2.291 -0.2679 -2.1271  1.8559
  163OSM      P18306   5.114   4.607   2.147 -0.4173  0.2449  0.0966
  163OSM    O1318307   5.199   4.653   2.032  0.3073  0.1428  0.1965
  163OSM    O1418308   4.968   4.647   2.135  0.1011  0.0825 -0.2089
  163OSM    O1118309   5.172   4.654   2.284  0.3759  0.0520 -0.7384
  163OSM    O1218310   5.115   4.452   2.146 -0.5623 -0.8733 -0.1938
  163OSM    C1S18311   5.312   4.633   2.324  0.6640 -0.3350 -0.2555
  163OSM    H1S18312   5.387   4.698   2.274  3.7398 -2.1649  1.6161
  163OSM    H1T18313   5.349   4.529   2.309 -0.4323 -0.7318 -0.2777
  163OSM     NF18314   5.464   4.699   2.506 -0.2620 -0.3018 -0.0362
  163OSM    HNF18315   5.522   4.638   2.560  1.3975 -0.0610 -1.4441
  163OSM    C2S18316   5.325   4.671   2.480 -0.3386  0.0462  0.3106
  163OSM    H2S18317   5.266   4.762   2.503 -3.0115 -1.5704  0.2586
  163OSM    C3S18318   5.277   4.551   2.569  0.0385  0.5866  0.5323
  163OSM    H3S18319   5.340   4.462   2.548 -0.2426  0.3629  0.6444
  163OSM     O318320   5.143   4.503   2.537 -0.4339  0.2641  0.2343
  163OSM    HO318321   5.117   4.555   2.460 -1.2091  0.0129  0.3231
  163OSM    C4S18322   5.292   4.576   2.710 -0.4488  0.1608  0.9634
  163OSM    H4S18323   5.365   4.510   2.760  1.2492  0.2294 -1.2437
  163OSM    C5S18324   5.200   4.652   2.772  0.1036 -0.2251 -0.1560
  163OSM    H5S18325   5.120   4.705   2.717 -0.0171  0.7541  0.9199
  163OSM    C6S18326   5.180   4.663   2.918 -0.0576  0.0376  0.4282
  163OSM    H6S18327   5.083   4.615   2.945  0.4455 -3.2152 -2.7413
  163OSM    H6T18328   5.171   4.768   2.953 -1.2809  0.0919  0.0097
  163OSM    C7S18329   5.281   4.593   3.005  0.2386 -0.0568 -0.3976
  163OSM    H7S18330   5.385   4.620   2.974  0.0754  2.1338  0.7658
  163OSM    H7T18331   5.281   4.482   2.992 -0.6735 -0.3095  1.4566
  163OSM    C8S18332   5.258   4.609   3.151 -0.8672  0.1011  0.2230
  163OSM    H8S18333   5.333   4.546   3.204 -0.4040 -0.3179 -0.9027
  163OSM    H8T18334   5.160   4.566   3.179 -0.0984 -0.7986  1.6564
  163OSM    C9S18335   5.278   4.758   3.204 -0.0796 -0.5701 -0.2561
  163OSM    H9S18336   5.205   4.821   3.148 -1.4932 -1.2825  0.7176
  163OSM    H9T18337   5.382   4.794   3.186 -0.7386  1.6563  0.0822
  163OSM   C10S18338   5.230   4.791   3.350 -0.1084  0.2615  0.2825
  163OSM   H10S18339   5.119   4.793   3.348 -0.1139  0.1557  0.4637
  163OSM   H10T18340   5.267   4.890   3.385  1.8828  0.0830 -1.1499
  163OSM   C11S18341   5.272   4.685   3.453 -0.3492  0.1747 -0.1346
  163OSM   H11S18342   5.260   4.582   3.412  0.7846 -0.4851  1.1075
  163OSM   H11T18343   5.197   4.680   3.534 -0.8542 -1.8072 -0.6575
  163OSM   C12S18344   5.413   4.704   3.509  0.1675 -0.3776  0.7587
  163OSM   H12S18345   5.421   4.807   3.548  0.9276 -0.9333  2.1431
  163OSM   H12T18346   5.485   4.695   3.426 -0.2363  2.4718  0.0004
  163OSM   C13S18347   5.448   4.596   3.615  0.1804 -0.2616 -0.5493
  163OSM   H13S18348   5.396   4.502   3.586 -0.0284 -0.1232 -0.6323
  163OSM   H13T18349   5.404   4.643   3.706  0.0244 -1.2861 -0.0830
  163OSM   C14S18350   5.593   4.573   3.651  0.9568  0.1214  0.1794
  163OSM   H14S18351   5.647   4.670   3.660 -2.0894  2.0725 -0.9188
  163OSM   H14T18352   5.631   4.522   3.560  0.1327  1.0010 -0.6901
  163OSM   C15S18353   5.619   4.489   3.774 -0.2817  0.4078 -0.6042
  163OSM   H15S18354   5.538   4.414   3.786  0.7964 -1.0039 -1.7154
  163OSM   H15T18355   5.617   4.557   3.862 -0.7968 -0.9734  0.4944
  163OSM   C16S18356   5.748   4.406   3.764 -0.4585 -0.4628 -0.0360
  163OSM   H16S18357   5.840   4.467   3.755  0.7080 -2.3773 -2.5110
  163OSM   H16T18358   5.755   4.337   3.677  1.5631 -0.6143  0.1880
  163OSM   C17S18359   5.769   4.324   3.890  0.3244  0.0892 -0.3609
  163OSM   H17S18360   5.875   4.290   3.886  0.1640 -0.3084 -2.2287
  163OSM   H17T18361   5.706   4.232   3.890 -0.1228  0.3670 -1.8493
  163OSM   C18S18362   5.755   4.405   4.024 -0.0591  0.2060 -0.3189
  163OSM   H18S18363   5.807   4.501   4.006 -1.3904  1.3419  1.5176
  163OSM   H18T18364   5.812   4.356   4.105  1.1318  0.3997 -1.0220
  163OSM   H18U18365   5.644   4.403   4.036 -0.0640 -2.7202 -0.2273
  163OSM    C1F18366   5.525   4.800   2.476 -0.0423 -0.8326 -0.3321
  163OSM     OF18367   5.468   4.891   2.414  0.2271  0.0610 -0.1014
  163OSM    C2F18368   5.669   4.819   2.517 -0.1553 -0.0549  0.1545
  163OSM    H2F18369   5.728   4.752   2.451 -1.8525 -0.5218 -0.9419
  163OSM    H2G18370   5.678   4.795   2.625 -1.5951  1.0943  0.5638
  163OSM    C3F18371   5.733   4.962   2.472  0.9321 -0.2259  0.1518
  163OSM    H3F18372   5.709   4.990   2.367  1.2613 -0.9846 -0.1335
  163OSM    H3G18373   5.843   4.965   2.457  1.1426  1.4025  1.7211
  163OSM    C4F18374   5.693   5.086   2.563 -0.0739 -0.0776  0.2584
  163OSM    H4F18375   5.731   5.077   2.667 -0.5446  1.6797  0.6257
  163OSM    H4G18376   5.584   5.082   2.584  0.0347  1.2371  1.2189
  163OSM    C5F18377   5.739   5.213   2.490 -0.1878 -0.6063  0.0967
  163OSM    H5F18378   5.684   5.228   2.395 -0.1029 -0.8773  0.0050
  163OSM    H5G18379   5.849   5.212   2.473 -0.5985  0.3347 -3.1480
  163OSM    C6F18380   5.711   5.340   2.566 -0.1107  0.8330 -0.6851
  163OSM    H6F18381   5.763   5.329   2.663 -2.2250 -0.3415  0.3922
  163OSM    H6G18382   5.601   5.344   2.584  0.0244 -1.0266  0.8130
  163OSM    C7F18383   5.772   5.462   2.498  0.1283  0.7762  0.5971
  163OSM    H7F18384   5.769   5.436   2.390 -0.5584  0.5232  0.6725
  163OSM    H7G18385   5.881   5.466   2.521 -0.0268  0.3008  1.4728
  163OSM    C8F18386   5.690   5.581   2.538  1.0762  0.0487  0.0988
  163OSM    H8F18387   5.595   5.596   2.482  0.9869  0.0619  0.2528
  163OSM    H8G18388   5.742   5.666   2.490  0.4596 -0.2952 -1.2203
  163OSM    C9F18389   5.691   5.608   2.688  0.5258  0.4242 -0.4073
  163OSM    H9F18390   5.783   5.649   2.730  0.6636 -0.0330 -0.2603
  163OSM   C10F18391   5.578   5.614   2.757 -0.2599  0.6796 -0.5211
  163OSM   H10F18392   5.583   5.632   2.865  0.5217 -2.5420  0.1088
  163OSM   C11F18393   5.443   5.574   2.713 -0.2686 -0.1895  0.1206
  163OSM   H11F18394   5.445   5.502   2.628  1.2441  1.2688 -1.1400
  163OSM   H11G18395   5.394   5.667   2.676  0.4713  0.1274 -0.0825
  163OSM   C12F18396   5.374   5.511   2.826  0.7038  0.0053 -0.3566
  163OSM   H12F18397   5.271   5.494   2.788  0.8248 -1.9625  0.1148
  163OSM   H12G18398   5.363   5.586   2.908 -0.0356 -1.0764  0.5605
  163OSM   C13F18399   5.431   5.378   2.862 -0.2151 -0.0827  0.5894
  163OSM   H13F18400   5.533   5.395   2.903 -0.5371 -0.9757  1.8176
  163OSM   H13G18401   5.449   5.316   2.772  0.9202  1.4244 -0.2605
  163OSM   C14F18402   5.335   5.306   2.957 -0.7451  0.2880 -0.0001
  163OSM   H14F18403   5.274   5.227   2.908 -2.1419  1.0958  0.3809
  163OSM   H14G18404   5.273   5.381   3.010  0.4071  1.3348 -0.0708
  163OSM   C15F18405   5.416   5.240   3.066  0.4478 -0.0175  0.6429
  163OSM   H15F18406   5.486   5.314   3.110 -0.1417  1.2446 -0.4834
  163OSM   H15G18407   5.470   5.162   3.007 -0.4684  0.6543 -1.1517
  163OSM   C16F18408   5.340   5.168   3.182 -0.4520 -0.1229  0.2153
  163OSM   H16F18409   5.412   5.103   3.235  0.3350  0.5009 -0.0720
  163OSM   H16G18410   5.277   5.084   3.144  0.1798 -0.1911 -0.7082
  163OSM   C17F18411   5.252   5.265   3.261 -0.3475 -0.2699  0.4191
  163OSM   H17F18412   5.194   5.330   3.192 -0.7324  1.8786  2.6458
  163OSM   H17G18413   5.320   5.336   3.312 -1.6316  1.8397 -0.6648
  163OSM   C18F18414   5.155   5.191   3.358 -0.4719 -0.5913 -0.2636
  163OSM   H18F18415   5.213   5.127   3.428  1.7115 -1.3951 -2.6833
  163OSM   H18G18416   5.083   5.132   3.298 -1.2362 -2.6163  2.3974
  163OSM   H18H18417   5.081   5.261   3.403 -1.2212 -0.4515 -1.6673
  164OSM      N18418   0.123   3.756   1.990  0.0372  0.5096  0.3877
  164OSM    C1518419  -0.026   3.776   1.978 -0.3877 -0.3869 -0.2456
  164OSM   H15A18420  -0.036   3.842   1.892 -0.6428 -0.5960 -0.3777
  164OSM   H15B18421  -0.060   3.806   2.076 -0.6425  0.5995 -0.6221
  164OSM   H15C18422  -0.073   3.682   1.954  0.0209 -0.4894 -0.6609
  164OSM    C1418423   0.155   3.664   1.876 -0.4447 -0.0245 -0.2404
  164OSM   H14A18424   0.256   3.627   1.885 -0.8169 -1.3652 -1.2359
  164OSM   H14B18425   0.158   3.708   1.777 -2.4331  1.9103  0.4768
  164OSM   H14C18426   0.090   3.578   1.880  2.7752 -2.6372  0.7493
  164OSM    C1318427   0.196   3.883   1.952 -0.2699  0.4426 -0.7200
  164OSM   H13A18428   0.159   3.918   1.858 -1.5982 -1.6625 -1.0527
  164OSM   H13B18429   0.297   3.848   1.939 -0.4718 -0.2180 -0.5633
  164OSM   H13C18430   0.177   3.959   2.026 -2.1440 -0.4169 -0.2389
  164OSM    C1218431   0.162   3.698   2.126 -0.3037 -0.3607 -0.5448
  164OSM   H12A18432   0.131   3.760   2.208  0.3912 -3.5574  2.3377
  164OSM   H12B18433   0.270   3.706   2.124 -0.1202 -1.4515  2.0612
  164OSM    C1118434   0.125   3.552   2.166 -0.0151  0.1579  0.0048
  164OSM   H11A18435   0.018   3.532   2.191  0.7720 -1.9479  2.0478
  164OSM   H11B18436   0.163   3.536   2.269 -0.1166 -4.6774 -0.4567
  164OSM      P18437   0.324   3.407   2.076  0.1708  0.1921 -0.2623
  164OSM    O1318438   0.340   3.273   2.004  0.0383 -0.4530  0.2188
  164OSM    O1418439   0.402   3.524   2.032  0.1472  0.1241  0.1927
  164OSM    O1118440   0.345   3.388   2.230 -0.1807 -0.5098 -0.4032
  164OSM    O1218441   0.173   3.453   2.073 -0.2300  0.5032 -0.1088
  164OSM    C1S18442   0.443   3.461   2.305 -0.6299  0.0699 -0.6774
  164OSM    H1S18443   0.394   3.547   2.355 -2.8176 -0.7910 -1.1918
  164OSM    H1T18444   0.528   3.495   2.244  0.2938  1.3000  1.2026
  164OSM     NF18445   0.640   3.454   2.470  0.2350  0.6238 -0.1155
  164OSM    HNF18446   0.731   3.420   2.447  0.9797  1.3412  1.6262
  164OSM    C2S18447   0.527   3.376   2.417  0.9710 -0.8467 -0.0044
  164OSM    H2S18448   0.455   3.353   2.499  0.5474 -0.2836 -0.2148
  164OSM    C3S18449   0.563   3.232   2.359  0.1062  0.3552 -0.1996
  164OSM    H3S18450   0.631   3.251   2.273  0.8502  2.6912  0.8179
  164OSM     O318451   0.452   3.161   2.309  0.1482  0.0327  1.0782
  164OSM    HO318452   0.396   3.231   2.275  2.1579  0.7339 -1.0725
  164OSM    C4S18453   0.647   3.150   2.458 -0.0891 -0.1492  1.4379
  164OSM    H4S18454   0.754   3.163   2.435 -0.3831  2.2078  1.1680
  164OSM    C5S18455   0.609   3.049   2.538 -0.2591  0.1593  0.0849
  164OSM    H5S18456   0.505   3.014   2.530 -0.8208  1.8225 -0.1737
  164OSM    C6S18457   0.695   2.945   2.613 -0.0415  0.3213  0.3593
  164OSM    H6S18458   0.801   2.972   2.593  0.2180  0.2675  1.5741
  164OSM    H6T18459   0.681   2.842   2.575 -0.4533  0.3546  0.4181
  164OSM    C7S18460   0.684   2.947   2.766  0.6168  0.8242  0.5892
  164OSM    H7S18461   0.578   2.936   2.796  0.8057  1.5967  1.5966
  164OSM    H7T18462   0.711   3.052   2.792  0.0458  1.0536  0.2646
  164OSM    C8S18463   0.784   2.852   2.820  0.6757  0.4363  0.2728
  164OSM    H8S18464   0.888   2.883   2.800  0.0271  2.5033 -0.1559
  164OSM    H8T18465   0.765   2.752   2.773 -0.7634  2.1854 -3.2425
  164OSM    C9S18466   0.778   2.853   2.974 -0.2116 -0.6981 -0.2662
  164OSM    H9S18467   0.682   2.817   3.018  0.6077 -0.9071  1.4681
  164OSM    H9T18468   0.790   2.958   3.008 -2.9976 -0.2526 -0.4393
  164OSM   C10S18469   0.898   2.785   3.048 -0.2690 -0.1197  0.8974
  164OSM   H10S18470   0.997   2.824   3.018  0.0192 -1.1109  0.5227
  164OSM   H10T18471   0.899   2.678   3.019 -1.3199  0.0435  0.1967
  164OSM   C11S18472   0.913   2.781   3.199 -0.1518  0.2589  0.0230
  164OSM   H11S18473   1.012   2.731   3.204  0.9372  2.4187  1.9209
  164OSM   H11T18474   0.827   2.721   3.236 -0.2314 -0.6498 -1.5516
  164OSM   C12S18475   0.925   2.915   3.271  0.3092  0.3721 -0.1244
  164OSM   H12S18476   0.826   2.961   3.251  0.2123 -0.1937 -1.0154
  164OSM   H12T18477   1.000   2.982   3.224  0.1193 -1.1021 -2.7002
  164OSM   C13S18478   0.935   2.899   3.423  0.1349  0.7135 -0.0864
  164OSM   H13S18479   1.030   2.842   3.431 -1.0295 -1.2003  0.8611
  164OSM   H13T18480   0.855   2.831   3.461  0.8369  0.0618  0.2509
  164OSM   C14S18481   0.917   3.031   3.497 -0.2225 -0.1107  0.1139
  164OSM   H14S18482   0.818   3.068   3.464  0.0108  2.0906  1.7104
  164OSM   H14T18483   0.998   3.103   3.472  0.0144 -0.3062  0.3214
  164OSM   C15S18484   0.907   3.018   3.650 -0.7446 -0.0508  0.1471
  164OSM   H15S18485   0.951   2.922   3.685 -1.4365 -0.6521 -0.6106
  164OSM   H15T18486   0.799   3.005   3.672 -0.7018  0.8133  0.8986
  164OSM   C16S18487   0.954   3.146   3.725  0.6859  0.4524 -0.5910
  164OSM   H16S18488   0.881   3.225   3.697 -0.3234 -1.0726 -2.6138
  164OSM   H16T18489   1.053   3.183   3.693  0.3975  3.0115  1.1964
  164OSM   C17S18490   0.961   3.140   3.877 -0.2651 -0.0084 -0.1384
  164OSM   H17S18491   1.023   3.051   3.904  0.2041  0.6650  1.0891
  164OSM   H17T18492   0.871   3.100   3.928  0.8637 -0.6188  1.4673
  164OSM   C18S18493   1.013   3.269   3.945  0.7101 -0.6707 -0.0370
  164OSM   H18S18494   1.107   3.315   3.909 -0.6158  2.8851  0.6969
  164OSM   H18T18495   1.039   3.268   4.053 -2.0403  2.8900  0.8601
  164OSM   H18U18496   0.936   3.348   3.936  0.7614 -0.5295  0.6702
  164OSM    C1F18497   0.636   3.571   2.541  0.2310  0.1850  0.1737
  164OSM     OF18498   0.528   3.627   2.565 -0.4461  0.0594 -0.4254
  164OSM    C2F18499   0.776   3.630   2.575  0.7696 -0.0322 -1.0430
  164OSM    H2F18500   0.815   3.697   2.495  2.6061  2.6255  1.8256
  164OSM    H2G18501   0.846   3.543   2.581 -0.9434 -1.3798  0.8798
  164OSM    C3F18502   0.763   3.704   2.710  0.0344 -0.4548 -0.0280
  164OSM    H3F18503   0.713   3.650   2.793 -0.1475  1.2083  0.9966
  164OSM    H3G18504   0.702   3.795   2.686  0.1258 -0.8678 -1.9746
  164OSM    C4F18505   0.902   3.753   2.760 -0.0266  0.0052 -0.6757
  164OSM    H4F18506   0.963   3.808   2.685  1.2106 -1.6377 -0.9263
  164OSM    H4G18507   0.953   3.673   2.818  0.1251 -0.4837 -1.4699
  164OSM    C5F18508   0.875   3.862   2.867  0.6840  0.1488 -0.1868
  164OSM    H5F18509   0.818   3.807   2.945 -3.4500  0.9012 -2.3599
  164OSM    H5G18510   0.813   3.950   2.839 -0.6283 -0.8423 -0.4907
  164OSM    C6F18511   1.004   3.925   2.920  0.0559  0.0053  0.0898
  164OSM    H6F18512   1.064   3.963   2.834 -1.6351  3.0284  0.0945
  164OSM    H6G18513   1.047   3.842   2.980 -1.5069  1.0129  2.7950
  164OSM    C7F18514   0.975   4.051   3.011 -0.2830 -0.4946  0.1543
  164OSM    H7F18515   0.895   4.103   2.954 -0.2448 -1.9922 -1.3387
  164OSM    H7G18516   1.065   4.116   3.017 -1.5480  1.5348 -1.5283
  164OSM    C8F18517   0.930   4.013   3.160  0.1674  0.0975  0.3766
  164OSM    H8F18518   0.847   3.940   3.164  0.6433 -0.5156 -0.4441
  164OSM    H8G18519   0.909   4.113   3.203 -2.4243  0.0381 -0.5735
  164OSM    C9F18520   1.044   3.940   3.234  0.0005  0.3251  0.3189
  164OSM    H9F18521   1.121   3.895   3.169 -0.4793 -0.1738  0.0870
  164OSM   C10F18522   1.053   3.938   3.365 -0.2134 -0.1866  0.8552
  164OSM   H10F18523   1.133   3.873   3.404  1.9141  2.1959  0.7460
  164OSM   C11F18524   0.971   4.016   3.467 -0.1817  0.0340 -0.5937
  164OSM   H11F18525   0.911   3.948   3.531  0.0013 -1.0757 -1.5542
  164OSM   H11G18526   0.901   4.094   3.432 -0.1625  1.0992  1.5501
  164OSM   C12F18527   1.068   4.099   3.554  0.4587 -0.6104 -0.0222
  164OSM   H12F18528   1.151   4.149   3.499  1.6373 -1.7882  0.6309
  164OSM   H12G18529   1.130   4.034   3.619 -1.9488  0.0722  3.2247
  164OSM   C13F18530   0.989   4.205   3.631 -0.3940  0.6558  0.1868
  164OSM   H13F18531   0.920   4.161   3.706  0.2959 -0.0118  0.4457
  164OSM   H13G18532   0.936   4.273   3.561 -0.7685 -0.8040 -0.9783
  164OSM   C14F18533   1.087   4.302   3.704 -0.6306  0.1418 -0.0192
  164OSM   H14F18534   1.135   4.369   3.629  1.9118 -0.4702  0.9541
  164OSM   H14G18535   1.160   4.241   3.762 -2.3780 -0.4466  1.6701
  164OSM   C15F18536   1.012   4.388   3.808 -0.1049  0.0478  0.4438
  164OSM   H15F18537   1.086   4.445   3.869 -0.0428  1.5792 -0.9884
  164OSM   H15G18538   0.942   4.327   3.869 -0.6091 -1.6576 -1.7027
  164OSM   C16F18539   0.926   4.497   3.748 -0.0732 -0.2307 -0.1175
  164OSM   H16F18540   0.853   4.427   3.701  1.2034 -1.5243 -0.2395
  164OSM   H16G18541   0.983   4.550   3.669 -0.6727  0.0396 -0.3790
  164OSM   C17F18542   0.881   4.608   3.835 -1.1194  0.0874 -0.6049
  164OSM   H17F18543   0.970   4.666   3.866  0.2244 -1.3649 -1.5747
  164OSM   H17G18544   0.852   4.558   3.929 -0.6718  0.8897 -0.0344
  164OSM   C18F18545   0.779   4.697   3.764  0.0583  0.4365 -0.6078
  164OSM   H18F18546   0.679   4.650   3.752 -0.1944  0.7825  0.0864
  164OSM   H18G18547   0.823   4.717   3.664 -0.9710  1.0342 -0.9656
  164OSM   H18H18548   0.750   4.799   3.798 -1.3833  0.4446 -1.7417
  165SAPS     N18549   0.640   4.236   6.723  0.1289  0.9448 -0.3361
  165SAPS   HN118550   0.674   4.301   6.649  0.8355  0.7324 -0.2037
  165SAPS   HN218551   0.562   4.293   6.761 -0.6925  0.1592 -0.7968
  165SAPS   HN318552   0.710   4.222   6.798 -1.2799 -0.9440  0.7090
  165SAPS   C1218553   0.589   4.108   6.668  0.1518 -0.5469  0.1581
  165SAPS  H12A18554   0.664   4.071   6.599 -0.9240 -0.9128 -0.8431
  165SAPS   C1318555   0.558   4.000   6.768  0.0282 -0.5488  0.4079
  165SAPS  O13A18556   0.554   4.033   6.890  0.0239 -0.5630  0.4228
  165SAPS  O13B18557   0.525   3.886   6.733  0.4187 -0.1673 -0.0037
  165SAPS   C1118558   0.459   4.153   6.590  0.3330  0.6677 -0.4409
  165SAPS  H11A18559   0.378   4.177   6.662  0.1316 -2.0991  0.3302
  165SAPS  H11B18560   0.421   4.066   6.533 -0.8037  0.2390  0.9320
  165SAPS     P18561   0.447   4.271   6.358  0.2615 -0.0411  0.0932
  165SAPS   O1318562   0.315   4.197   6.343 -0.1279  0.0360 -0.5374
  165SAPS   O1418563   0.453   4.411   6.314  0.3234  0.2383 -0.4733
  165SAPS   O1218564   0.490   4.267   6.512 -0.0147 -0.1413  0.3261
  165SAPS   O1118565   0.559   4.192   6.282  0.0673 -0.1423 -0.0182
  165SAPS    C118566   0.702   4.197   6.322 -0.0376  0.5107  1.2244
  165SAPS    HA18567   0.732   4.206   6.428 -0.5867  2.3871  1.2537
  165SAPS    HB18568   0.753   4.104   6.290 -1.5607  0.1102 -0.2015
  165SAPS    C218569   0.767   4.318   6.242 -0.0463  0.3845 -0.0676
  165SAPS    HS18570   0.733   4.419   6.276 -2.4416 -0.4339  0.1939
  165SAPS   O2118571   0.753   4.288   6.097  0.2046  0.5220 -0.3109
  165SAPS   C2118572   0.732   4.395   6.022 -0.1507 -0.7041  0.3895
  165SAPS   O2218573   0.725   4.512   6.058  0.3123 -0.3211  0.4344
  165SAPS   C2218574   0.742   4.342   5.873 -0.2849  0.6392 -0.1396
  165SAPS   H2R18575   0.851   4.332   5.854 -0.4534  0.4226 -1.0349
  165SAPS   H2S18576   0.698   4.240   5.866  1.9197 -0.3927  0.2040
  165SAPS    C318577   0.925   4.308   6.276  0.6235  0.1734 -0.3326
  165SAPS    HX18578   0.956   4.205   6.249 -2.3063 -0.4037 -1.8943
  165SAPS    HY18579   0.932   4.313   6.387 -0.6437  0.1017 -0.2352
  165SAPS   O3118580   1.011   4.403   6.218 -0.4974 -0.2382  0.1537
  165SAPS   C3118581   1.014   4.513   6.286 -0.0303  0.3541 -0.1037
  165SAPS   O3218582   0.950   4.535   6.385  0.2408  0.1140 -0.4276
  165SAPS   C3218583   1.107   4.606   6.215  0.4728  0.2613  0.3226
  165SAPS   H2X18584   1.173   4.543   6.152  0.2568  0.1829  0.1734
  165SAPS   H2Y18585   1.159   4.672   6.288 -0.3166  1.3489 -0.0783
  165SAPS   C2318586   0.673   4.441   5.765  0.1163 -0.0726 -0.2669
  165SAPS   H3R18587   0.724   4.432   5.666  0.3860 -0.6355 -0.0823
  165SAPS   H3S18588   0.673   4.548   5.794 -1.2063 -0.5310  1.6021
  165SAPS   C2418589   0.531   4.394   5.742  0.4907  0.9209  0.0247
  165SAPS   H4R18590   0.528   4.290   5.705  1.8773  0.1265  1.9370
  165SAPS   H4S18591   0.487   4.451   5.658 -0.5950 -1.7944 -1.3258
  165SAPS   C2518592   0.440   4.400   5.864  0.0661  0.3468 -0.4714
  165SAPS   H5R18593   0.433   4.499   5.911  0.0756 -0.3417  1.0777
  165SAPS   C2618594   0.376   4.296   5.925  0.6372 -0.6669 -0.1228
  165SAPS   H6R18595   0.307   4.328   6.004  0.5834  0.8791 -0.7621
  165SAPS   C2718596   0.373   4.152   5.886  1.1011 -0.0079 -0.2993
  165SAPS   H7R18597   0.459   4.113   5.828 -1.2674 -0.9201 -3.4880
  165SAPS   H7S18598   0.280   4.142   5.826  1.0462 -0.2647 -0.1711
  165SAPS   C2818599   0.356   4.074   6.015  0.0523  0.3644 -0.4537
  165SAPS   H8R18600   0.359   4.132   6.109 -1.7119  0.6068 -0.5076
  165SAPS   C2918601   0.337   3.943   6.034  1.0486  0.5381  0.2649
  165SAPS   H9R18602   0.342   3.907   6.138  0.6855  1.5443  0.6418
  165SAPS  C21018603   0.317   3.837   5.925 -0.0791 -0.5098 -0.3453
  165SAPS  H10R18604   0.395   3.851   5.847  0.3354  0.9500  0.2879
  165SAPS  H10S18605   0.222   3.858   5.872 -1.8372 -2.1157  2.0031
  165SAPS  C21118606   0.324   3.694   5.969 -0.9579 -0.0666  0.5951
  165SAPS  H11R18607   0.306   3.672   6.075  2.0424 -2.9411  0.6938
  165SAPS  C21218608   0.374   3.586   5.898 -0.5503 -0.6832  0.6433
  165SAPS  H12R18609   0.375   3.491   5.954 -0.2763  0.1826  2.1584
  165SAPS  C21318610   0.420   3.574   5.754 -0.7844  0.3542  0.3757
  165SAPS  H13R18611   0.432   3.673   5.704 -0.8402  1.2581  2.0867
  165SAPS  H13S18612   0.341   3.516   5.702  1.6011 -1.9714 -0.8843
  165SAPS  C21418613   0.562   3.515   5.749  0.0718  0.5285 -0.0448
  165SAPS  H14R18614   0.631   3.554   5.825  0.5335  0.1979 -0.2899
  165SAPS  C21518615   0.612   3.437   5.652 -1.0151 -0.2094  0.6715
  165SAPS  H15R18616   0.713   3.396   5.668 -0.6743  0.2187 -0.2825
  165SAPS  C21618617   0.551   3.400   5.523  0.4712 -0.5826  0.7396
  165SAPS  H16R18618   0.483   3.482   5.493  0.9467  0.1556  1.6123
  165SAPS  H16S18619   0.494   3.305   5.525 -1.3069  0.3853 -1.0451
  165SAPS  C21718620   0.664   3.404   5.409  0.4363  0.1214  0.1868
  165SAPS  H17R18621   0.725   3.316   5.439  0.2928  1.2885  4.6796
  165SAPS  H17S18622   0.730   3.493   5.397  1.3845 -0.4044  1.3418
  165SAPS  C21818623   0.607   3.370   5.272 -0.4454  0.2626  0.1361
  165SAPS  H18R18624   0.533   3.290   5.294 -0.7255  0.3188 -0.5932
  165SAPS  H18S18625   0.689   3.329   5.209 -0.0453  0.0963  0.7592
  165SAPS  C21918626   0.531   3.484   5.198 -0.5765 -0.8370 -0.0784
  165SAPS  H19R18627   0.601   3.570   5.201 -0.3269 -1.0625  0.9186
  165SAPS  H19S18628   0.445   3.506   5.265  1.0085  2.1344  1.1931
  165SAPS  C22018629   0.496   3.445   5.062  0.1280 -0.3292  0.3214
  165SAPS  H20R18630   0.589   3.411   5.012 -0.6216 -0.2432 -1.2250
  165SAPS  H20S18631   0.461   3.539   5.012 -1.1392 -0.9140  0.0767
  165SAPS  H20T18632   0.419   3.365   5.055 -1.4224  1.0535  0.6817
  165SAPS   C3318633   1.024   4.697   6.116  0.2747 -0.2074  0.2476
  165SAPS   H3X18634   0.968   4.775   6.172 -0.5849  0.4408 -1.4378
  165SAPS   H3Y18635   0.962   4.640   6.044 -1.0814 -0.9244  1.8891
  165SAPS   C3418636   1.124   4.778   6.030  0.4639 -0.7020 -0.5608
  165SAPS   H4X18637   1.186   4.706   5.973  0.3925 -0.3223 -1.1380
  165SAPS   H4Y18638   1.177   4.849   6.097 -1.9795  1.3445 -0.6140
  165SAPS   C3518639   1.059   4.865   5.916  0.8259 -0.2643  0.0704
  165SAPS   H5X18640   0.986   4.937   5.959  0.9012  0.9867 -1.8142
  165SAPS   H5Y18641   1.011   4.797   5.842  2.4080  0.2269 -1.4835
  165SAPS   C3618642   1.164   4.956   5.848 -0.0845  0.3328 -0.2474
  165SAPS   H6X18643   1.201   5.032   5.920 -2.1112  1.8286 -0.6896
  165SAPS   H6Y18644   1.116   5.011   5.764 -0.9287  0.2295  0.1535
  165SAPS   C3718645   1.288   4.878   5.795  0.6634 -0.0079 -0.0605
  165SAPS   H7X18646   1.255   4.781   5.752  1.1608 -0.6207  0.9033
  165SAPS   H7Y18647   1.345   4.850   5.887  0.8161  2.6688  0.7565
  165SAPS   C3818648   1.374   4.959   5.692  0.2539  0.5049 -0.4923
  165SAPS   H8X18649   1.477   4.942   5.728 -0.3276 -0.9410  0.5810
  165SAPS   H8Y18650   1.358   5.067   5.716 -0.3676  0.0299  1.3769
  165SAPS   C3918651   1.346   4.932   5.543 -0.1317  0.1085 -0.1758
  165SAPS   H9X18652   1.239   4.934   5.515 -0.4637  0.1440  1.0510
  165SAPS   H9Y18653   1.360   4.821   5.536  0.6935  0.0994  1.2176
  165SAPS  C31018654   1.439   5.006   5.451  0.4700  0.2654  0.5144
  165SAPS  H10X18655   1.541   4.968   5.475  0.0978 -2.3895 -1.5769
  165SAPS  H10Y18656   1.434   5.112   5.483 -2.2017  0.7364 -1.2005
  165SAPS  C31118657   1.406   4.991   5.299  0.3052  0.0680 -0.1768
  165SAPS  H11X18658   1.328   5.066   5.274 -0.7442 -1.1305 -0.6176
  165SAPS  H11Y18659   1.381   4.883   5.292  0.0298  0.1019  0.2497
  165SAPS  C31218660   1.522   5.034   5.211  0.4063 -0.4779  0.0178
  165SAPS  H12X18661   1.616   4.983   5.241 -1.1644 -2.4048  2.0505
  165SAPS  H12Y18662   1.538   5.142   5.231 -0.8387 -0.3109  0.1929
  165SAPS  C31318663   1.489   5.016   5.063  0.1015 -0.2022 -0.1549
  165SAPS  H13X18664   1.499   4.916   5.015  0.9122  0.4368 -1.3502
  165SAPS  H13Y18665   1.561   5.083   5.013 -0.1891 -0.5624 -1.0654
  165SAPS  C31418666   1.348   5.062   5.010 -0.9499  0.7252 -0.3591
  165SAPS  H14X18667   1.340   5.169   5.039  0.6113 -0.0108  3.3950
  165SAPS  H14Y18668   1.273   4.996   5.058  0.6200 -0.8168  0.0754
  165SAPS  C31518669   1.343   5.039   4.863  0.4249 -0.0907 -0.7812
  165SAPS  H15X18670   1.440   5.063   4.814 -0.3202  2.2432 -1.2431
  165SAPS  H15Y18671   1.268   5.111   4.823 -0.6619 -0.1743  0.9937
  165SAPS  C31618672   1.300   4.901   4.814 -0.1216 -0.3270  0.5443
  165SAPS  H16X18673   1.197   4.907   4.774 -0.2982  1.4738  1.1929
  165SAPS  H16Y18674   1.299   4.822   4.892 -1.9718  0.5570  1.4677
  165SAPS  C31718675   1.387   4.843   4.700 -0.1309  0.7438  0.2286
  165SAPS  H17X18676   1.336   4.749   4.671  0.6644  0.0447  1.0459
  165SAPS  H17Y18677   1.482   4.808   4.744 -0.4370 -0.6855 -0.1722
  165SAPS  C31818678   1.413   4.945   4.592  0.4921 -0.2362  0.1396
  165SAPS  H18X18679   1.316   4.984   4.556 -0.4487 -4.7713 -3.1133
  165SAPS  H18Y18680   1.460   4.898   4.503 -2.0286 -4.2746  0.7030
  165SAPS  H18Z18681   1.476   5.032   4.624 -1.6264  1.0957  0.8899
  166SAPS     N18682   6.437   4.792   6.531 -0.3894 -0.2660  0.2606
  166SAPS   HN118683   6.389   4.857   6.465 -0.3248 -1.5705 -1.1041
  166SAPS   HN218684   6.468   4.845   6.615  0.6423 -0.3696 -0.0519
  166SAPS   HN318685   6.508   4.752   6.468 -0.2945  0.3908 -0.0624
  166SAPS   C1218686   6.343   4.685   6.571  0.4530 -0.0216  0.0207
  166SAPS  H12A18687   6.319   4.628   6.483 -1.0930  2.0098 -0.9487
  166SAPS   C1318688   6.404   4.587   6.677  0.2541 -0.2604  0.4654
  166SAPS  O13A18689   6.528   4.597   6.698 -0.2946  0.2500  0.6593
  166SAPS  O13B18690   6.326   4.516   6.744  0.0434  0.4115  0.6898
  166SAPS   C1118691   6.206   4.744   6.615 -0.1478  0.0063 -0.5963
  166SAPS  H11A18692   6.226   4.781   6.717  1.6345  1.7024 -1.4928
  166SAPS  H11B18693   6.128   4.665   6.621  1.1071 -1.2749 -0.4815
  166SAPS     P18694   6.027   4.914   6.534 -0.4463 -0.0366 -0.5835
  166SAPS   O1318695   5.927   4.815   6.578 -0.2642  0.2602  0.3881
  166SAPS   O1418696   6.051   5.027   6.625 -0.5515  0.4337  0.1931
  166SAPS   O1218697   6.174   4.846   6.523  0.0596  0.5004 -0.6559
  166SAPS   O1118698   6.002   4.967   6.384  0.1264  0.5112 -0.7348
  166SAPS    C118699   6.079   4.903   6.287  0.2539 -0.0103  0.3857
  166SAPS    HA18700   6.189   4.914   6.300  0.1974  0.9906  0.1271
  166SAPS    HB18701   6.064   4.793   6.280 -1.5548  0.3138 -3.1145
  166SAPS    C218702   6.058   4.962   6.147 -0.4969  0.5014 -0.5666
  166SAPS    HS18703   6.079   5.071   6.153 -2.0614  0.9438 -2.3447
  166SAPS   O2118704   5.922   4.923   6.107  0.2374  0.5255  0.0787
  166SAPS   C2118705   5.834   5.025   6.123  0.1557  0.1875 -0.1006
  166SAPS   O2218706   5.864   5.144   6.137 -0.4447 -0.2418 -0.0346
  166SAPS   C2218707   5.693   4.978   6.121 -0.3256 -0.0551  0.8728
  166SAPS   H2R18708   5.661   4.910   6.203 -0.0846 -1.0653  0.1413
  166SAPS   H2S18709   5.629   5.067   6.139  0.2278  0.3256  0.9543
  166SAPS    C318710   6.165   4.912   6.052  0.3015 -0.2815  0.3270
  166SAPS    HX18711   6.158   4.801   6.046 -0.7726 -0.1881 -0.4778
  166SAPS    HY18712   6.263   4.939   6.098 -0.6932  2.1501  1.2079
  166SAPS   O3118713   6.148   4.970   5.919 -0.1855  0.9261 -0.6325
  166SAPS   C3118714   6.164   4.887   5.813  0.4652  0.0207 -0.5606
  166SAPS   O3218715   6.212   4.775   5.810 -0.3279 -0.2404  0.1402
  166SAPS   C3218716   6.120   4.961   5.688 -0.2816 -0.3208 -0.7483
  166SAPS   H2X18717   6.148   5.069   5.685 -1.9377  0.1701  0.1644
  166SAPS   H2Y18718   6.011   4.978   5.679 -0.2880  0.4102  0.5153
  166SAPS   C2318719   5.659   4.910   5.986  0.5884  0.3659 -0.1334
  166SAPS   H3R18720   5.550   4.898   5.964  0.7876 -1.2386 -0.4244
  166SAPS   H3S18721   5.682   4.802   5.997 -1.7561 -0.3825 -1.6501
  166SAPS   C2418722   5.719   4.962   5.857  0.3900 -0.3159 -0.8942
  166SAPS   H4R18723   5.692   4.894   5.773 -0.8432 -0.9347 -0.0264
  166SAPS   H4S18724   5.830   4.971   5.863  0.3725 -0.8638  3.7023
  166SAPS   C2518725   5.655   5.096   5.825 -0.3296 -0.2553 -0.0428
  166SAPS   H5R18726   5.645   5.155   5.917  1.3277  0.5592 -0.3590
  166SAPS   C2618727   5.627   5.146   5.705  0.0656  0.4180 -0.6183
  166SAPS   H6R18728   5.576   5.243   5.701 -5.1764 -1.9290  0.6405
  166SAPS   C2718729   5.649   5.079   5.565  0.4733 -0.1484 -0.1525
  166SAPS   H7R18730   5.743   5.021   5.557  0.1044 -0.7892  0.0295
  166SAPS   H7S18731   5.650   5.158   5.487  0.2439 -0.3871 -0.3981
  166SAPS   C2818732   5.536   4.990   5.532 -0.2198  0.3569  0.2504
  166SAPS   H8R18733   5.466   4.965   5.613 -1.7165  0.7223 -0.8705
  166SAPS   C2918734   5.522   4.931   5.409  0.1312  0.0947  0.3168
  166SAPS   H9R18735   5.440   4.860   5.395  1.6372 -1.7726  0.5889
  166SAPS  C21018736   5.612   4.952   5.288 -0.1111  0.1487 -0.2135
  166SAPS  H10R18737   5.657   4.854   5.264  0.1421  0.2112  0.0010
  166SAPS  H10S18738   5.705   5.007   5.316  0.5912 -0.9370 -0.3388
  166SAPS  C21118739   5.529   5.010   5.179 -0.3753  0.5736 -0.6867
  166SAPS  H11R18740   5.449   5.080   5.206 -0.9464 -0.6759  0.9848
  166SAPS  C21218741   5.531   4.970   5.053  0.6213  0.1750 -0.1244
  166SAPS  H12R18742   5.451   5.004   4.985 -0.5462 -1.2507  0.4931
  166SAPS  C21318743   5.629   4.878   4.991  0.1884  0.0205 -0.7896
  166SAPS  H13R18744   5.589   4.777   5.012 -1.3370  1.1501  2.4401
  166SAPS  H13S18745   5.730   4.889   5.037 -0.7647  1.2013  1.2017
  166SAPS  C21418746   5.639   4.894   4.840 -0.2649 -0.5553  0.5298
  166SAPS  H14R18747   5.699   4.980   4.810 -0.5689 -0.7149 -0.5977
  166SAPS  C21518748   5.569   4.816   4.754 -0.9527  0.1309 -0.7066
  166SAPS  H15R18749   5.583   4.844   4.648 -1.9401 -2.0603 -1.4728
  166SAPS  C21618750   5.485   4.686   4.775  0.2335 -0.3118 -0.2460
  166SAPS  H16R18751   5.506   4.640   4.874 -2.4949 -2.1458 -0.3981
  166SAPS  H16S18752   5.506   4.608   4.699  0.6131 -0.5456  0.0911
  166SAPS  C21718753   5.330   4.698   4.762 -0.4440 -0.1225  0.6012
  166SAPS  H17R18754   5.308   4.787   4.826 -2.0124 -1.3093  1.7773
  166SAPS  H17S18755   5.277   4.623   4.824  1.6397  1.0921  4.1439
  166SAPS  C21818756   5.272   4.724   4.628  0.2926 -0.2504  0.6709
  166SAPS  H18R18757   5.270   4.630   4.569  0.5146  0.0631  0.1559
  166SAPS  H18S18758   5.334   4.803   4.580 -0.7662 -0.5384 -1.2680
  166SAPS  C21918759   5.129   4.778   4.627 -1.0837 -0.4893  0.3039
  166SAPS  H19R18760   5.117   4.876   4.679  2.2870  0.0417  0.3337
  166SAPS  H19S18761   5.095   4.697   4.695  1.6348 -0.7856  1.4551
  166SAPS  C22018762   5.062   4.788   4.493 -0.9738 -0.2563 -0.2930
  166SAPS  H20R18763   5.048   4.687   4.450  0.7622 -1.9301  2.7920
  166SAPS  H20S18764   5.137   4.832   4.422 -0.3283 -0.1828  0.4208
  166SAPS  H20T18765   4.964   4.840   4.491  0.0715  1.8086 -0.8676
  166SAPS   C3318766   6.169   4.896   5.561  0.2905 -0.9240 -0.7201
  166SAPS   H3X18767   6.141   4.788   5.566 -1.2219 -0.5585 -0.9256
  166SAPS   H3Y18768   6.280   4.890   5.564  0.2720 -1.0574  1.5676
  166SAPS   C3418769   6.114   4.954   5.437 -0.2947 -0.1421 -0.1606
  166SAPS   H4X18770   6.147   5.060   5.436 -1.2197  0.2027  1.6167
  166SAPS   H4Y18771   6.004   4.950   5.447 -0.3893  0.9841 -0.6990
  166SAPS   C3518772   6.149   4.867   5.312 -0.0992  0.4725 -0.2543
  166SAPS   H5X18773   6.097   4.769   5.319 -0.7748  0.9289  2.4213
  166SAPS   H5Y18774   6.259   4.856   5.298 -0.2357  0.7804 -1.6687
  166SAPS   C3618775   6.115   4.927   5.173 -0.4973 -0.2080  0.6361
  166SAPS   H6X18776   6.171   5.023   5.165  0.1020 -0.6467 -0.7258
  166SAPS   H6Y18777   6.007   4.954   5.164 -1.0991 -2.5837  0.1119
  166SAPS   C3718778   6.142   4.830   5.055  0.3503  0.3028  0.5483
  166SAPS   H7X18779   6.077   4.741   5.072  0.2631  0.0731 -0.8932
  166SAPS   H7Y18780   6.248   4.798   5.048 -0.1114 -0.9398 -1.6621
  166SAPS   C3818781   6.103   4.890   4.921 -0.4927  0.3729  0.4542
  166SAPS   H8X18782   6.153   4.989   4.912  1.8198 -0.8491 -1.1052
  166SAPS   H8Y18783   5.993   4.904   4.912 -0.6623 -1.6665 -1.3912
  166SAPS   C3918784   6.155   4.804   4.795  0.0898  0.2482 -0.5661
  166SAPS   H9X18785   6.117   4.699   4.799 -1.4446  0.7354 -1.4466
  166SAPS   H9Y18786   6.263   4.785   4.810  0.2942 -0.7715 -2.9379
  166SAPS  C31018787   6.134   4.878   4.668  0.1962  0.4172  0.3239
  166SAPS  H10X18788   6.181   4.979   4.672  0.6660  0.2561 -0.7356
  166SAPS  H10Y18789   6.028   4.906   4.652  0.5539  2.5580  1.3182
  166SAPS  C31118790   6.191   4.795   4.551  0.3727 -0.2915  0.5031
  166SAPS  H11X18791   6.153   4.691   4.565  0.4786 -0.2158  1.4000
  166SAPS  H11Y18792   6.301   4.788   4.556  0.4137 -1.2395 -0.9600
  166SAPS  C31218793   6.165   4.858   4.413  0.3073 -0.3150 -0.2448
  166SAPS  H12X18794   6.217   4.953   4.389 -2.1091  0.9515 -0.7194
  166SAPS  H12Y18795   6.055   4.864   4.401  0.5909  0.7207 -2.8786
  166SAPS  C31318796   6.196   4.750   4.304  0.4156 -0.2985 -0.1940
  166SAPS  H13X18797   6.151   4.650   4.326  1.4068 -0.2330  2.5960
  166SAPS  H13Y18798   6.305   4.728   4.293  0.5851  0.2307  0.3780
  166SAPS  C31418799   6.163   4.798   4.165  0.6634 -0.0657 -0.2789
  166SAPS  H14X18800   6.209   4.720   4.101 -0.0456  1.0368 -2.2080
  166SAPS  H14Y18801   6.210   4.896   4.140 -1.7510  1.1948 -0.1375
  166SAPS  C31518802   6.013   4.798   4.117  0.2313  0.4313 -0.1426
  166SAPS  H15X18803   5.968   4.890   4.160 -0.3950  0.2719 -0.4456
  166SAPS  H15Y18804   5.963   4.710   4.162  4.0449 -1.5308  0.7080
  166SAPS  C31618805   5.995   4.795   3.963 -0.5714  0.0708 -0.3097
  166SAPS  H16X18806   6.013   4.690   3.930 -2.7898 -0.5372  0.2242
  166SAPS  H16Y18807   6.068   4.858   3.909  0.7510 -0.5480  0.7074
  166SAPS  C31718808   5.851   4.836   3.920 -0.1280  0.0852  0.6974
  166SAPS  H17X18809   5.812   4.919   3.983  0.3398  0.7243  0.1604
  166SAPS  H17Y18810   5.779   4.755   3.942  0.2122 -0.7393 -1.0399
  166SAPS  C31818811   5.834   4.861   3.773 -0.5073 -0.3561 -0.3698
  166SAPS  H18X18812   5.904   4.940   3.738  3.2951 -3.2463  0.1413
  166SAPS  H18Y18813   5.729   4.885   3.744 -0.0481  0.5891 -1.3219
  166SAPS  H18Z18814   5.853   4.763   3.726 -1.7699 -0.3377 -0.9795
  167SAPS     N18815   3.689   5.920   6.832  0.0494  0.0987 -0.6324
  167SAPS   HN118816   3.789   5.891   6.825  0.0598 -0.8731  2.2392
  167SAPS   HN218817   3.635   5.887   6.750 -0.3667  0.3231 -0.4493
  167SAPS   HN318818   3.668   6.022   6.838 -1.4678 -0.1449 -1.4560
  167SAPS   C1218819   3.621   5.865   6.953  0.1555  0.7392  0.2368
  167SAPS  H12A18820   3.607   5.759   6.934  0.0074  0.5163  1.4867
  167SAPS   C1318821   3.702   5.881   7.089 -0.6181  0.5726  0.1358
  167SAPS  O13A18822   3.823   5.905   7.090 -0.1802 -0.1225  0.1423
  167SAPS  O13B18823   3.642   5.881   7.200 -0.4889  0.0790  0.6274
  167SAPS   C1118824   3.480   5.942   6.965 -0.6066 -0.1144  0.1035
  167SAPS  H11A18825   3.497   6.042   7.011 -1.4710  0.6595 -1.1545
  167SAPS  H11B18826   3.414   5.890   7.038 -1.8418  2.9524  1.3824
  167SAPS     P18827   3.264   5.970   6.828 -0.2775 -0.4199  0.4007
  167SAPS   O1318828   3.212   5.837   6.855  0.0466 -0.3313 -0.2530
  167SAPS   O1418829   3.221   6.080   6.922 -0.2682 -0.5704  0.3172
  167SAPS   O1218830   3.415   5.962   6.841 -0.1044  0.8359 -0.1331
  167SAPS   O1118831   3.234   6.016   6.677 -0.0848 -0.0386  0.5834
  167SAPS    C118832   3.326   6.008   6.571 -0.1354  0.1551  0.1480
  167SAPS    HA18833   3.363   6.108   6.539 -3.7887  1.7116  0.2700
  167SAPS    HB18834   3.409   5.939   6.596 -1.4358 -1.1349  1.0874
  167SAPS    C218835   3.268   5.937   6.437  0.1186 -0.9908  0.1881
  167SAPS    HS18836   3.347   5.875   6.389 -0.0978 -1.0727 -0.0626
  167SAPS   O2118837   3.208   6.035   6.357  0.7027 -0.4874 -0.3006
  167SAPS   C2118838   3.297   6.097   6.277  0.7605 -0.0138  0.2266
  167SAPS   O2218839   3.418   6.092   6.293  0.3118  0.2607 -0.3468
  167SAPS   C2218840   3.222   6.176   6.163  0.3925 -0.5865 -0.3035
  167SAPS   H2R18841   3.208   6.279   6.200  3.0761 -0.5620  0.8376
  167SAPS   H2S18842   3.286   6.183   6.072  2.5833  2.1068  1.3141
  167SAPS    C318843   3.159   5.842   6.481  0.2708  0.1093  0.6612
  167SAPS    HX18844   3.083   5.908   6.526 -0.1727  0.5653 -0.6859
  167SAPS    HY18845   3.188   5.771   6.561 -0.0511 -0.4295  0.3069
  167SAPS   O3118846   3.111   5.772   6.358 -0.2392  0.4847 -0.2509
  167SAPS   C3118847   3.006   5.698   6.372  0.3958 -0.0200  0.1438
  167SAPS   O3218848   2.936   5.691   6.469 -0.5607  0.4633 -0.3885
  167SAPS   C3218849   2.984   5.619   6.245 -0.4628 -0.1427 -0.5462
  167SAPS   H2X18850   2.892   5.558   6.254 -0.8262  0.0240 -2.6562
  167SAPS   H2Y18851   3.059   5.536   6.244 -0.6718 -0.3360 -1.5567
  167SAPS   C2318852   3.092   6.102   6.129  0.0745 -0.2169  0.3837
  167SAPS   H3R18853   3.014   6.109   6.208  0.3793 -0.3490  0.6990
  167SAPS   H3S18854   3.115   5.994   6.118  2.6944  0.4316 -1.4824
  167SAPS   C2418855   3.031   6.154   5.998 -0.3750 -0.3272 -0.5792
  167SAPS   H4R18856   3.121   6.132   5.937  0.2867  2.1375 -0.6094
  167SAPS   H4S18857   3.027   6.265   6.007  1.0799 -0.3312  0.4864
  167SAPS   C2518858   2.913   6.091   5.930  0.2388  0.5556  0.4793
  167SAPS   H5R18859   2.841   6.041   5.996  1.2537 -1.0438  0.4306
  167SAPS   C2618860   2.896   6.061   5.796 -1.1128  0.7479 -0.2940
  167SAPS   H6R18861   2.798   6.022   5.766 -1.4293  0.1356  1.3850
  167SAPS   C2718862   2.982   6.098   5.678  1.1576 -0.7474  0.9364
  167SAPS   H7R18863   3.078   6.140   5.715  0.2115  0.3966  2.1874
  167SAPS   H7S18864   2.932   6.182   5.625 -0.2676 -2.3608 -0.3696
  167SAPS   C2818865   3.006   5.986   5.582  0.1997  0.3271 -0.6373
  167SAPS   H8R18866   3.068   5.910   5.629  0.3993  0.4261 -0.7391
  167SAPS   C2918867   2.955   5.964   5.459  0.2927 -0.4072  0.3969
  167SAPS   H9R18868   2.992   5.883   5.395  1.6920  0.2476  0.3320
  167SAPS  C21018869   2.881   6.067   5.383  0.2484 -0.3363 -0.3376
  167SAPS  H10R18870   2.783   6.089   5.430 -0.7694 -2.4962 -1.2909
  167SAPS  H10S18871   2.851   6.032   5.282 -2.0400  1.5983 -0.4178
  167SAPS  C21118872   2.950   6.198   5.357 -0.0474  0.1176  0.6231
  167SAPS  H11R18873   2.932   6.285   5.421  4.5794  2.2283 -0.4958
  167SAPS  C21218874   3.027   6.218   5.247 -0.3903 -0.2019 -0.2937
  167SAPS  H12R18875   3.086   6.310   5.244  1.3548 -1.1908  1.1792
  167SAPS  C21318876   3.052   6.130   5.130 -0.3775  0.6453 -0.0546
  167SAPS  H13R18877   3.091   6.194   5.048 -2.0798  1.6291 -0.1318
  167SAPS  H13S18878   2.957   6.082   5.098  0.0409 -0.8245  0.7800
  167SAPS  C21418879   3.147   6.011   5.150 -0.2922  0.2862 -0.0691
  167SAPS  H14R18880   3.207   6.006   5.242  1.4684 -1.1420 -1.2384
  167SAPS  C21518881   3.163   5.913   5.060 -0.3917 -0.2944  0.1521
  167SAPS  H15R18882   3.240   5.837   5.082  0.2823 -0.0431 -1.2240
  167SAPS  C21618883   3.112   5.908   4.917  0.3189  0.2840 -0.2890
  167SAPS  H16R18884   3.050   5.998   4.896 -0.7280 -0.6001 -1.0864
  167SAPS  H16S18885   3.055   5.813   4.906 -1.3240  1.2654 -0.6930
  167SAPS  C21718886   3.213   5.908   4.806 -0.6967  0.2775  0.7547
  167SAPS  H17R18887   3.281   5.820   4.810 -1.4101 -0.2258  2.6411
  167SAPS  H17S18888   3.277   5.999   4.816  0.7719 -0.4593 -1.2156
  167SAPS  C21818889   3.148   5.910   4.660  0.1445  0.2147  0.1120
  167SAPS  H18R18890   3.060   5.977   4.662  1.7975  2.6815  4.1731
  167SAPS  H18S18891   3.125   5.803   4.641 -0.5871  0.0917  1.5111
  167SAPS  C21918892   3.241   5.943   4.544  0.1584  0.2528  0.0293
  167SAPS  H19R18893   3.335   5.885   4.552  0.0896  0.0545 -0.5137
  167SAPS  H19S18894   3.262   6.052   4.547  0.7188  0.1811  4.2661
  167SAPS  C22018895   3.170   5.899   4.414 -0.8184  0.4475 -1.0936
  167SAPS  H20R18896   3.092   5.971   4.382 -0.5089  0.4402 -1.8864
  167SAPS  H20S18897   3.138   5.793   4.424  0.6891  0.1260  1.3994
  167SAPS  H20T18898   3.247   5.908   4.334 -0.3771  0.9357 -0.6239
  167SAPS   C3318899   2.980   5.703   6.121 -0.1850  1.2299  0.9406
  167SAPS   H3X18900   3.066   5.773   6.126  0.7320  0.3231 -0.9435
  167SAPS   H3Y18901   2.885   5.761   6.124 -0.2140  1.1721  1.2318
  167SAPS   C3418902   2.988   5.610   6.002 -0.1076  0.3828 -0.3054
  167SAPS   H4X18903   2.911   5.534   6.026 -0.6807  1.0760  0.0991
  167SAPS   H4Y18904   3.083   5.552   6.004 -1.3120 -1.7527 -1.7135
  167SAPS   C3518905   2.969   5.677   5.869  0.1598  0.6212  0.1410
  167SAPS   H5X18906   3.044   5.758   5.856 -0.5519  1.5318  1.4594
  167SAPS   H5Y18907   2.868   5.722   5.870 -0.6672 -1.1476  1.4685
  167SAPS   C3618908   2.976   5.572   5.745  0.2192  0.1343  0.3434
  167SAPS   H6X18909   2.877   5.522   5.743 -0.3483  1.2260 -0.5380
  167SAPS   H6Y18910   3.066   5.508   5.751  0.2692  0.1469 -0.2086
  167SAPS   C3718911   2.986   5.647   5.620  0.6860  0.0479  0.1419
  167SAPS   H7X18912   3.087   5.680   5.587  0.7490 -1.6679 -1.5670
  167SAPS   H7Y18913   2.913   5.730   5.608 -0.7531 -1.4333 -2.1465
  167SAPS   C3818914   2.942   5.548   5.508 -0.2218 -0.1804 -0.2251
  167SAPS   H8X18915   2.832   5.534   5.495  0.0793 -3.5712 -0.2325
  167SAPS   H8Y18916   2.991   5.454   5.543 -0.1728 -0.6573 -1.5323
  167SAPS   C3918917   2.997   5.582   5.369 -0.0723 -0.3944 -0.3925
  167SAPS   H9X18918   3.104   5.611   5.376 -0.0235 -0.4484 -0.8840
  167SAPS   H9Y18919   2.945   5.675   5.339  1.3487  0.5311 -0.0899
  167SAPS  C31018920   2.997   5.472   5.261 -0.2573  0.8077  0.2330
  167SAPS  H10X18921   2.892   5.437   5.251 -0.2396  1.0545 -1.0491
  167SAPS  H10Y18922   3.059   5.389   5.299  0.6560  1.2254 -0.3166
  167SAPS  C31118923   3.045   5.532   5.123  0.0396 -0.5518  0.2048
  167SAPS  H11X18924   3.150   5.559   5.148  0.7766 -3.0184  0.0633
  167SAPS  H11Y18925   3.000   5.630   5.099  0.5462 -0.9959 -3.0018
  167SAPS  C31218926   3.049   5.442   4.993  0.2292  0.0286  0.8247
  167SAPS  H12X18927   2.956   5.385   4.973  1.2811 -1.6628  0.6315
  167SAPS  H12Y18928   3.117   5.359   5.022  0.4669  0.4816  1.5910
  167SAPS  C31318929   3.095   5.498   4.860  0.7799 -0.8057 -0.4526
  167SAPS  H13X18930   3.186   5.561   4.865 -1.0047  1.8595  1.3927
  167SAPS  H13Y18931   3.022   5.572   4.819 -0.0297 -0.9506  0.6692
  167SAPS  C31418932   3.098   5.385   4.761  0.2550  0.1255  0.4801
  167SAPS  H14X18933   2.999   5.336   4.746 -0.7549  2.2989 -0.3939
  167SAPS  H14Y18934   3.165   5.306   4.801  0.7149  0.9992  1.4764
  167SAPS  C31518935   3.155   5.430   4.631 -0.4491 -0.7005 -0.0065
  167SAPS  H15X18936   3.247   5.491   4.639  0.9445 -2.7828  0.6390
  167SAPS  H15Y18937   3.080   5.494   4.579 -0.7055 -0.8976  0.1197
  167SAPS  C31618938   3.163   5.317   4.528 -0.2988  0.0843 -0.7318
  167SAPS  H16X18939   3.067   5.261   4.535  0.7217 -1.5088  3.1695
  167SAPS  H16Y18940   3.246   5.243   4.540 -1.8676 -1.6654 -0.2788
  167SAPS  C31718941   3.198   5.363   4.382 -0.5247 -0.4316  0.4262
  167SAPS  H17X18942   3.126   5.441   4.351 -0.9760 -0.5814  1.0707
  167SAPS  H17Y18943   3.187   5.275   4.315 -2.8728 -1.3743  1.9504
  167SAPS  C31818944   3.340   5.412   4.374  0.2029 -0.4727 -0.3487
  167SAPS  H18X18945   3.353   5.506   4.432  0.1870 -0.1430 -0.8732
  167SAPS  H18Y18946   3.373   5.445   4.273 -0.6929 -0.6573 -0.7100
  167SAPS  H18Z18947   3.411   5.335   4.413 -0.5121 -0.8740  0.1880
  168SAPS     N18948   1.700   6.623   7.056 -0.3302 -0.1902  0.7065
  168SAPS   HN118949   1.687   6.627   7.159 -0.3670  1.0506  0.6604
  168SAPS   HN218950   1.733   6.714   7.018  3.2351 -2.0156 -1.0814
  168SAPS   HN318951   1.615   6.583   7.011  0.7681 -3.6580  1.4027
  168SAPS   C1218952   1.803   6.526   7.023 -0.6965  0.5790  0.1613
  168SAPS  H12A18953   1.897   6.549   7.071 -0.6732  1.6233 -0.3768
  168SAPS   C1318954   1.762   6.376   7.056 -0.2053 -0.3986 -0.0392
  168SAPS  O13A18955   1.655   6.348   7.109  0.3115  0.1385 -0.0817
  168SAPS  O13B18956   1.855   6.290   7.052  0.5592  0.0192 -0.6744
  168SAPS   C1118957   1.837   6.530   6.876 -0.6569  0.0820  0.5495
  168SAPS  H11A18958   1.902   6.443   6.853  0.4210  0.9078  0.4055
  168SAPS  H11B18959   1.897   6.623   6.861 -1.4710  0.8690  2.0162
  168SAPS     P18960   1.742   6.490   6.645 -0.3475  0.4391 -0.1172
  168SAPS   O1318961   1.612   6.512   6.578  0.1722  0.0141 -0.3048
  168SAPS   O1418962   1.868   6.546   6.590 -0.1173 -0.0738 -0.3357
  168SAPS   O1218963   1.723   6.540   6.789  0.1916 -0.1950  0.4602
  168SAPS   O1118964   1.758   6.334   6.678  0.3086  0.4374  0.1868
  168SAPS    C118965   1.653   6.240   6.678 -0.0895  0.3326  0.0219
  168SAPS    HA18966   1.623   6.222   6.784 -0.9440 -2.9730 -0.6573
  168SAPS    HB18967   1.562   6.285   6.632  0.0092 -0.4097 -0.9302
  168SAPS    C218968   1.680   6.096   6.604 -0.0373  0.0799  0.9081
  168SAPS    HS18969   1.765   6.047   6.655 -0.0493 -0.7070  0.1761
  168SAPS   O2118970   1.727   6.137   6.472  0.2932  0.2040 -0.4755
  168SAPS   C2118971   1.809   6.046   6.415  0.0174 -0.7739  0.2503
  168SAPS   O2218972   1.861   5.958   6.479  0.3474  0.1847  0.3702
  168SAPS   C2218973   1.807   6.074   6.262 -0.1825  0.2289  0.4858
  168SAPS   H2R18974   1.883   6.007   6.216 -1.7716 -0.8150 -0.7175
  168SAPS   H2S18975   1.707   6.040   6.230 -0.0398 -0.4723  0.7596
  168SAPS    C318976   1.566   5.988   6.587 -0.2964 -0.2317 -0.3153
  168SAPS    HX18977   1.553   5.969   6.695 -0.3197  3.4405  0.4440
  168SAPS    HY18978   1.605   5.897   6.536  0.5283  0.2994 -0.6543
  168SAPS   O3118979   1.444   6.032   6.535  0.3407  0.1124  0.0608
  168SAPS   C3118980   1.424   6.023   6.405 -0.4304 -0.2247  0.3568
  168SAPS   O3218981   1.483   5.946   6.332 -0.1875  0.2410  0.1993
  168SAPS   C3218982   1.302   6.111   6.375 -0.8158  0.8841 -0.2275
  168SAPS   H2X18983   1.307   6.205   6.433 -2.0771  1.2411 -0.6522
  168SAPS   H2Y18984   1.213   6.058   6.416  0.4270 -1.4233 -0.3358
  168SAPS   C2318985   1.836   6.223   6.239  0.6187  0.5512 -0.1442
  168SAPS   H3R18986   1.779   6.281   6.315  2.7044 -0.9331  2.7505
  168SAPS   H3S18987   1.805   6.251   6.136 -1.4255  0.4102  0.3805
  168SAPS   C2418988   1.981   6.268   6.250  0.0569 -0.3096 -0.1296
  168SAPS   H4R18989   2.010   6.292   6.355  1.4855  0.1557 -0.6131
  168SAPS   H4S18990   1.999   6.362   6.195 -1.7217  0.7574  0.9929
  168SAPS   C2518991   2.075   6.159   6.203 -0.5641  0.3129 -0.1320
  168SAPS   H5R18992   2.135   6.121   6.287 -0.5050  0.7269  0.0129
  168SAPS   C2618993   2.096   6.118   6.078 -0.2788 -0.3149  0.0382
  168SAPS   H6R18994   2.169   6.043   6.043  1.7260  1.9337 -0.8604
  168SAPS   C2718995   2.037   6.179   5.956  0.3484 -0.1943  0.3643
  168SAPS   H7R18996   2.109   6.165   5.872 -1.3664 -0.1453 -1.1751
  168SAPS   H7S18997   2.018   6.288   5.957  0.9680 -0.0704 -0.5924
  168SAPS   C2818998   1.910   6.102   5.917 -0.1363  0.2684  0.4096
  168SAPS   H8R18999   1.868   6.032   5.990 -0.0065 -0.7160 -0.4236
  168SAPS   C2919000   1.847   6.113   5.794 -0.3260  0.0578  0.0944
  168SAPS   H9R19001   1.748   6.070   5.772 -2.1795  3.3121  1.4110
  168SAPS  C21019002   1.896   6.213   5.686 -0.1451  0.4690 -0.3403
  168SAPS  H10R19003   1.867   6.161   5.592  0.2826 -3.4224  1.4636
  168SAPS  H10S19004   2.006   6.209   5.675  0.0167  1.8633  0.4672
  168SAPS  C21119005   1.862   6.362   5.694 -0.5418  0.1863 -0.4594
  168SAPS  H11R19006   1.854   6.411   5.792 -3.1597 -0.4620 -0.2771
  168SAPS  C21219007   1.826   6.431   5.589 -0.5565 -0.7537  0.5296
  168SAPS  H12R19008   1.789   6.534   5.596  0.3407 -0.2921 -0.9493
  168SAPS  C21319009   1.822   6.395   5.441 -0.6042  0.1609 -0.0023
  168SAPS  H13R19010   1.736   6.439   5.387  0.9890  1.2812 -1.7828
  168SAPS  H13S19011   1.800   6.287   5.427 -1.0460  0.2199  0.2244
  168SAPS  C21419012   1.944   6.447   5.361 -0.5184 -0.6316 -0.7799
  168SAPS  H14R19013   1.950   6.557   5.364 -0.0044 -0.5375 -3.4067
  168SAPS  C21519014   2.041   6.371   5.305  0.5481  0.1709 -0.2192
  168SAPS  H15R19015   2.113   6.419   5.236  0.4542  1.4544  0.5401
  168SAPS  C21619016   2.049   6.222   5.302 -0.0344  0.1225 -0.0683
  168SAPS  H16R19017   1.966   6.177   5.362  0.2212  1.9762  1.8161
  168SAPS  H16S19018   2.147   6.187   5.342  0.9845  1.0375 -1.6789
  168SAPS  C21719019   2.047   6.149   5.163 -0.0303 -0.5213  0.5154
  168SAPS  H17R19020   2.152   6.145   5.126 -0.4253  1.5665 -1.0174
  168SAPS  H17S19021   1.982   6.213   5.099  4.3509  1.3355 -2.6272
  168SAPS  C21819022   1.979   6.009   5.157 -0.4946  0.2028  0.0862
  168SAPS  H18R19023   1.981   5.963   5.055  1.0107 -1.3048  0.7375
  168SAPS  H18S19024   1.871   6.016   5.180 -0.2999 -0.6716  1.3688
  168SAPS  C21919025   2.039   5.902   5.255 -0.3225 -0.4427 -0.0930
  168SAPS  H19R19026   1.995   5.801   5.251  1.3228 -1.2809  1.3430
  168SAPS  H19S19027   2.015   5.939   5.357 -2.3981 -1.3640 -0.2032
  168SAPS  C22019028   2.189   5.875   5.230  0.2164  0.3562  0.5249
  168SAPS  H20R19029   2.246   5.965   5.261  2.9386 -0.8911 -0.5154
  168SAPS  H20S19030   2.199   5.850   5.122  1.7738 -0.5527  0.8555
  168SAPS  H20T19031   2.215   5.786   5.291  0.4883 -0.1100 -0.2515
  168SAPS   C3319032   1.290   6.138   6.218 -0.1845 -0.0737  0.9039
  168SAPS   H3X19033   1.186   6.137   6.178  0.5975 -0.8758 -1.2820
  168SAPS   H3Y19034   1.336   6.062   6.151  1.1773  2.3227 -1.0151
  168SAPS   C3419035   1.337   6.278   6.181 -1.0935  0.3413 -0.2099
  168SAPS   H4X19036   1.431   6.295   6.238 -1.9180  0.5062  1.1392
  168SAPS   H4Y19037   1.272   6.362   6.215 -0.6476  0.6833 -0.1935
  168SAPS   C3519038   1.378   6.289   6.033 -0.4802 -0.1953  0.4778
  168SAPS   H5X19039   1.301   6.267   5.957 -0.3447 -1.6023  0.7299
  168SAPS   H5Y19040   1.470   6.232   6.009  0.1038  1.8893 -2.7787
  168SAPS   C3619041   1.406   6.433   5.998  0.3877 -0.1469 -0.6147
  168SAPS   H6X19042   1.488   6.464   6.066  0.3048 -1.6365  0.1981
  168SAPS   H6Y19043   1.310   6.486   6.018 -0.8688 -1.8971 -1.6310
  168SAPS   C3719044   1.451   6.467   5.852 -0.0026 -0.1783  0.5307
  168SAPS   H7X19045   1.561   6.453   5.847  0.5882  3.9500 -2.0802
  168SAPS   H7Y19046   1.442   6.577   5.840 -0.2817 -0.3056 -0.4697
  168SAPS   C3819047   1.376   6.401   5.732  0.6031  1.0103 -0.3262
  168SAPS   H8X19048   1.276   6.448   5.729 -0.1973 -0.6083 -0.1290
  168SAPS   H8Y19049   1.371   6.292   5.755  0.5010  0.9468 -0.6410
  168SAPS   C3919050   1.453   6.413   5.607 -0.8282 -0.1409 -0.0996
  168SAPS   H9X19051   1.553   6.373   5.637  0.0486  1.3455 -0.9113
  168SAPS   H9Y19052   1.468   6.519   5.580  0.3044 -0.2971 -0.1527
  168SAPS  C31019053   1.379   6.322   5.510  0.6807  0.0593  0.0634
  168SAPS  H10X19054   1.330   6.386   5.433  0.6911 -1.3947 -1.1893
  168SAPS  H10Y19055   1.299   6.260   5.555  0.9662  0.0875  0.6136
  168SAPS  C31119056   1.480   6.238   5.426 -0.2222  0.6060 -0.0804
  168SAPS  H11X19057   1.550   6.310   5.379 -0.3999  0.3877 -0.6981
  168SAPS  H11Y19058   1.417   6.203   5.341  0.8996  1.0881 -1.1514
  168SAPS  C31219059   1.544   6.122   5.502 -0.0847  0.3176 -0.4855
  168SAPS  H12X19060   1.454   6.063   5.530 -1.2290  1.3696 -1.7776
  168SAPS  H12Y19061   1.601   6.161   5.589  0.5962 -0.1191 -0.7301
  168SAPS  C31319062   1.629   6.029   5.418 -1.0601 -0.1639  0.0088
  168SAPS  H13X19063   1.702   6.080   5.351 -0.8669 -0.7195 -0.2061
  168SAPS  H13Y19064   1.563   5.975   5.347  0.3636  0.9612 -2.2770
  168SAPS  C31419065   1.692   5.916   5.502 -0.9601  0.1568 -0.3370
  168SAPS  H14X19066   1.772   5.955   5.568  1.6682 -3.8251 -0.8341
  168SAPS  H14Y19067   1.731   5.841   5.430 -1.4406  0.2498 -0.7055
  168SAPS  C31519068   1.591   5.845   5.593  0.3516  0.4114 -0.2703
  168SAPS  H15X19069   1.508   5.802   5.533  2.3534 -0.7033 -2.3368
  168SAPS  H15Y19070   1.554   5.927   5.659  2.0589  1.3215 -0.3989
  168SAPS  C31619071   1.656   5.751   5.696 -0.6441  0.5431 -0.0218
  168SAPS  H16X19072   1.752   5.797   5.727 -0.4224  0.3658 -0.4311
  168SAPS  H16Y19073   1.678   5.660   5.637  1.3675  1.5774 -0.9694
  168SAPS  C31719074   1.568   5.707   5.813 -0.6767 -0.1125  0.7130
  168SAPS  H17X19075   1.624   5.634   5.875 -0.2719 -0.6895 -0.3198
  168SAPS  H17Y19076   1.471   5.663   5.780 -1.0870  0.7799  0.6920
  168SAPS  C31819077   1.518   5.815   5.907 -0.7689  0.4621  0.3621
  168SAPS  H18X19078   1.610   5.861   5.947  0.0835 -1.8843  1.2888
  168SAPS  H18Y19079   1.456   5.769   5.987 -2.5442 -1.1696 -1.8308
  168SAPS  H18Z19080   1.460   5.892   5.852 -0.6386  0.8272  0.7275
  169SAPS     N19081   2.742   5.689   6.656  0.7446 -0.3989 -0.3457
  169SAPS   HN119082   2.737   5.585   6.662 -0.9311 -0.4950 -2.3546
  169SAPS   HN219083   2.650   5.723   6.621  0.7858  1.1650  0.9569
  169SAPS   HN319084   2.810   5.713   6.582  0.4181 -1.2244 -0.9324
  169SAPS   C1219085   2.769   5.755   6.789  0.3343 -0.0594  0.4720
  169SAPS  H12A19086   2.677   5.787   6.836 -0.2298 -0.8994 -0.0241
  169SAPS   C1319087   2.834   5.662   6.896 -0.2203  0.2352 -0.9281
  169SAPS  O13A19088   2.851   5.533   6.875  0.3449  0.9883 -0.0834
  169SAPS  O13B19089   2.872   5.719   7.001 -0.8604 -0.3101 -0.0681
  169SAPS   C1119090   2.864   5.875   6.754 -0.0037  0.3064  0.0701
  169SAPS  H11A19091   2.957   5.829   6.714  0.1706  2.6402 -2.5106
  169SAPS  H11B19092   2.900   5.937   6.840 -2.4072  0.9834  0.6748
  169SAPS     P19093   2.727   6.074   6.672  0.2097  0.0079 -0.3536
  169SAPS   O1319094   2.599   6.042   6.740 -0.9253 -0.2339 -0.4962
  169SAPS   O1419095   2.812   6.180   6.730  0.3100  0.5649  0.6302
  169SAPS   O1219096   2.812   5.946   6.646 -0.1073  0.5106  0.4025
  169SAPS   O1119097   2.692   6.136   6.536 -0.3275  0.2793  0.7416
  169SAPS    C119098   2.784   6.113   6.419 -0.6591 -0.1207  0.0127
  169SAPS    HA19099   2.827   6.209   6.384 -0.4856 -0.5593 -1.0038
  169SAPS    HB19100   2.874   6.054   6.444  2.1101  3.1691 -1.3873
  169SAPS    C219101   2.720   6.058   6.293  0.2729  0.4531  0.0432
  169SAPS    HS19102   2.799   6.043   6.217  0.6656 -0.0265  0.5375
  169SAPS   O2119103   2.616   6.147   6.251 -0.1642 -0.3663  0.0812
  169SAPS   C2119104   2.665   6.248   6.184 -0.2363 -0.1533  0.8234
  169SAPS   O2219105   2.784   6.276   6.165  0.3894  0.4053  0.3218
  169SAPS   C2219106   2.558   6.339   6.129  0.4823  0.5935  0.7572
  169SAPS   H2R19107   2.459   6.288   6.132  1.0512 -0.6364 -0.3387
  169SAPS   H2S19108   2.550   6.430   6.192  2.0461  2.2068 -1.1999
  169SAPS    C319109   2.662   5.923   6.324  0.8841  0.0871 -0.2759
  169SAPS    HX19110   2.589   5.941   6.406  2.0482 -1.1530  1.1000
  169SAPS    HY19111   2.745   5.858   6.360 -0.4546 -0.3194  2.2967
  169SAPS   O3119112   2.600   5.850   6.216 -0.0620 -0.4280  0.7883
  169SAPS   C3119113   2.478   5.896   6.183  0.7403  0.4553  0.0458
  169SAPS   O3219114   2.422   5.987   6.239 -0.1060 -0.1648 -0.4918
  169SAPS   C3219115   2.431   5.834   6.053 -0.4361  0.4581  0.5908
  169SAPS   H2X19116   2.392   5.914   5.987  1.1013 -0.3563 -1.4261
  169SAPS   H2Y19117   2.355   5.762   6.091 -1.2652  1.1581  0.2714
  169SAPS   C2319118   2.587   6.400   5.990  0.3366  0.4894 -0.2392
  169SAPS   H3R19119   2.594   6.319   5.915 -3.0532  0.3906 -0.6096
  169SAPS   H3S19120   2.686   6.450   5.994  0.9704 -0.7430  0.0205
  169SAPS   C2419121   2.474   6.492   5.939  0.4004 -0.1568 -0.2572
  169SAPS   H4R19122   2.511   6.545   5.848  0.5069  0.9569  0.4213
  169SAPS   H4S19123   2.458   6.567   6.019 -2.7982 -0.5610 -0.3626
  169SAPS   C2519124   2.343   6.421   5.905  0.9325  0.5871 -0.5059
  169SAPS   H5R19125   2.298   6.378   5.996  0.4616  2.6189  0.2777
  169SAPS   C2619126   2.294   6.390   5.784  0.2810 -0.6570  0.4725
  169SAPS   H6R19127   2.196   6.342   5.772  0.0188  0.0777 -0.4581
  169SAPS   C2719128   2.356   6.432   5.651 -0.0894  0.0782  0.1592
  169SAPS   H7R19129   2.399   6.534   5.661 -2.2729  0.9246  1.7174
  169SAPS   H7S19130   2.285   6.438   5.566 -0.7222  2.6522  0.7876
  169SAPS   C2819131   2.474   6.344   5.615 -1.1132  0.3924 -0.4441
  169SAPS   H8R19132   2.553   6.338   5.692 -1.3387  0.0858 -0.2380
  169SAPS   C2919133   2.516   6.299   5.496 -0.2549  0.0937  0.8433
  169SAPS   H9R19134   2.596   6.224   5.491  2.4310  2.7411  0.9678
  169SAPS  C21019135   2.433   6.307   5.372  0.1623 -0.6659 -0.1888
  169SAPS  H10R19136   2.324   6.309   5.393  0.3145 -1.6086  0.8015
  169SAPS  H10S19137   2.442   6.207   5.324  1.6254 -0.5957 -0.1257
  169SAPS  C21119138   2.457   6.414   5.275  0.5152 -0.1343  0.5713
  169SAPS  H11R19139   2.407   6.508   5.305 -0.3902 -1.0679  2.1094
  169SAPS  C21219140   2.525   6.398   5.164 -0.5852 -0.1761  0.5646
  169SAPS  H12R19141   2.538   6.486   5.100 -1.3898  0.4710  1.2688
  169SAPS  C21319142   2.599   6.282   5.108 -0.5009 -0.7181  1.0977
  169SAPS  H13R19143   2.601   6.202   5.186  0.9235 -1.7575  0.0509
  169SAPS  H13S19144   2.703   6.313   5.086 -0.0224 -2.9685 -0.1104
  169SAPS  C21419145   2.540   6.229   4.985  0.3063  0.1147 -0.5416
  169SAPS  H14R19146   2.439   6.196   5.009  0.2342  0.1998 -0.7221
  169SAPS  C21519147   2.581   6.238   4.860  1.2237 -0.3713 -0.1675
  169SAPS  H15R19148   2.513   6.192   4.786  1.2852 -1.0886  0.2179
  169SAPS  C21619149   2.707   6.311   4.819  0.7090  0.3464 -0.1580
  169SAPS  H16R19150   2.765   6.354   4.903  0.1905 -1.0543  0.9534
  169SAPS  H16S19151   2.685   6.391   4.744 -2.2363 -0.0839  0.1591
  169SAPS  C21719152   2.803   6.195   4.766  0.0555  0.6210 -0.6686
  169SAPS  H17R19153   2.825   6.131   4.854 -1.4198  0.7781 -0.1689
  169SAPS  H17S19154   2.906   6.237   4.761  0.4543  0.2992  2.5766
  169SAPS  C21819155   2.750   6.119   4.652  0.2569  0.7012  0.1830
  169SAPS  H18R19156   2.655   6.069   4.682 -0.6856  0.3835 -2.9322
  169SAPS  H18S19157   2.822   6.042   4.617 -0.5916  1.2253 -3.0244
  169SAPS  C21919158   2.733   6.212   4.530  0.4028 -0.0250  0.3933
  169SAPS  H19R19159   2.832   6.256   4.506  0.2501 -1.6798 -4.2320
  169SAPS  H19S19160   2.654   6.286   4.555  1.1666  1.0516 -0.3145
  169SAPS  C22019161   2.682   6.137   4.406  0.1261 -0.5959  0.0770
  169SAPS  H20R19162   2.636   6.214   4.341  0.3265 -0.0653  0.5558
  169SAPS  H20S19163   2.604   6.062   4.431 -0.0582 -0.3169  0.3501
  169SAPS  H20T19164   2.762   6.075   4.362  1.4847  0.5703  0.8114
  169SAPS   C3319165   2.536   5.760   5.964  0.1635 -0.1074 -0.0789
  169SAPS   H3X19166   2.556   5.661   6.008  0.3583 -0.3117 -0.6136
  169SAPS   H3Y19167   2.632   5.815   5.951 -1.3360  2.4866 -1.0138
  169SAPS   C3419168   2.488   5.733   5.819  0.4705 -0.0663  0.1129
  169SAPS   H4X19169   2.378   5.729   5.830  0.6171 -0.7423  1.7105
  169SAPS   H4Y19170   2.524   5.637   5.776  0.1341 -0.4677  0.7113
  169SAPS   C3519171   2.535   5.834   5.718  0.5816 -0.3162  0.0649
  169SAPS   H5X19172   2.640   5.868   5.734 -0.0114  0.5394  2.5780
  169SAPS   H5Y19173   2.469   5.923   5.730  0.5761 -0.5446  2.1967
  169SAPS   C3619174   2.511   5.795   5.576  0.0441  0.7341  0.6879
  169SAPS   H6X19175   2.402   5.790   5.556  0.0481 -2.1564  0.9397
  169SAPS   H6Y19176   2.553   5.694   5.554 -4.4824 -1.7423  1.9938
  169SAPS   C3719177   2.568   5.903   5.482  0.3089  0.3097 -0.7631
  169SAPS   H7X19178   2.678   5.918   5.493  0.3183  0.0558 -0.5005
  169SAPS   H7Y19179   2.514   5.996   5.510  0.9322  0.1324  1.2034
  169SAPS   C3819180   2.535   5.881   5.335  0.4072  0.5120 -0.3268
  169SAPS   H8X19181   2.553   5.968   5.268 -1.8473  0.6778 -0.7877
  169SAPS   H8Y19182   2.426   5.861   5.326  0.4030  0.5666 -0.4012
  169SAPS   C3919183   2.594   5.752   5.272  0.6624  0.5543 -0.3082
  169SAPS   H9X19184   2.569   5.665   5.337  2.1713  1.1995  1.2083
  169SAPS   H9Y19185   2.705   5.762   5.271  0.8737 -1.1686  1.1613
  169SAPS  C31019186   2.554   5.728   5.127  0.4009  0.3570 -0.1024
  169SAPS  H10X19187   2.454   5.682   5.120  0.2649  0.0773  2.7598
  169SAPS  H10Y19188   2.633   5.659   5.089 -0.5605 -0.1969 -1.1340
  169SAPS  C31119189   2.552   5.862   5.040  0.1242  0.4704  0.5166
  169SAPS  H11X19190   2.651   5.903   5.068  2.6310 -3.5506 -1.4144
  169SAPS  H11Y19191   2.469   5.930   5.069  0.9334  0.8425  2.0797
  169SAPS  C31219192   2.544   5.834   4.894 -0.5683 -0.4888  0.1384
  169SAPS  H12X19193   2.489   5.911   4.836 -2.7324 -1.3146  0.9912
  169SAPS  H12Y19194   2.479   5.745   4.883 -2.5981  0.9508 -0.0329
  169SAPS  C31319195   2.682   5.804   4.825  0.0085  0.0824  0.5033
  169SAPS  H13X19196   2.741   5.721   4.871  1.7243  1.4485  0.8577
  169SAPS  H13Y19197   2.747   5.892   4.845 -0.7967  0.8535 -0.2139
  169SAPS  C31419198   2.664   5.765   4.678 -0.0118  0.3015 -0.2091
  169SAPS  H14X19199   2.616   5.853   4.632  1.1132  0.9224 -0.2352
  169SAPS  H14Y19200   2.585   5.687   4.673 -0.1133  0.4341 -0.6737
  169SAPS  C31519201   2.784   5.720   4.608 -0.6509  0.2436 -0.3945
  169SAPS  H15X19202   2.823   5.630   4.660 -2.3986 -0.8999 -0.9758
  169SAPS  H15Y19203   2.861   5.800   4.606 -0.5047  0.1367  0.6150
  169SAPS  C31619204   2.758   5.685   4.458 -0.3654  0.2886 -0.8318
  169SAPS  H16X19205   2.703   5.764   4.402 -1.3034 -0.2598 -0.7091
  169SAPS  H16Y19206   2.706   5.587   4.458 -2.7705  1.3555  2.4375
  169SAPS  C31719207   2.890   5.662   4.382 -0.4050 -0.2448 -0.5770
  169SAPS  H17X19208   2.960   5.595   4.437  0.9512  1.4893 -0.0583
  169SAPS  H17Y19209   2.940   5.762   4.376 -2.9759  1.1164 -0.7188
  169SAPS  C31819210   2.872   5.609   4.239 -0.2418  0.4869 -0.1948
  169SAPS  H18X19211   2.869   5.498   4.238  0.0862  0.4355  1.2574
  169SAPS  H18Y19212   2.963   5.619   4.176  0.9171 -0.9064  1.1624
  169SAPS  H18Z19213   2.786   5.650   4.182 -0.3389 -2.6565 -2.5947
  170SAPS     N19214   4.587   4.013   6.583 -0.1252  0.4728  0.0008
  170SAPS   HN119215   4.676   4.005   6.529  0.9784  1.7734  1.5179
  170SAPS   HN219216   4.508   3.976   6.527 -0.4540 -1.6343  1.7181
  170SAPS   HN319217   4.573   4.114   6.603  0.8821  1.4857 -3.6205
  170SAPS   C1219218   4.621   3.935   6.705  0.1231  0.0038 -0.3724
  170SAPS  H12A19219   4.698   3.986   6.762  2.2471  0.0514 -3.0454
  170SAPS   C1319220   4.504   3.902   6.803  0.2557  0.0581 -0.0611
  170SAPS  O13A19221   4.398   3.965   6.778  0.1830  0.0294 -0.6478
  170SAPS  O13B19222   4.535   3.853   6.914  0.2878 -0.2367  0.6060
  170SAPS   C1119223   4.694   3.810   6.662 -0.1086  0.8262  0.5422
  170SAPS  H11A19224   4.640   3.761   6.578  0.8686  0.7245 -0.0459
  170SAPS  H11B19225   4.698   3.733   6.742  2.2054  1.3492  1.0229
  170SAPS     P19226   4.914   3.747   6.513  0.2140 -0.2352 -0.0176
  170SAPS   O1319227   5.025   3.831   6.464  0.1942 -0.2705 -0.2871
  170SAPS   O1419228   4.951   3.616   6.568 -0.0036 -0.1454 -0.0631
  170SAPS   O1219229   4.830   3.836   6.616 -0.0535 -0.1204  0.2608
  170SAPS   O1119230   4.812   3.727   6.394 -0.5789 -0.5150 -0.4563
  170SAPS    C119231   4.791   3.830   6.299 -0.1194  0.7230  0.4820
  170SAPS    HA19232   4.700   3.889   6.321  0.4321  1.2119  1.5197
  170SAPS    HB19233   4.868   3.910   6.304  0.1397  0.4999  0.1317
  170SAPS    C219234   4.815   3.777   6.154  1.1230  0.1226  0.3425
  170SAPS    HS19235   4.815   3.868   6.090  0.8241 -0.8407 -1.0397
  170SAPS   O2119236   4.718   3.680   6.127  0.1829 -0.6277  0.2470
  170SAPS   C2119237   4.595   3.735   6.120 -0.0088 -0.0150 -0.1470
  170SAPS   O2219238   4.573   3.852   6.123  0.4623  0.1514  0.2569
  170SAPS   C2219239   4.492   3.625   6.100  0.0970  0.4070  0.8568
  170SAPS   H2R19240   4.526   3.525   6.134 -1.1757 -1.0020 -1.7153
  170SAPS   H2S19241   4.396   3.651   6.149 -0.9668  3.5372 -2.4498
  170SAPS    C319242   4.957   3.727   6.129  0.4239 -0.1393  0.1215
  170SAPS    HX19243   5.001   3.659   6.205  2.6278 -0.5194 -1.3757
  170SAPS    HY19244   5.030   3.811   6.133  0.7343 -0.4618  1.7068
  170SAPS   O3119245   4.961   3.658   6.003 -0.8530  0.7960 -0.7309
  170SAPS   C3119246   4.952   3.733   5.892  0.9118  0.0632 -0.3443
  170SAPS   O3219247   4.957   3.853   5.886 -0.5766 -0.2223 -0.2077
  170SAPS   C3219248   4.944   3.637   5.769  0.0727  0.3959 -0.7033
  170SAPS   H2X19249   4.842   3.591   5.770 -0.3112  0.9276  3.8398
  170SAPS   H2Y19250   5.020   3.558   5.790  0.4906  1.5191  2.5156
  170SAPS   C2319251   4.467   3.610   5.945  0.1134  0.0160 -0.1472
  170SAPS   H3R19252   4.408   3.695   5.904  1.3816 -0.2091 -2.6473
  170SAPS   H3S19253   4.401   3.521   5.933 -1.0782  1.0227 -1.3824
  170SAPS   C2419254   4.594   3.584   5.870  0.2897 -0.3908 -0.4463
  170SAPS   H4R19255   4.650   3.494   5.903 -3.1802 -3.3597 -1.9225
  170SAPS   H4S19256   4.666   3.668   5.879 -0.6061  0.7571 -2.9718
  170SAPS   C2519257   4.541   3.573   5.727  0.5713  0.7064 -0.6658
  170SAPS   H5R19258   4.467   3.649   5.699 -0.7284 -0.1733  0.2744
  170SAPS   C2619259   4.590   3.490   5.632  0.3646 -0.1051  0.1148
  170SAPS   H6R19260   4.545   3.496   5.532 -1.9378 -1.9290  0.9397
  170SAPS   C2719261   4.685   3.373   5.638 -0.0189  0.0357  0.5450
  170SAPS   H7R19262   4.771   3.419   5.693  0.4010 -1.0661  0.8357
  170SAPS   H7S19263   4.723   3.344   5.538  1.1776  1.8273  0.4313
  170SAPS   C2819264   4.634   3.266   5.718  0.0372  0.0622 -0.4055
  170SAPS   H8R19265   4.655   3.268   5.826  0.0962 -0.5536 -0.4006
  170SAPS   C2919266   4.530   3.186   5.684 -0.0735 -0.7162 -0.8191
  170SAPS   H9R19267   4.499   3.112   5.759 -1.1445  0.7376  0.2263
  170SAPS  C21019268   4.477   3.177   5.541 -0.0339  0.3209 -0.0044
  170SAPS  H10R19269   4.546   3.221   5.467 -1.9606  0.8025 -1.5929
  170SAPS  H10S19270   4.389   3.244   5.533 -0.7349 -0.3444  1.6885
  170SAPS  C21119271   4.418   3.049   5.486 -0.1748  0.2151 -0.5610
  170SAPS  H11R19272   4.325   3.022   5.538  0.3850 -0.1995  0.2556
  170SAPS  C21219273   4.472   2.954   5.406 -0.1222 -0.2221  0.2413
  170SAPS  H12R19274   4.408   2.874   5.366 -0.7012  0.8292 -0.9991
  170SAPS  C21319275   4.614   2.962   5.360 -0.5127  0.3165  0.2679
  170SAPS  H13R19276   4.646   2.860   5.329  1.0210  0.6878  0.5630
  170SAPS  H13S19277   4.685   2.994   5.438 -1.8390 -0.3393  1.8045
  170SAPS  C21419278   4.631   3.051   5.238 -0.1272  0.4924 -0.5203
  170SAPS  H14R19279   4.591   3.152   5.259  0.9562  1.3284 -2.2494
  170SAPS  C21519280   4.700   3.029   5.125  0.0091  0.3073 -0.3829
  170SAPS  H15R19281   4.704   3.123   5.068  1.1192  0.4806 -0.0351
  170SAPS  C21619282   4.771   2.906   5.072  0.7281  0.1069 -0.1616
  170SAPS  H16R19283   4.751   2.819   5.139 -0.0807 -0.4254 -1.0672
  170SAPS  H16S19284   4.882   2.914   5.063  0.6873 -0.0529 -0.9181
  170SAPS  C21719285   4.708   2.862   4.939  1.0652 -0.1213  0.1754
  170SAPS  H17R19286   4.597   2.859   4.946  1.0186 -0.7078 -0.6549
  170SAPS  H17S19287   4.750   2.762   4.918  0.6900 -0.1784 -0.3334
  170SAPS  C21819288   4.752   2.943   4.819 -0.1058 -0.6116  0.7409
  170SAPS  H18R19289   4.696   3.038   4.825 -1.5731 -1.2238 -1.7420
  170SAPS  H18S19290   4.713   2.893   4.727 -0.9998  0.2237  0.6423
  170SAPS  C21919291   4.905   2.963   4.790 -1.0381  0.3289  0.4954
  170SAPS  H19R19292   4.961   2.868   4.783 -2.7587 -0.9057  2.4567
  170SAPS  H19S19293   4.941   3.014   4.882 -2.7685  0.8903  0.9000
  170SAPS  C22019294   4.933   3.059   4.672  0.4888  0.9077  0.5192
  170SAPS  H20R19295   5.031   3.111   4.680  1.1750 -0.0601 -1.0705
  170SAPS  H20S19296   4.853   3.135   4.657  1.0919  1.3468 -0.5465
  170SAPS  H20T19297   4.937   2.989   4.586  1.3943 -1.9067  2.6805
  170SAPS   C3319298   4.967   3.702   5.635 -0.3847 -1.0056 -0.1423
  170SAPS   H3X19299   5.061   3.762   5.638 -0.7228 -0.4945  1.0755
  170SAPS   H3Y19300   4.887   3.778   5.622 -0.1947 -0.8665 -0.5276
  170SAPS   C3419301   4.974   3.606   5.519  1.1326  0.0321 -0.0830
  170SAPS   H4X19302   4.897   3.527   5.511 -0.4608  1.6792 -2.0774
  170SAPS   H4Y19303   5.068   3.546   5.516  0.9736 -0.3448  1.3811
  170SAPS   C3519304   4.968   3.674   5.381  0.4847  0.1341 -0.2707
  170SAPS   H5X19305   5.002   3.586   5.323  3.0999  0.7544  0.1935
  170SAPS   H5Y19306   5.042   3.755   5.366 -0.1656  0.5820 -1.1429
  170SAPS   C3619307   4.825   3.714   5.329 -0.4420 -0.1248 -1.0597
  170SAPS   H6X19308   4.774   3.793   5.388  0.8566  0.5274 -0.7876
  170SAPS   H6Y19309   4.760   3.624   5.333 -3.4034  1.8711 -1.2019
  170SAPS   C3719310   4.841   3.752   5.186 -0.0094  0.1514 -0.2860
  170SAPS   H7X19311   4.920   3.828   5.172  1.2432 -1.5103 -2.9469
  170SAPS   H7Y19312   4.751   3.812   5.160 -0.0539  1.9061  3.3408
  170SAPS   C3819313   4.873   3.635   5.092  0.2740  0.4171 -0.0519
  170SAPS   H8X19314   4.852   3.541   5.147 -1.9453  1.3432  0.8042
  170SAPS   H8Y19315   4.982   3.614   5.089 -0.0968 -1.8905  0.4833
  170SAPS   C3919316   4.803   3.638   4.958  0.9124  0.6667 -0.7291
  170SAPS   H9X19317   4.818   3.745   4.934 -0.1932  1.3567  1.3713
  170SAPS   H9Y19318   4.693   3.631   4.966  0.7937  1.7133 -1.3079
  170SAPS  C31019319   4.851   3.551   4.849 -0.3757 -0.5859  0.0518
  170SAPS  H10X19320   4.811   3.448   4.857 -1.4762 -0.0620  2.0026
  170SAPS  H10Y19321   4.962   3.546   4.847 -0.2847  0.7025  0.5971
  170SAPS  C31119322   4.815   3.605   4.709  0.0992 -0.0712 -0.8368
  170SAPS  H11X19323   4.843   3.713   4.711 -1.3400  0.3536  2.3882
  170SAPS  H11Y19324   4.705   3.605   4.724  0.2513 -3.4002  1.0516
  170SAPS  C31219325   4.867   3.525   4.587  0.1214 -0.8398 -0.4982
  170SAPS  H12X19326   4.820   3.425   4.597  0.8090 -1.0854  0.4227
  170SAPS  H12Y19327   4.977   3.518   4.601  0.1589 -1.8109 -1.1552
  170SAPS  C31319328   4.833   3.593   4.461 -0.1732  0.5023 -0.1158
  170SAPS  H13X19329   4.735   3.645   4.471 -0.9701 -1.1028  0.8980
  170SAPS  H13Y19330   4.819   3.521   4.378  1.4352 -0.4936  0.4434
  170SAPS  C31419331   4.947   3.680   4.407 -0.2372 -0.1464 -0.4656
  170SAPS  H14X19332   5.030   3.606   4.399  0.8712  0.7381  1.9544
  170SAPS  H14Y19333   4.985   3.745   4.489 -1.8968 -0.1619  0.3626
  170SAPS  C31519334   4.922   3.765   4.285  0.0892  0.3830 -0.2059
  170SAPS  H15X19335   4.836   3.835   4.293  0.0422  0.4235 -1.0095
  170SAPS  H15Y19336   4.893   3.711   4.193 -2.6033  0.9479  0.2360
  170SAPS  C31619337   5.042   3.848   4.245  0.8170 -0.3528 -0.1994
  170SAPS  H16X19338   5.139   3.797   4.261  0.4411 -1.0670 -0.1217
  170SAPS  H16Y19339   5.042   3.943   4.302 -1.1896 -0.9039  0.8006
  170SAPS  C31719340   5.040   3.902   4.102  0.2832  0.4738  0.1310
  170SAPS  H17X19341   4.958   3.977   4.097 -0.5589 -0.2103  2.4311
  170SAPS  H17Y19342   5.032   3.822   4.025  2.6248 -0.5286  0.8234
  170SAPS  C31819343   5.176   3.974   4.068  0.4404  0.4411 -0.5498
  170SAPS  H18X19344   5.176   4.075   4.114  0.1511 -0.2556  1.0337
  170SAPS  H18Y19345   5.185   3.989   3.958  1.8102  3.1087 -0.1514
  170SAPS  H18Z19346   5.251   3.903   4.110 -0.9851 -0.7918  0.0356
  171SAPS     N19347   4.202   3.801   6.869  0.0579  0.4213 -0.2874
  171SAPS   HN119348   4.298   3.839   6.855  0.5487 -0.9087 -0.7113
  171SAPS   HN219349   4.142   3.879   6.836  1.6816  2.1035  0.5691
  171SAPS   HN319350   4.176   3.789   6.969  1.9737 -1.8729  0.0119
  171SAPS   C1219351   4.166   3.680   6.794 -0.3217  0.3589 -0.0902
  171SAPS  H12A19352   4.251   3.613   6.788 -1.7150 -1.4095 -1.0138
  171SAPS   C1319353   4.072   3.590   6.869 -0.3131  0.4452 -0.3368
  171SAPS  O13A19354   4.026   3.625   6.984 -1.1748 -0.7745  0.7218
  171SAPS  O13B19355   4.065   3.470   6.834 -0.2664  0.1721  0.3779
  171SAPS   C1119356   4.118   3.711   6.652  0.9602  0.2278 -0.0397
  171SAPS  H11A19357   4.018   3.758   6.648  1.3056  1.1635  1.4371
  171SAPS  H11B19358   4.110   3.614   6.599 -0.9976  0.0683  0.4894
  171SAPS     P19359   4.330   3.753   6.497  0.0752 -0.0307  0.1207
  171SAPS   O1319360   4.414   3.863   6.456 -0.6305  0.1535  0.6666
  171SAPS   O1419361   4.391   3.633   6.549 -0.8631 -0.1213 -0.1432
  171SAPS   O1219362   4.209   3.799   6.588  0.0203 -0.5236 -0.2984
  171SAPS   O1119363   4.241   3.705   6.372  0.2640  0.2602 -0.6289
  171SAPS    C119364   4.136   3.790   6.325  0.0815  0.4379  0.2462
  171SAPS    HA19365   4.040   3.762   6.375  0.5184 -1.2079  0.2158
  171SAPS    HB19366   4.154   3.896   6.349  1.7374  0.3104 -0.3307
  171SAPS    C219367   4.123   3.774   6.174 -0.0975 -0.1278 -0.6609
  171SAPS    HS19368   4.016   3.792   6.152 -0.1266  1.3650  0.4852
  171SAPS   O2119369   4.163   3.643   6.130 -0.1902  0.3214 -0.2316
  171SAPS   C2119370   4.080   3.547   6.176 -0.0593 -0.1161 -0.9776
  171SAPS   O2219371   3.982   3.566   6.251  0.6444  0.1631  0.3236
  171SAPS   C2219372   4.130   3.413   6.126 -0.3724 -0.4129 -0.3996
  171SAPS   H2R19373   4.235   3.419   6.092  0.2667  0.3084  1.5684
  171SAPS   H2S19374   4.132   3.336   6.206  1.1276 -2.1191 -1.9644
  171SAPS    C319375   4.213   3.885   6.106 -0.3421  0.0488  0.6499
  171SAPS    HX19376   4.311   3.870   6.156  0.5091 -1.1384 -1.2208
  171SAPS    HY19377   4.179   3.989   6.126 -1.6015 -0.2347  0.1131
  171SAPS   O3119378   4.240   3.872   5.965  0.2310  0.1537 -0.1290
  171SAPS   C3119379   4.145   3.893   5.880 -0.1903  0.5544  0.3736
  171SAPS   O3219380   4.031   3.927   5.906 -0.2376  0.2498  0.3966
  171SAPS   C3219381   4.206   3.884   5.742  0.0505 -0.1305  0.5432
  171SAPS   H2X19382   4.240   3.779   5.726  1.9106  0.2441  1.6773
  171SAPS   H2Y19383   4.295   3.951   5.734  0.4311 -0.6729  0.1627
  171SAPS   C2319384   4.027   3.369   6.024  0.3728 -0.3558  1.0808
  171SAPS   H3R19385   3.928   3.343   6.069 -0.0821 -2.2065 -0.8419
  171SAPS   H3S19386   4.069   3.273   5.986  0.1563  0.6555 -1.9749
  171SAPS   C2419387   4.009   3.458   5.904  0.0968 -0.6355  0.7135
  171SAPS   H4R19388   3.940   3.543   5.923  1.8136  1.1565 -0.6313
  171SAPS   H4S19389   3.946   3.400   5.833  1.7567 -0.6117 -0.8453
  171SAPS   C2519390   4.128   3.517   5.836 -0.4908  0.2839  0.7802
  171SAPS   H5R19391   4.190   3.590   5.889  0.4342  0.0340  0.0736
  171SAPS   C2619392   4.151   3.484   5.707  0.0939  0.0742  0.2781
  171SAPS   H6R19393   4.251   3.513   5.670  1.5876 -3.1386  1.3488
  171SAPS   C2719394   4.089   3.382   5.610 -0.0878  0.0555  0.7609
  171SAPS   H7R19395   4.019   3.310   5.660 -0.0776 -0.3049  0.2622
  171SAPS   H7S19396   4.161   3.320   5.552  0.9971  1.9129  0.0649
  171SAPS   C2819397   4.011   3.467   5.508 -0.3937 -0.3608 -0.9520
  171SAPS   H8R19398   3.954   3.549   5.552  0.9770  1.4222 -2.3433
  171SAPS   C2919399   4.012   3.457   5.382  0.2857  0.0218  0.7348
  171SAPS   H9R19400   3.975   3.549   5.335 -3.1082  0.2218  3.4395
  171SAPS  C21019401   4.065   3.347   5.295 -0.6244 -0.2894 -0.1948
  171SAPS  H10R19402   4.061   3.248   5.345 -0.8306 -0.5507 -0.7278
  171SAPS  H10S19403   4.174   3.369   5.285 -0.4996 -0.5076  0.6115
  171SAPS  C21119404   4.020   3.356   5.149  1.5666  0.6282  0.3664
  171SAPS  H11R19405   3.986   3.452   5.109 -0.7618 -0.1188  0.3772
  171SAPS  C21219406   4.033   3.249   5.070 -0.1667  0.5321 -0.3913
  171SAPS  H12R19407   4.007   3.263   4.964 -0.6528  0.5643 -0.2689
  171SAPS  C21319408   4.081   3.110   5.102  0.4858 -0.5169  0.1344
  171SAPS  H13R19409   4.033   3.040   5.030  0.4678  0.4113 -0.7907
  171SAPS  H13S19410   4.057   3.081   5.206 -0.9074  0.1084  0.0123
  171SAPS  C21419411   4.233   3.096   5.094 -0.1418 -0.3593  1.2823
  171SAPS  H14R19412   4.293   3.189   5.089  0.8681 -1.0080 -3.3682
  171SAPS  C21519413   4.300   2.986   5.054  0.0225  0.1750  1.0718
  171SAPS  H15R19414   4.408   3.005   5.052 -0.0581  1.0539  2.9813
  171SAPS  C21619415   4.235   2.845   5.046 -0.2977 -0.1535 -0.4306
  171SAPS  H16R19416   4.127   2.862   5.026 -0.2351  0.0664 -0.5862
  171SAPS  H16S19417   4.253   2.793   5.142 -4.9381 -0.6260  0.3837
  171SAPS  C21719418   4.291   2.764   4.923 -0.0339  0.3157 -0.4984
  171SAPS  H17R19419   4.251   2.660   4.922  1.9021 -0.4574 -1.6021
  171SAPS  H17S19420   4.401   2.754   4.936 -0.1146  0.7454  0.7067
  171SAPS  C21819421   4.258   2.830   4.785 -0.3051 -0.2841 -0.0560
  171SAPS  H18R19422   4.326   2.918   4.781 -1.0866  0.3545  0.2400
  171SAPS  H18S19423   4.153   2.866   4.796  0.3172  0.8471  3.5722
  171SAPS  C21919424   4.286   2.741   4.668  0.5399  0.6435  0.4695
  171SAPS  H19R19425   4.232   2.786   4.582 -0.9935  1.0683  1.6200
  171SAPS  H19S19426   4.254   2.636   4.682  0.7016  0.7050  1.3957
  171SAPS  C22019427   4.436   2.748   4.640  0.0583 -0.2162 -0.1382
  171SAPS  H20R19428   4.473   2.672   4.568  0.9845 -0.1447  0.2533
  171SAPS  H20S19429   4.489   2.729   4.736 -3.4882  0.3824  2.1154
  171SAPS  H20T19430   4.465   2.842   4.590 -2.6500  0.2486 -0.9700
  171SAPS   C3319431   4.089   3.899   5.636 -0.3120  0.6412 -0.1223
  171SAPS   H3X19432   4.034   3.992   5.661  0.8103  1.9767 -2.2828
  171SAPS   H3Y19433   4.021   3.811   5.637 -1.0861  1.2327 -0.3234
  171SAPS   C3419434   4.141   3.925   5.498  0.8020 -0.6709 -0.5612
  171SAPS   H4X19435   4.212   4.009   5.507  1.2003 -0.9001 -1.4396
  171SAPS   H4Y19436   4.052   3.936   5.432  0.3777 -0.3971  0.0499
  171SAPS   C3519437   4.222   3.807   5.446  0.0691  0.3292 -0.8411
  171SAPS   H5X19438   4.181   3.707   5.470  0.8218 -0.3508 -2.2963
  171SAPS   H5Y19439   4.329   3.821   5.472 -0.2991  0.3040  0.8323
  171SAPS   C3619440   4.223   3.791   5.297 -0.7671 -0.1125 -0.3217
  171SAPS   H6X19441   4.252   3.892   5.259 -1.6424 -0.3822 -1.7388
  171SAPS   H6Y19442   4.116   3.793   5.270 -1.0355  0.7359  0.6812
  171SAPS   C3719443   4.301   3.685   5.227 -0.5337 -0.0463  0.2361
  171SAPS   H7X19444   4.265   3.586   5.263 -0.4333 -0.8238 -1.7238
  171SAPS   H7Y19445   4.410   3.695   5.244 -0.7910  0.1707  2.0131
  171SAPS   C3819446   4.284   3.673   5.076 -0.4986  0.1357 -0.1098
  171SAPS   H8X19447   4.316   3.765   5.022 -0.9387 -0.2161 -0.9893
  171SAPS   H8Y19448   4.175   3.675   5.052 -0.5182 -0.5093 -0.0964
  171SAPS   C3919449   4.351   3.538   5.024 -0.0275  0.0096 -0.8855
  171SAPS   H9X19450   4.330   3.452   5.091  2.9923 -2.8236 -3.2081
  171SAPS   H9Y19451   4.462   3.545   5.025 -0.0883  1.0557 -0.8250
  171SAPS  C31019452   4.320   3.501   4.882 -0.2507  0.0396  0.4031
  171SAPS  H10X19453   4.326   3.597   4.826 -0.0357  0.0629  0.4639
  171SAPS  H10Y19454   4.217   3.460   4.880 -0.0342 -0.6814 -3.1342
  171SAPS  C31119455   4.414   3.397   4.829 -0.3280  0.6161 -0.5564
  171SAPS  H11X19456   4.400   3.302   4.885  1.3044  0.5070 -0.2814
  171SAPS  H11Y19457   4.519   3.426   4.847  0.7190 -1.7377 -2.3596
  171SAPS  C31219458   4.390   3.379   4.676  0.1345 -0.1895  0.5291
  171SAPS  H12X19459   4.374   3.479   4.630  1.9508 -0.4376 -0.7641
  171SAPS  H12Y19460   4.301   3.315   4.659  0.2382 -0.6700  1.6823
  171SAPS  C31319461   4.510   3.315   4.601 -0.0804  0.5379  0.2116
  171SAPS  H13X19462   4.522   3.209   4.632  1.8764  0.2845 -1.2568
  171SAPS  H13Y19463   4.603   3.367   4.633  0.2491 -0.4441  0.8846
  171SAPS  C31419464   4.487   3.329   4.450 -0.8103  0.6519 -0.1450
  171SAPS  H14X19465   4.500   3.435   4.419  1.5924  0.1287 -1.1943
  171SAPS  H14Y19466   4.379   3.310   4.436 -1.1153 -0.0433  2.4872
  171SAPS  C31519467   4.589   3.244   4.369 -0.0447  0.5620  0.2136
  171SAPS  H15X19468   4.692   3.259   4.409 -0.0406  1.5016 -0.1216
  171SAPS  H15Y19469   4.588   3.270   4.261  3.4077  3.2651  0.6484
  171SAPS  C31619470   4.571   3.084   4.376  0.8196 -0.6021  0.5701
  171SAPS  H16X19471   4.465   3.054   4.358  0.6153  0.1000  0.6007
  171SAPS  H16Y19472   4.587   3.065   4.484  0.6447 -0.1983  0.6662
  171SAPS  C31719473   4.665   3.011   4.280 -0.2691  0.5133  0.0586
  171SAPS  H17X19474   4.767   3.035   4.317  0.2524  0.3891 -1.2356
  171SAPS  H17Y19475   4.662   3.049   4.175 -1.7134 -0.4892 -0.3042
  171SAPS  C31819476   4.631   2.857   4.293  0.4195 -0.5597 -0.1664
  171SAPS  H18X19477   4.722   2.802   4.260  1.2103  0.0382  0.9405
  171SAPS  H18Y19478   4.547   2.816   4.232 -1.0648 -0.3741  1.6680
  171SAPS  H18Z19479   4.620   2.843   4.403  0.4914  0.0346 -0.0803
  172SAPS     N19480   3.999   5.816   6.449  0.7781 -0.1446 -0.1354
  172SAPS   HN119481   4.095   5.783   6.470  0.7852  0.1587  0.3161
  172SAPS   HN219482   3.928   5.767   6.507  0.5269 -0.1034 -0.4057
  172SAPS   HN319483   3.983   5.803   6.347 -0.9495  0.5231  0.0106
  172SAPS   C1219484   3.979   5.961   6.483  0.2806 -0.1777 -0.1126
  172SAPS  H12A19485   3.897   6.001   6.426  0.4322  0.6565  0.2389
  172SAPS   C1319486   3.959   5.996   6.637  1.3052 -0.0035 -0.5724
  172SAPS  O13A19487   3.933   5.898   6.719  0.4117  0.6337 -0.0629
  172SAPS  O13B19488   3.908   6.109   6.655 -0.1089 -0.0440 -0.1949
  172SAPS   C1119489   4.110   6.018   6.427  0.4538  0.3241  0.0701
  172SAPS  H11A19490   4.195   5.968   6.479 -0.5829 -1.2970  0.2758
  172SAPS  H11B19491   4.111   6.124   6.462  0.7052  0.0377  0.9552
  172SAPS     P19492   4.116   6.127   6.187 -0.2014  0.0364  0.2111
  172SAPS   O1319493   4.234   6.210   6.218  0.1023 -0.1289  0.4434
  172SAPS   O1419494   4.119   6.082   6.042  0.5932  0.1222 -0.4676
  172SAPS   O1219495   4.114   5.996   6.278 -0.0265  0.2609 -1.1917
  172SAPS   O1119496   3.982   6.200   6.207  0.0351 -0.1768 -0.3923
  172SAPS    C119497   3.855   6.145   6.175  0.4535 -0.2257  0.2444
  172SAPS    HA19498   3.855   6.034   6.169  1.8693 -0.2626  0.5441
  172SAPS    HB19499   3.778   6.183   6.245 -0.7100  4.0234 -2.9325
  172SAPS    C219500   3.805   6.196   6.043  0.1247  0.2996  0.2661
  172SAPS    HS19501   3.884   6.166   5.971 -0.7110 -1.8283  0.1669
  172SAPS   O2119502   3.769   6.330   6.047 -0.5282  0.1418 -0.5114
  172SAPS   C2119503   3.866   6.413   6.003 -0.4443 -0.3589  0.8335
  172SAPS   O2219504   3.985   6.388   5.997 -0.2576  0.3313 -0.3400
  172SAPS   C2219505   3.811   6.551   5.986  0.0270 -0.0428 -0.3433
  172SAPS   H2R19506   3.769   6.582   6.084 -2.0341  0.0407 -1.1988
  172SAPS   H2S19507   3.894   6.622   5.966  0.2539 -0.2616 -0.1793
  172SAPS    C319508   3.690   6.107   6.005 -0.0486 -0.2912 -0.1487
  172SAPS    HX19509   3.610   6.143   6.074  2.1299  2.6897  0.9980
  172SAPS    HY19510   3.709   5.999   6.022 -0.2577 -0.2909  0.0895
  172SAPS   O3119511   3.652   6.119   5.866 -0.7627  0.4410 -0.1406
  172SAPS   C3119512   3.552   6.203   5.838 -0.5673 -0.4290 -1.2893
  172SAPS   O3219513   3.489   6.269   5.917 -0.2346  0.1428  0.4970
  172SAPS   C3219514   3.544   6.222   5.687 -0.3826  0.4226 -0.1203
  172SAPS   H2X19515   3.647   6.211   5.646  0.4767  2.0103  1.4750
  172SAPS   H2Y19516   3.520   6.329   5.668  1.4039  0.6897 -1.0701
  172SAPS   C2319517   3.699   6.564   5.876  0.0495 -0.5133 -0.0510
  172SAPS   H3R19518   3.652   6.652   5.925  1.3370 -0.3301  0.9087
  172SAPS   H3S19519   3.626   6.480   5.867  1.0065 -1.3710 -0.0353
  172SAPS   C2419520   3.753   6.599   5.736 -0.5788  0.6181  0.1016
  172SAPS   H4R19521   3.812   6.690   5.756  0.4693 -0.0122 -0.0372
  172SAPS   H4S19522   3.668   6.634   5.674 -1.1122  1.0608  1.0563
  172SAPS   C2519523   3.847   6.497   5.674 -0.6172 -0.1097  0.3313
  172SAPS   H5R19524   3.922   6.452   5.741  2.1540  3.0944 -0.3944
  172SAPS   C2619525   3.847   6.454   5.547  0.1994 -0.2335  0.0659
  172SAPS   H6R19526   3.917   6.377   5.511 -0.0943 -0.4868  0.0239
  172SAPS   C2719527   3.744   6.497   5.443 -0.4297 -0.5131  0.1032
  172SAPS   H7R19528   3.644   6.521   5.485 -1.2707 -0.7396 -1.6841
  172SAPS   H7S19529   3.723   6.412   5.374  3.9203 -1.6150 -0.1728
  172SAPS   C2819530   3.781   6.627   5.376 -0.5493 -0.4002  0.2398
  172SAPS   H8R19531   3.796   6.705   5.452 -0.9352  1.6175 -1.6373
  172SAPS   C2919532   3.811   6.663   5.248  0.7756  0.3557 -0.1036
  172SAPS   H9R19533   3.827   6.767   5.219  1.1775  1.3082  3.1551
  172SAPS  C21019534   3.796   6.564   5.137 -0.1791  1.1687  0.7728
  172SAPS  H10R19535   3.692   6.541   5.107  0.8383 -1.3754 -1.2006
  172SAPS  H10S19536   3.834   6.465   5.171 -0.2167  1.1096  0.6419
  172SAPS  C21119537   3.884   6.586   5.016 -0.4245 -0.0800 -0.5709
  172SAPS  H11R19538   3.974   6.524   5.004 -0.4119 -0.4747  1.2372
  172SAPS  C21219539   3.852   6.678   4.929  0.0397  0.1491  0.2939
  172SAPS  H12R19540   3.926   6.687   4.848  0.2706 -2.7285  0.0659
  172SAPS  C21319541   3.734   6.771   4.934 -0.5162 -0.6871 -0.0142
  172SAPS  H13R19542   3.749   6.868   4.987 -0.8615 -0.1874 -0.8170
  172SAPS  H13S19543   3.649   6.735   4.995  0.2684 -2.6947 -0.0294
  172SAPS  C21419544   3.686   6.806   4.799 -0.1536  0.0496  0.3052
  172SAPS  H14R19545   3.719   6.898   4.748 -1.0654  0.8124  1.0435
  172SAPS  C21519546   3.586   6.746   4.740  0.2379  0.1146 -1.1108
  172SAPS  H15R19547   3.559   6.789   4.642  1.9416  1.4701 -1.0438
  172SAPS  C21619548   3.498   6.641   4.795  0.1937 -0.2530  0.0125
  172SAPS  H16R19549   3.475   6.651   4.903  0.4626  1.1714 -0.0505
  172SAPS  H16S19550   3.549   6.544   4.772  0.3852 -0.9829  3.1501
  172SAPS  C21719551   3.365   6.650   4.720  0.0117 -0.3117  0.3898
  172SAPS  H17R19552   3.376   6.673   4.612 -0.1361 -1.6685  0.0692
  172SAPS  H17S19553   3.305   6.736   4.758  0.1531  1.2576 -2.6070
  172SAPS  C21819554   3.284   6.521   4.727 -0.2531  0.2848 -0.5614
  172SAPS  H18R19555   3.265   6.504   4.835  2.3194 -1.1183 -0.2445
  172SAPS  H18S19556   3.342   6.437   4.681 -0.3420  0.5011 -1.0807
  172SAPS  C21919557   3.154   6.524   4.650 -0.2246  0.0557  0.2321
  172SAPS  H19R19558   3.156   6.445   4.572  0.7330  1.3166 -1.0721
  172SAPS  H19S19559   3.152   6.621   4.595 -2.1531  0.3024  0.6688
  172SAPS  C22019560   3.029   6.515   4.734 -0.2716  0.1019  0.4381
  172SAPS  H20R19561   3.003   6.611   4.783 -1.3944 -0.0672  0.2145
  172SAPS  H20S19562   3.037   6.431   4.807 -0.9620 -0.8714 -0.5608
  172SAPS  H20T19563   2.944   6.491   4.666 -0.3242  1.1173  0.1402
  172SAPS   C3319564   3.444   6.128   5.612 -0.0191  0.1205 -0.9025
  172SAPS   H3X19565   3.357   6.111   5.680  0.9316  1.5282  0.7439
  172SAPS   H3Y19566   3.498   6.033   5.592  0.0762  0.2352 -1.1797
  172SAPS   C3419567   3.386   6.180   5.483  0.0194  0.2233 -0.9015
  172SAPS   H4X19568   3.314   6.264   5.494  0.2267  0.2870  0.0478
  172SAPS   H4Y19569   3.334   6.093   5.437 -1.1188  0.9016 -0.9296
  172SAPS   C3519570   3.494   6.225   5.387  0.2397 -0.1381  0.6517
  172SAPS   H5X19571   3.566   6.141   5.377 -0.8221 -1.0136  0.1547
  172SAPS   H5Y19572   3.542   6.316   5.429  2.1605 -1.1810  0.8351
  172SAPS   C3619573   3.449   6.250   5.246  0.1438  0.8092 -0.7053
  172SAPS   H6X19574   3.408   6.353   5.256 -1.4842 -0.0276  4.4024
  172SAPS   H6Y19575   3.357   6.192   5.224 -1.0696  2.4352 -0.1305
  172SAPS   C3719576   3.560   6.223   5.142  0.1341  0.6381  0.3648
  172SAPS   H7X19577   3.607   6.126   5.168 -0.1490  0.7065  1.1906
  172SAPS   H7Y19578   3.632   6.307   5.151 -2.3095  2.8545  0.5003
  172SAPS   C3819579   3.501   6.218   5.001  0.6009 -0.1079  0.0048
  172SAPS   H8X19580   3.438   6.308   4.986  1.2061  0.1812 -0.9405
  172SAPS   H8Y19581   3.442   6.124   5.001  0.9063 -0.3270  1.6281
  172SAPS   C3919582   3.606   6.211   4.894  0.0114  1.2323  0.0494
  172SAPS   H9X19583   3.658   6.117   4.922 -0.6070  1.6094  2.7423
  172SAPS   H9Y19584   3.687   6.287   4.905  1.5818 -0.4369  0.5605
  172SAPS  C31019585   3.558   6.209   4.751  0.2853  0.1726  0.2608
  172SAPS  H10X19586   3.484   6.292   4.741  1.7823  1.8805  2.4979
  172SAPS  H10Y19587   3.508   6.111   4.731  0.7586 -0.2652  1.1910
  172SAPS  C31119588   3.671   6.240   4.650 -0.2097 -0.4868 -0.1431
  172SAPS  H11X19589   3.755   6.176   4.685 -0.5592 -1.2500 -0.6765
  172SAPS  H11Y19590   3.705   6.346   4.662  1.5591 -0.8847 -1.3237
  172SAPS  C31219591   3.643   6.215   4.501  0.2116  0.2273  0.3227
  172SAPS  H12X19592   3.733   6.246   4.445 -0.0354 -3.2501 -2.2847
  172SAPS  H12Y19593   3.560   6.274   4.455  0.1912 -0.9213 -1.1754
  172SAPS  C31319594   3.626   6.074   4.455 -0.6162 -0.3755  0.3229
  172SAPS  H13X19595   3.598   6.089   4.349 -0.2771 -0.6889  0.1865
  172SAPS  H13Y19596   3.552   6.006   4.503 -0.1108 -0.4085  1.0624
  172SAPS  C31419597   3.766   6.004   4.457 -0.7541 -0.0020 -0.5236
  172SAPS  H14X19598   3.799   5.987   4.562 -0.8445 -0.0525 -0.5032
  172SAPS  H14Y19599   3.837   6.082   4.422  0.4138  0.4106  2.4598
  172SAPS  C31519600   3.773   5.869   4.377  0.6486  0.5075  0.6028
  172SAPS  H15X19601   3.739   5.889   4.273 -0.1088 -0.3314  0.6875
  172SAPS  H15Y19602   3.697   5.803   4.423 -1.4549  1.9003 -0.7072
  172SAPS  C31619603   3.920   5.796   4.371  0.6908 -0.4747  0.2330
  172SAPS  H16X19604   3.999   5.870   4.346  1.4529 -1.5494 -0.6259
  172SAPS  H16Y19605   3.939   5.753   4.471 -0.2015 -2.8612 -0.5623
  172SAPS  C31719606   3.922   5.676   4.280  0.0734  0.0922  0.0747
  172SAPS  H17X19607   4.004   5.609   4.315 -0.0027 -0.3406 -0.5433
  172SAPS  H17Y19608   3.950   5.702   4.175  1.3261 -1.6411 -0.0772
  172SAPS  C31819609   3.793   5.592   4.275  0.1197 -0.4058  0.4877
  172SAPS  H18X19610   3.814   5.511   4.203 -1.1964 -0.1087 -0.2765
  172SAPS  H18Y19611   3.711   5.653   4.229 -0.2507 -3.2560 -3.0541
  172SAPS  H18Z19612   3.765   5.546   4.372 -2.4354  0.3699  0.1999
  173SAPS     N19613   5.368   1.077   1.816  0.0267  0.3581  0.0301
  173SAPS   HN119614   5.401   1.082   1.915  0.7627 -1.4064 -0.0899
  173SAPS   HN219615   5.266   1.095   1.820  0.1605  1.3404 -0.5578
  173SAPS   HN319616   5.383   0.985   1.771  0.0322 -0.1612  1.0679
  173SAPS   C1219617   5.449   1.177   1.744 -0.4034  0.2569  0.1051
  173SAPS  H12A19618   5.551   1.150   1.769 -0.7622 -1.0691  0.1821
  173SAPS   C1319619   5.423   1.177   1.590  0.5585 -1.0190  0.2063
  173SAPS  O13A19620   5.326   1.108   1.550  0.8281 -0.4860 -0.5395
  173SAPS  O13B19621   5.496   1.240   1.511  0.0184  0.1144  0.0771
  173SAPS   C1119622   5.395   1.320   1.778 -0.3213  0.1958  0.6178
  173SAPS  H11A19623   5.284   1.310   1.775 -0.2775 -0.0429 -1.3237
  173SAPS  H11B19624   5.428   1.400   1.709 -1.2026 -0.3571 -0.4619
  173SAPS     P19625   5.579   1.415   1.936  0.1236  0.0271 -0.0461
  173SAPS   O1319626   5.676   1.337   1.852  1.0215 -0.1904 -0.0391
  173SAPS   O1419627   5.568   1.560   1.908 -0.4137  0.1320  0.3946
  173SAPS   O1219628   5.426   1.360   1.911 -0.0277  0.4507  0.5001
  173SAPS   O1119629   5.609   1.389   2.086 -0.2604  0.0825 -0.3336
  173SAPS    C119630   5.503   1.343   2.174 -0.9396  0.2388  0.3549
  173SAPS    HA19631   5.445   1.263   2.124  1.9280 -0.4381 -2.2715
  173SAPS    HB19632   5.565   1.306   2.259  2.1537 -0.2029 -1.8989
  173SAPS    C219633   5.417   1.464   2.224  0.0653  0.1532 -0.3878
  173SAPS    HS19634   5.339   1.492   2.150  0.6134 -0.2193 -1.1230
  173SAPS   O2119635   5.499   1.581   2.251 -0.4522  0.2255 -0.0865
  173SAPS   C2119636   5.444   1.693   2.297 -0.3012 -0.5526  0.0774
  173SAPS   O2219637   5.324   1.713   2.290 -0.3760  0.1809  1.0814
  173SAPS   C2219638   5.547   1.779   2.374  1.1820  0.6585 -0.1555
  173SAPS   H2R19639   5.641   1.722   2.390  1.6496  1.5818  0.4715
  173SAPS   H2S19640   5.562   1.867   2.307  1.6543 -0.2804 -1.3139
  173SAPS    C319641   5.335   1.420   2.349 -0.4152 -0.1300 -0.0891
  173SAPS    HX19642   5.287   1.327   2.312 -0.4276  0.0035 -0.4161
  173SAPS    HY19643   5.262   1.493   2.389 -1.5798 -1.0983 -0.3693
  173SAPS   O3119644   5.421   1.396   2.460  0.0355 -0.2069 -0.0300
  173SAPS   C3119645   5.389   1.289   2.536  0.4848 -0.8770  0.0447
  173SAPS   O3219646   5.286   1.228   2.530  0.1751 -0.1975 -0.0754
  173SAPS   C3219647   5.500   1.264   2.644  0.2240  0.2566  1.1929
  173SAPS   H2X19648   5.584   1.329   2.611  1.0683 -1.0370  0.6992
  173SAPS   H2Y19649   5.527   1.157   2.629 -0.6143 -0.0074  1.5008
  173SAPS   C2319650   5.482   1.827   2.507  0.2640 -0.0425  0.0695
  173SAPS   H3R19651   5.383   1.870   2.480  1.1700  1.3969 -1.1800
  173SAPS   H3S19652   5.537   1.918   2.540  2.9344 -0.3020 -3.0391
  173SAPS   C2419653   5.461   1.724   2.609 -0.6187 -0.2008  0.2663
  173SAPS   H4R19654   5.366   1.671   2.584 -0.3420 -0.5806  0.0157
  173SAPS   H4S19655   5.439   1.787   2.698 -1.3402  3.8004 -2.4774
  173SAPS   C2519656   5.570   1.618   2.634  1.0852 -0.4265 -0.3688
  173SAPS   H5R19657   5.615   1.563   2.550  1.8673  1.4842 -1.2487
  173SAPS   C2619658   5.629   1.612   2.753  0.6640  0.1040 -0.8573
  173SAPS   H6R19659   5.696   1.529   2.780 -2.0040 -1.5811  1.1150
  173SAPS   C2719660   5.603   1.703   2.869  0.4944 -0.9176 -0.2451
  173SAPS   H7R19661   5.591   1.808   2.837  1.0716 -0.4109  1.1516
  173SAPS   H7S19662   5.696   1.699   2.929  0.0524  2.2912  0.7981
  173SAPS   C2819663   5.482   1.682   2.957  0.4664  0.7063 -0.0462
  173SAPS   H8R19664   5.392   1.659   2.898  0.7505 -0.1152 -0.1688
  173SAPS   C2919665   5.481   1.692   3.092  0.3786  0.0710  0.1531
  173SAPS   H9R19666   5.387   1.683   3.148  0.3921 -1.2093  0.0059
  173SAPS  C21019667   5.596   1.724   3.181 -0.6450 -0.4995 -0.2285
  173SAPS  H10R19668   5.688   1.667   3.156 -1.6901 -1.2157 -2.7405
  173SAPS  H10S19669   5.574   1.680   3.280  0.4766 -1.3839 -0.3551
  173SAPS  C21119670   5.627   1.874   3.184  0.7677  0.7425  0.1815
  173SAPS  H11R19671   5.630   1.928   3.088 -0.3711 -0.1610 -0.3926
  173SAPS  C21219672   5.648   1.938   3.297 -0.0103 -0.1028 -0.5848
  173SAPS  H12R19673   5.674   2.044   3.282  1.1074 -0.2069  0.5523
  173SAPS  C21319674   5.654   1.887   3.436 -0.4714  0.1807  0.1743
  173SAPS  H13R19675   5.736   1.947   3.481 -1.8353  0.9364  1.7632
  173SAPS  H13S19676   5.683   1.779   3.437  2.1770  0.7807 -1.1500
  173SAPS  C21419677   5.532   1.897   3.519 -0.1298 -0.1763 -0.2908
  173SAPS  H14R19678   5.437   1.883   3.467  0.2021  3.4753 -2.2067
  173SAPS  C21519679   5.535   1.904   3.647 -0.2065  0.4088 -0.4740
  173SAPS  H15R19680   5.442   1.911   3.705  0.1532  1.6530 -0.0297
  173SAPS  C21619681   5.659   1.895   3.727 -0.0645 -1.0146 -0.6715
  173SAPS  H16R19682   5.745   1.848   3.674  0.3063 -0.9330 -0.1432
  173SAPS  H16S19683   5.626   1.834   3.813  2.5709 -0.7712  0.6139
  173SAPS  C21719684   5.700   2.040   3.783  0.6477 -0.1985  0.3402
  173SAPS  H17R19685   5.714   2.099   3.690 -1.3049  0.9392  0.6885
  173SAPS  H17S19686   5.801   2.039   3.828  0.5022 -1.1770  0.6717
  173SAPS  C21819687   5.596   2.106   3.878 -0.5058 -0.4236 -0.0017
  173SAPS  H18R19688   5.622   2.086   3.984  0.6883  2.9838  0.4491
  173SAPS  H18S19689   5.498   2.070   3.838  0.6287 -0.9925 -2.5250
  173SAPS  C21919690   5.607   2.260   3.867  0.2695  0.4564  0.3081
  173SAPS  H19R19691   5.591   2.280   3.759  0.5108  0.6889  0.3156
  173SAPS  H19S19692   5.711   2.292   3.888  1.0980 -0.7995 -1.5177
  173SAPS  C22019693   5.498   2.334   3.944 -0.4914 -0.1781  0.1289
  173SAPS  H20R19694   5.402   2.302   3.899 -0.1923  0.3246 -0.9188
  173SAPS  H20S19695   5.517   2.444   3.941  0.0506 -0.2316  1.2154
  173SAPS  H20T19696   5.503   2.306   4.051 -0.8460  1.8611  0.7188
  173SAPS   C3319697   5.464   1.294   2.790  0.2690 -0.2386  0.2986
  173SAPS   H3X19698   5.417   1.394   2.795 -1.8802 -0.8646 -3.4038
  173SAPS   H3Y19699   5.558   1.301   2.849 -1.1691  1.5804  2.5683
  173SAPS   C3419700   5.363   1.195   2.860 -0.2417 -0.3903  0.7247
  173SAPS   H4X19701   5.408   1.094   2.872 -1.9614 -1.0945  1.6427
  173SAPS   H4Y19702   5.271   1.186   2.797  1.7413  0.0415 -2.4776
  173SAPS   C3519703   5.326   1.233   2.998  0.1390 -0.4963  0.2410
  173SAPS   H5X19704   5.257   1.155   3.038 -0.3242  0.9169  2.3244
  173SAPS   H5Y19705   5.279   1.333   2.994  0.0392 -0.3900  2.4851
  173SAPS   C3619706   5.450   1.242   3.087 -0.1357 -0.2892  0.4318
  173SAPS   H6X19707   5.510   1.332   3.064 -0.0189 -0.6376 -0.6835
  173SAPS   H6Y19708   5.514   1.152   3.074  1.9161  1.1199  0.3911
  173SAPS   C3719709   5.406   1.239   3.238  0.4962 -0.4444 -0.0912
  173SAPS   H7X19710   5.494   1.195   3.291 -0.5124 -2.3514  0.0985
  173SAPS   H7Y19711   5.333   1.160   3.265  0.7831 -0.1913  1.5216
  173SAPS   C3819712   5.364   1.378   3.288  1.1019 -0.1865 -0.0346
  173SAPS   H8X19713   5.258   1.396   3.257  0.4301 -2.5698  0.5888
  173SAPS   H8Y19714   5.427   1.457   3.244 -2.3490  3.1217  0.4280
  173SAPS   C3919715   5.374   1.395   3.437  0.3760  0.0003 -0.2035
  173SAPS   H9X19716   5.468   1.364   3.487 -0.1233 -1.0858  0.1072
  173SAPS   H9Y19717   5.306   1.324   3.488  0.5427  0.5625  0.8321
  173SAPS  C31019718   5.328   1.532   3.481 -0.4940 -0.2518 -0.7052
  173SAPS  H10X19719   5.225   1.545   3.442 -0.2651 -2.2488 -2.1343
  173SAPS  H10Y19720   5.393   1.608   3.433 -0.2432 -0.5780 -0.8853
  173SAPS  C31119721   5.318   1.558   3.635  0.3690 -0.3929 -0.0507
  173SAPS  H11X19722   5.223   1.510   3.667  0.8361 -1.1146  0.2819
  173SAPS  H11Y19723   5.306   1.668   3.644  0.8101 -0.3936  0.6928
  173SAPS  C31219724   5.435   1.509   3.717  0.7231 -0.3277 -0.2771
  173SAPS  H12X19725   5.530   1.546   3.674  0.6340 -0.8172 -0.9141
  173SAPS  H12Y19726   5.418   1.399   3.725  0.9651 -0.2670  1.5026
  173SAPS  C31319727   5.429   1.552   3.867 -0.1220  0.2604 -0.3371
  173SAPS  H13X19728   5.329   1.540   3.914  1.2761 -0.0227  2.8699
  173SAPS  H13Y19729   5.459   1.659   3.867 -0.8279  0.5584  2.9115
  173SAPS  C31419730   5.530   1.472   3.943 -0.2705  0.2103  0.2672
  173SAPS  H14X19731   5.631   1.472   3.897  0.2733 -0.0802  1.4055
  173SAPS  H14Y19732   5.503   1.364   3.935 -0.3559  0.2703 -0.2764
  173SAPS  C31519733   5.529   1.509   4.091 -1.2378 -0.7659  0.1191
  173SAPS  H15X19734   5.585   1.431   4.147 -1.7831 -2.0545 -1.0699
  173SAPS  H15Y19735   5.428   1.511   4.137 -2.1261  0.4610 -1.7705
  173SAPS  C31619736   5.598   1.649   4.111  0.2057 -0.6630 -0.0383
  173SAPS  H16X19737   5.567   1.680   4.213 -2.0163 -3.2300  0.2011
  173SAPS  H16Y19738   5.563   1.734   4.050 -0.0170 -1.3067 -0.8324
  173SAPS  C31719739   5.749   1.626   4.091 -0.0926  0.3344 -0.4009
  173SAPS  H17X19740   5.761   1.598   3.984  1.2390 -1.7457  0.2271
  173SAPS  H17Y19741   5.783   1.534   4.143  1.2946  0.5932 -0.8009
  173SAPS  C31819742   5.826   1.750   4.128 -0.1219 -0.6157 -1.3623
  173SAPS  H18X19743   5.929   1.763   4.089  0.1953  3.5957  0.3858
  173SAPS  H18Y19744   5.831   1.760   4.239 -1.0345 -1.2151 -1.2534
  173SAPS  H18Z19745   5.776   1.840   4.086 -1.2482 -1.2685 -1.4804
  174SAPS     N19746   1.074   0.246   2.332 -0.2311 -0.0998 -1.3004
  174SAPS   HN119747   1.060   0.171   2.262  0.5344 -0.0087 -1.5555
  174SAPS   HN219748   1.025   0.222   2.421  0.9441  1.3956 -0.2103
  174SAPS   HN319749   1.022   0.329   2.296 -1.0779  0.5029  1.1054
  174SAPS   C1219750   1.219   0.273   2.352  0.2642 -0.8588 -0.4593
  174SAPS  H12A19751   1.258   0.197   2.418 -1.7160 -1.5250 -0.0066
  174SAPS   C1319752   1.307   0.271   2.221 -0.5011 -0.3111  0.2357
  174SAPS  O13A19753   1.251   0.259   2.108  0.0481  0.0231 -0.4617
  174SAPS  O13B19754   1.431   0.281   2.231 -0.4111  0.3867  0.4762
  174SAPS   C1119755   1.240   0.413   2.412 -0.3113  0.3173  0.3295
  174SAPS  H11A19756   1.200   0.491   2.344  0.0498 -0.9926 -1.4817
  174SAPS  H11B19757   1.350   0.424   2.420 -0.1980  0.4625 -1.1588
  174SAPS     P19758   1.240   0.358   2.673 -0.0677 -0.0626 -0.1118
  174SAPS   O1319759   1.123   0.303   2.746 -0.0542  0.0733 -0.1371
  174SAPS   O1419760   1.349   0.269   2.634 -0.0359  0.3222  0.0291
  174SAPS   O1219761   1.177   0.431   2.543 -0.0693  0.1518 -0.6962
  174SAPS   O1119762   1.293   0.481   2.764 -0.5987  0.4897  0.1793
  174SAPS    C119763   1.337   0.463   2.893  0.2945  1.0976 -0.0667
  174SAPS    HA19764   1.327   0.561   2.944  0.1552  0.0805  1.9560
  174SAPS    HB19765   1.278   0.394   2.957 -1.5370  0.7831 -1.9486
  174SAPS    C219766   1.490   0.438   2.903 -0.3701  0.9575 -0.2362
  174SAPS    HS19767   1.508   0.337   2.862 -0.3655 -0.0811  2.1779
  174SAPS   O2119768   1.528   0.441   3.040  0.0363 -0.0895 -0.1835
  174SAPS   C2119769   1.633   0.372   3.072  0.3317 -0.2745 -0.1040
  174SAPS   O2219770   1.706   0.321   2.990 -0.4666  0.7206 -0.5567
  174SAPS   C2219771   1.660   0.380   3.224  0.4384 -0.0887 -0.2775
  174SAPS   H2R19772   1.728   0.463   3.253  0.2734  0.5785 -1.7220
  174SAPS   H2S19773   1.564   0.398   3.277  0.4176  1.8766 -0.9006
  174SAPS    C319774   1.584   0.538   2.828  0.1707 -0.3659 -0.2713
  174SAPS    HX19775   1.550   0.522   2.724  0.6610 -1.5285 -0.2742
  174SAPS    HY19776   1.693   0.520   2.819  0.4053  0.9273 -0.1486
  174SAPS   O3119777   1.554   0.677   2.866 -0.7160 -0.8133  0.0343
  174SAPS   C3119778   1.615   0.730   2.980 -0.2206  0.2866  0.9215
  174SAPS   O3219779   1.705   0.670   3.037  0.5610 -0.0380  0.1529
  174SAPS   C3219780   1.546   0.853   3.030 -0.1171 -0.4157 -0.9584
  174SAPS   H2X19781   1.489   0.910   2.954  1.2314  1.8875 -0.3533
  174SAPS   H2Y19782   1.626   0.923   3.064  0.8088 -1.5311 -0.7618
  174SAPS   C2319783   1.728   0.258   3.281 -0.7941  0.0796 -0.2645
  174SAPS   H3R19784   1.816   0.233   3.219  0.2987 -0.8194  1.5609
  174SAPS   H3S19785   1.674   0.161   3.275 -0.1546 -0.2364 -1.0369
  174SAPS   C2419786   1.764   0.288   3.424  0.6127 -0.0054 -0.5360
  174SAPS   H4R19787   1.676   0.305   3.490  1.5360 -0.5932  0.8915
  174SAPS   H4S19788   1.813   0.388   3.433 -0.4827  0.4098  1.5573
  174SAPS   C2519789   1.856   0.198   3.489 -0.3285 -0.1324 -0.5860
  174SAPS   H5R19790   1.930   0.160   3.417  0.1603 -0.7758  0.2295
  174SAPS   C2619791   1.883   0.167   3.622 -0.0003 -0.3613 -0.3136
  174SAPS   H6R19792   1.957   0.092   3.654 -0.2281 -0.4151  0.0969
  174SAPS   C2719793   1.815   0.215   3.747  1.0638  0.0116 -0.5828
  174SAPS   H7R19794   1.770   0.317   3.742  1.4148  0.5377  3.4530
  174SAPS   H7S19795   1.889   0.220   3.830  1.5635 -0.9848 -0.9525
  174SAPS   C2819796   1.693   0.121   3.780  0.2344 -0.2739 -0.2946
  174SAPS   H8R19797   1.618   0.121   3.700  1.3139  1.9929 -1.3873
  174SAPS   C2919798   1.665   0.061   3.894  0.3509 -0.5893  0.8465
  174SAPS   H9R19799   1.569   0.006   3.887 -0.5798  0.9029  1.4489
  174SAPS  C21019800   1.744   0.060   4.020  0.0790  0.1815 -0.0941
  174SAPS  H10R19801   1.740   0.158   4.073  1.5265 -0.1301  0.6296
  174SAPS  H10S19802   1.849   0.029   4.002  0.8485  0.5037  3.1520
  174SAPS  C21119803   1.691  -0.030   4.135  0.3289  0.2482 -0.7755
  174SAPS  H11R19804   1.581  -0.037   4.138  0.4616 -1.9847  1.3836
  174SAPS  C21219805   1.766  -0.094   4.229  0.1386 -0.8866  0.3218
  174SAPS  H12R19806   1.716  -0.160   4.302  2.7939 -1.6103  1.5831
  174SAPS  C21319807   1.916  -0.090   4.238 -0.1035 -0.5014  0.9524
  174SAPS  H13R19808   1.957  -0.000   4.187  0.9505 -0.5999  1.5887
  174SAPS  H13S19809   1.959  -0.173   4.178  1.6579  0.3906  0.9223
  174SAPS  C21419810   1.968  -0.090   4.387 -0.2615  0.8654 -0.9358
  174SAPS  H14R19811   1.891  -0.112   4.462  1.5091 -0.0400  0.6974
  174SAPS  C21519812   2.092  -0.052   4.420  0.6421  0.1758  0.0102
  174SAPS  H15R19813   2.119  -0.074   4.524 -1.0493  0.6530  0.5777
  174SAPS  C21619814   2.214  -0.015   4.336 -0.9967  0.2384  0.0283
  174SAPS  H16R19815   2.221   0.093   4.362  0.0081 -0.1147  1.3294
  174SAPS  H16S19816   2.188  -0.025   4.228 -2.4098  1.6835  0.1952
  174SAPS  C21719817   2.341  -0.101   4.364  0.2214  0.2991 -0.5971
  174SAPS  H17R19818   2.363  -0.089   4.472  0.9407 -0.0397 -0.7032
  174SAPS  H17S19819   2.424  -0.046   4.316  0.3823  0.1113 -0.5342
  174SAPS  C21819820   2.324  -0.256   4.326 -0.0880  0.6200  0.8818
  174SAPS  H18R19821   2.329  -0.284   4.219 -1.5475 -0.8313  1.1581
  174SAPS  H18S19822   2.232  -0.301   4.369  0.1282 -0.4462  0.2533
  174SAPS  C21919823   2.433  -0.336   4.395 -0.1598  0.1509  0.3727
  174SAPS  H19R19824   2.426  -0.337   4.506  2.5552  0.2145  0.6152
  174SAPS  H19S19825   2.537  -0.300   4.381  0.5341 -1.2501  1.6689
  174SAPS  C22019826   2.441  -0.473   4.334 -0.1521 -0.3836 -0.4968
  174SAPS  H20R19827   2.535  -0.485   4.276  0.9769  0.6098  1.0711
  174SAPS  H20S19828   2.348  -0.498   4.278  0.6990 -2.2518 -1.1462
  174SAPS  H20T19829   2.456  -0.551   4.411  0.0961 -0.8910 -1.0508
  174SAPS   C3319830   1.445   0.827   3.153 -0.9044 -0.7860  0.6912
  174SAPS   H3X19831   1.362   0.774   3.102 -1.9503  3.6183 -2.9027
  174SAPS   H3Y19832   1.406   0.929   3.177 -1.2378 -0.5668 -0.6965
  174SAPS   C3419833   1.500   0.753   3.278  0.6592 -0.6715 -0.4679
  174SAPS   H4X19834   1.603   0.780   3.307  0.3456 -1.2629  1.2868
  174SAPS   H4Y19835   1.502   0.642   3.264 -1.2583 -0.9852  1.2304
  174SAPS   C3519836   1.426   0.765   3.409  0.0911 -0.1763 -0.3518
  174SAPS   H5X19837   1.468   0.691   3.481  0.1899  2.0387  1.9655
  174SAPS   H5Y19838   1.320   0.739   3.386  0.0290 -0.3600  0.1342
  174SAPS   C3619839   1.449   0.898   3.467 -0.1462 -0.0175  0.9018
  174SAPS   H6X19840   1.396   0.968   3.399 -2.7915 -0.9760  1.8480
  174SAPS   H6Y19841   1.560   0.913   3.464  0.0757 -1.5295 -1.9401
  174SAPS   C3719842   1.383   0.912   3.605 -0.0225 -0.5718 -0.3472
  174SAPS   H7X19843   1.435   0.847   3.679 -0.2499  3.1183  3.3595
  174SAPS   H7Y19844   1.278   0.877   3.611  0.5566 -2.8531 -1.9568
  174SAPS   C3819845   1.406   1.053   3.665 -0.0769 -0.5716 -0.1063
  174SAPS   H8X19846   1.366   1.134   3.600  1.0447  1.4877  1.6342
  174SAPS   H8Y19847   1.513   1.073   3.690 -0.2483 -0.3847  0.4961
  174SAPS   C3919848   1.336   1.088   3.800 -0.3202  0.3635 -0.6697
  174SAPS   H9X19849   1.232   1.048   3.800 -0.5706  0.7073  2.6510
  174SAPS   H9Y19850   1.329   1.195   3.828  2.5425 -0.0233  2.1380
  174SAPS  C31019851   1.408   1.024   3.922 -0.3497  0.4366 -0.2335
  174SAPS  H10X19852   1.513   1.061   3.924 -0.8411  1.9852  2.3185
  174SAPS  H10Y19853   1.413   0.914   3.909 -0.8874  0.5597 -1.5860
  174SAPS  C31119854   1.338   1.065   4.051  0.7480 -0.0512  0.4192
  174SAPS  H11X19855   1.240   1.014   4.069  0.8449  0.3003  2.1006
  174SAPS  H11Y19856   1.310   1.169   4.026 -0.0717 -0.4328 -0.3193
  174SAPS  C31219857   1.422   1.065   4.176 -0.2613 -0.5015  0.0958
  174SAPS  H12X19858   1.345   1.078   4.255  0.1668  0.7344  0.3297
  174SAPS  H12Y19859   1.490   1.153   4.185 -1.3498  0.4005 -0.3348
  174SAPS  C31319860   1.503   0.933   4.186 -0.1335  0.0423  0.2435
  174SAPS  H13X19861   1.584   0.928   4.110  1.0368  0.2586  1.4202
  174SAPS  H13Y19862   1.427   0.853   4.188 -0.8166  0.6925  0.9583
  174SAPS  C31419863   1.580   0.923   4.318 -0.2004 -0.0811 -0.7485
  174SAPS  H14X19864   1.599   0.814   4.315  0.9666 -0.0801  2.8496
  174SAPS  H14Y19865   1.516   0.952   4.404 -0.5661 -3.7206  0.3502
  174SAPS  C31519866   1.714   0.991   4.337  0.1580  0.6545  0.4535
  174SAPS  H15X19867   1.736   0.976   4.445 -1.0916 -0.6556  0.5603
  174SAPS  H15Y19868   1.688   1.098   4.327  0.1101  0.4688 -2.0437
  174SAPS  C31619869   1.819   0.950   4.244 -0.4225  0.6244 -0.2939
  174SAPS  H16X19870   1.794   0.974   4.138  0.0676  2.0484 -0.1145
  174SAPS  H16Y19871   1.831   0.840   4.252 -0.8229  0.6747  1.3807
  174SAPS  C31719872   1.961   1.010   4.264  0.3986  0.2928  0.7149
  174SAPS  H17X19873   1.999   0.967   4.359  0.6801 -1.2971 -0.0752
  174SAPS  H17Y19874   1.935   1.117   4.276 -1.2520 -0.0601  0.6625
  174SAPS  C31819875   2.070   0.989   4.164 -0.4649 -0.4743 -0.6449
  174SAPS  H18X19876   2.088   0.883   4.136  1.3781 -0.0199 -1.3279
  174SAPS  H18Y19877   2.170   1.020   4.200 -1.4039 -0.4779  2.1874
  174SAPS  H18Z19878   2.053   1.042   4.068  0.0642  2.0056  0.5387
  175SAPS     N19879   3.870   3.656   2.472  0.3004 -0.4913 -0.1679
  175SAPS   HN119880   3.784   3.598   2.482  0.9861 -1.9909 -2.2205
  175SAPS   HN219881   3.886   3.723   2.550  0.0309 -1.8046  1.0697
  175SAPS   HN319882   3.848   3.710   2.386 -0.5875  0.9671  0.9353
  175SAPS   C1219883   3.998   3.570   2.449  0.4388  0.1161  0.2350
  175SAPS  H12A19884   4.036   3.544   2.547 -1.4862  0.2432  1.0424
  175SAPS   C1319885   3.961   3.428   2.384  0.3839 -0.0491 -0.0915
  175SAPS  O13A19886   3.841   3.387   2.386  0.4555 -0.5137 -0.7856
  175SAPS  O13B19887   4.058   3.346   2.376  0.6114 -0.3764  0.1556
  175SAPS   C1119888   4.106   3.641   2.355  0.0604  0.0206 -0.4206
  175SAPS  H11A19889   4.062   3.664   2.256  2.1968  0.2396 -1.3751
  175SAPS  H11B19890   4.184   3.564   2.337  1.3781  0.6834  1.9403
  175SAPS     P19891   4.238   3.853   2.377  0.0238 -0.2856 -0.3968
  175SAPS   O1319892   4.345   3.779   2.307 -0.3871  0.2669  0.6599
  175SAPS   O1419893   4.151   3.953   2.310 -0.3807  0.8340  0.0534
  175SAPS   O1219894   4.141   3.751   2.441  0.3267 -0.6899  0.1225
  175SAPS   O1119895   4.294   3.919   2.502 -0.0504  0.0264 -0.7658
  175SAPS    C119896   4.321   3.854   2.627  0.2028 -0.0498 -0.5547
  175SAPS    HA19897   4.365   3.755   2.603 -2.0957 -1.0347 -0.9731
  175SAPS    HB19898   4.398   3.905   2.688 -1.5112 -0.6067  2.3134
  175SAPS    C219899   4.201   3.828   2.718 -0.1032 -0.4961  0.8291
  175SAPS    HS19900   4.142   3.746   2.672  2.6227 -2.6993  0.9700
  175SAPS   O2119901   4.117   3.951   2.726  0.2578 -0.0137 -0.0643
  175SAPS   C2119902   3.982   3.927   2.717 -0.7177 -0.0517 -0.0036
  175SAPS   O2219903   3.927   3.823   2.685 -0.5361  0.4159 -0.6245
  175SAPS   C2219904   3.899   4.053   2.755  0.0129  0.1911  0.0875
  175SAPS   H2R19905   3.957   4.146   2.741  1.1551 -0.4832  0.1596
  175SAPS   H2S19906   3.810   4.062   2.689  0.8456  0.8055 -0.9789
  175SAPS    C319907   4.240   3.773   2.849  0.4978 -0.1579  0.8503
  175SAPS    HX19908   4.298   3.844   2.913 -0.0724 -0.0595  1.2648
  175SAPS    HY19909   4.305   3.683   2.840  1.1361  0.4599 -1.0994
  175SAPS   O3119910   4.115   3.732   2.917  0.3984 -0.5593  0.3807
  175SAPS   C3119911   4.056   3.627   2.871 -0.1742  0.1398  0.1606
  175SAPS   O3219912   4.099   3.541   2.796 -0.3778  0.5594  0.5851
  175SAPS   C3219913   3.904   3.627   2.923 -0.2136 -1.1473  0.6909
  175SAPS   H2X19914   3.840   3.649   2.836 -0.3242  2.0859  1.4868
  175SAPS   H2Y19915   3.893   3.696   3.009 -1.5917 -0.6211  0.1033
  175SAPS   C2319916   3.847   4.044   2.905 -0.2447 -0.5146 -0.0862
  175SAPS   H3R19917   3.821   3.937   2.922  0.7653 -0.7405  0.0788
  175SAPS   H3S19918   3.761   4.114   2.918 -0.0998 -0.6861  2.3235
  175SAPS   C2419919   3.954   4.096   3.002 -0.5612 -0.3261  0.3358
  175SAPS   H4R19920   4.039   4.028   2.982 -0.6649 -0.7552  1.3226
  175SAPS   H4S19921   3.907   4.084   3.102 -0.2529 -1.0452  0.3961
  175SAPS   C2519922   3.997   4.238   2.988 -0.2155  0.0797 -0.3786
  175SAPS   H5R19923   3.917   4.307   2.959 -2.8190 -0.6927  4.0566
  175SAPS   C2619924   4.123   4.274   2.995  0.1507  0.0570 -0.2146
  175SAPS   H6R19925   4.142   4.381   2.976 -0.3187 -0.2334 -2.5046
  175SAPS   C2719926   4.238   4.174   3.014  0.1789 -0.2861 -0.3116
  175SAPS   H7R19927   4.256   4.109   2.926  1.7125  0.0348 -0.2635
  175SAPS   H7S19928   4.204   4.107   3.095 -1.3649  2.3195  1.3724
  175SAPS   C2819929   4.367   4.245   3.046 -0.1814 -0.3161 -0.4107
  175SAPS   H8R19930   4.397   4.327   2.979  0.8554  0.0928  0.5189
  175SAPS   C2919931   4.450   4.215   3.150 -0.1696 -0.2957  0.8327
  175SAPS   H9R19932   4.548   4.265   3.156 -0.3336  0.4472 -1.6741
  175SAPS  C21019933   4.432   4.104   3.254  0.2960  0.1176 -0.2462
  175SAPS  H10R19934   4.351   4.033   3.227 -1.3945  1.5206  0.9320
  175SAPS  H10S19935   4.402   4.151   3.350 -0.9261 -1.9651  0.4567
  175SAPS  C21119936   4.565   4.034   3.274  0.0565 -0.0635 -0.3333
  175SAPS  H11R19937   4.618   4.015   3.180  2.5677 -4.8942  1.6726
  175SAPS  C21219938   4.625   3.991   3.388 -0.8457 -0.9337 -0.4637
  175SAPS  H12R19939   4.729   3.957   3.380  0.0866  2.0503 -3.4635
  175SAPS  C21319940   4.569   4.000   3.525 -0.1269  0.2666  0.3697
  175SAPS  H13R19941   4.560   3.895   3.560 -0.4796  0.2183  0.1363
  175SAPS  H13S19942   4.464   4.037   3.520 -1.7317 -3.6514  0.9588
  175SAPS  C21419943   4.642   4.084   3.629 -0.0106  0.7213 -0.0634
  175SAPS  H14R19944   4.736   4.042   3.668 -0.6622  0.4021  1.2058
  175SAPS  C21519945   4.629   4.215   3.652 -0.2701 -0.2488  0.8011
  175SAPS  H15R19946   4.692   4.265   3.727  0.9584  1.1578 -1.0684
  175SAPS  C21619947   4.557   4.320   3.574 -0.7061 -0.2288  0.1220
  175SAPS  H16R19948   4.490   4.386   3.634 -1.4294 -3.2817  2.9333
  175SAPS  H16S19949   4.482   4.269   3.510 -0.3722  1.3095 -1.5901
  175SAPS  C21719950   4.662   4.411   3.507 -0.1636 -0.6947  0.3549
  175SAPS  H17R19951   4.728   4.467   3.577  0.5844  0.0193 -0.9006
  175SAPS  H17S19952   4.611   4.486   3.444 -1.1348 -2.8006 -1.4778
  175SAPS  C21819953   4.750   4.343   3.402 -0.4392 -0.5739  0.2850
  175SAPS  H18R19954   4.684   4.318   3.316  0.4511  0.3573 -0.7045
  175SAPS  H18S19955   4.795   4.251   3.445  0.1984 -1.6722 -2.5238
  175SAPS  C21919956   4.856   4.424   3.324  0.0472 -0.9105  0.1886
  175SAPS  H19R19957   4.799   4.512   3.287  0.7407 -1.2343 -1.7780
  175SAPS  H19S19958   4.902   4.361   3.244 -1.9962 -2.8883  0.4740
  175SAPS  C22019959   4.968   4.480   3.409 -1.0993 -0.1280 -0.6249
  175SAPS  H20R19960   5.000   4.416   3.494  3.1166  1.6052 -0.6760
  175SAPS  H20S19961   4.939   4.581   3.444 -0.0028  0.4697 -1.3774
  175SAPS  H20T19962   5.057   4.507   3.349 -1.2018  1.0472 -0.2596
  175SAPS   C3319963   3.851   3.497   2.971  0.4138 -0.2961  0.2085
  175SAPS   H3X19964   3.890   3.419   2.902  2.6827  1.2334 -0.3468
  175SAPS   H3Y19965   3.741   3.502   2.962  0.5668  2.4055 -1.2807
  175SAPS   C3419966   3.882   3.442   3.110 -0.0386 -0.6755 -0.2684
  175SAPS   H4X19967   3.835   3.511   3.184  0.6576 -1.6421  1.1098
  175SAPS   H4Y19968   3.992   3.453   3.116  0.2226 -2.0734 -1.8528
  175SAPS   C3519969   3.832   3.308   3.165 -0.4416  0.8023 -0.1930
  175SAPS   H5X19970   3.879   3.231   3.100  2.0354  1.3482  0.8510
  175SAPS   H5Y19971   3.721   3.313   3.165 -0.5541  1.0264 -3.7146
  175SAPS   C3619972   3.887   3.289   3.308  0.2926 -0.4546 -0.1596
  175SAPS   H6X19973   3.996   3.308   3.323 -0.0601 -0.8330  4.8104
  175SAPS   H6Y19974   3.851   3.194   3.355 -1.3334  0.0432 -0.3658
  175SAPS   C3719975   3.821   3.388   3.413 -0.1340  0.1119  0.5152
  175SAPS   H7X19976   3.712   3.371   3.412 -0.4886  1.9386  2.0062
  175SAPS   H7Y19977   3.835   3.494   3.385  0.1074 -0.0975 -0.1610
  175SAPS   C3819978   3.885   3.375   3.558 -0.0954  0.1475  0.4380
  175SAPS   H8X19979   3.994   3.362   3.541 -0.5617 -0.4169 -2.9212
  175SAPS   H8Y19980   3.847   3.281   3.603  0.4154  0.4791  1.6014
  175SAPS   C3919981   3.853   3.493   3.656 -0.6064 -0.3006 -0.0970
  175SAPS   H9X19982   3.742   3.500   3.648 -0.6981  1.0062  1.7504
  175SAPS   H9Y19983   3.901   3.589   3.628  1.2432 -0.9595  0.6747
  175SAPS  C31019984   3.895   3.457   3.800  0.0453 -0.0304 -0.1934
  175SAPS  H10X19985   4.006   3.448   3.805 -0.0186 -0.7826  0.2021
  175SAPS  H10Y19986   3.868   3.349   3.801  3.4687 -1.0474 -1.4953
  175SAPS  C31119987   3.838   3.545   3.916 -0.3122 -0.2712  0.3390
  175SAPS  H11X19988   3.883   3.497   4.005  1.0912  0.5731  0.1080
  175SAPS  H11Y19989   3.727   3.536   3.918 -0.1816 -2.2215  2.4826
  175SAPS  C31219990   3.881   3.692   3.913 -0.3606  0.2659  0.0324
  175SAPS  H12X19991   3.857   3.740   3.815 -1.5276  1.6206  0.9287
  175SAPS  H12Y19992   3.991   3.700   3.921 -0.0836 -0.7893 -2.0432
  175SAPS  C31319993   3.802   3.769   4.013 -0.1801  0.2619  0.1678
  175SAPS  H13X19994   3.850   3.869   4.019 -1.5010  0.9937 -0.8472
  175SAPS  H13Y19995   3.809   3.702   4.101 -1.5728 -1.7463 -1.1590
  175SAPS  C31419996   3.652   3.795   3.974  0.5808 -0.2595 -0.0764
  175SAPS  H14X19997   3.607   3.693   3.976  1.3171 -0.5890  1.1797
  175SAPS  H14Y19998   3.668   3.838   3.873  1.1540 -0.0100  0.1153
  175SAPS  C31519999   3.572   3.893   4.060 -0.2300 -0.0650 -0.6642
  175SAPS  H15X20000   3.582   3.860   4.165  0.0330  1.6180 -0.1264
  175SAPS  H15Y20001   3.463   3.878   4.042 -1.1240  0.2059  3.5835
  175SAPS  C31620002   3.603   4.046   4.032  0.7280  0.1471  0.2519
  175SAPS  H16X20003   3.608   4.056   3.921  0.8685 -3.0155 -0.1061
  175SAPS  H16Y20004   3.705   4.060   4.072  0.2756  0.2719  1.4102
  175SAPS  C31720005   3.506   4.143   4.099  0.4728  0.3750  0.0354
  175SAPS  H17X20006   3.405   4.097   4.089  1.8302 -2.8121 -0.1146
  175SAPS  H17Y20007   3.506   4.240   4.044  0.1996 -1.4043 -3.4054
  175SAPS  C31820008   3.531   4.163   4.246  0.3178  0.2798 -0.0891
  175SAPS  H18X20009   3.624   4.223   4.244  0.1673  0.5533  0.8340
  175SAPS  H18Y20010   3.548   4.063   4.292  0.0618 -1.0073 -2.5997
  175SAPS  H18Z20011   3.452   4.220   4.299 -0.8905 -0.3869 -1.1129
  176SAPS     N20012   2.000   5.060   1.983  0.0608  0.0334  0.5090
  176SAPS   HN120013   1.999   5.107   2.075 -0.9011  0.5377  0.2541
  176SAPS   HN220014   2.053   4.970   1.995 -1.1647 -0.7813 -0.0222
  176SAPS   HN320015   2.067   5.114   1.925  0.1535 -0.9840 -0.3664
  176SAPS   C1220016   1.863   5.041   1.923 -0.5437  0.1385 -0.6213
  176SAPS  H12A20017   1.878   5.020   1.818  0.2996  0.8718 -0.6582
  176SAPS   C1320018   1.785   4.921   1.980 -0.5104  0.4453 -0.6777
  176SAPS  O13A20019   1.831   4.873   2.087 -0.3672  0.1502 -0.3262
  176SAPS  O13B20020   1.682   4.881   1.930  0.5765 -0.2855  1.0388
  176SAPS   C1120021   1.779   5.170   1.937 -0.2703  0.3776  0.4542
  176SAPS  H11A20022   1.770   5.188   2.046  0.4128 -1.8479  0.9183
  176SAPS  H11B20023   1.673   5.146   1.913 -1.1864  2.5142  2.0830
  176SAPS     P20024   1.784   5.433   1.908  0.0840 -0.0952 -0.0720
  176SAPS   O1320025   1.709   5.485   1.792 -0.3512  0.6239 -0.4236
  176SAPS   O1420026   1.727   5.431   2.046  0.1299  0.0842 -0.1421
  176SAPS   O1220027   1.826   5.283   1.863 -0.1977  0.3326  0.0956
  176SAPS   O1120028   1.924   5.510   1.913  0.0806 -0.1938 -0.0845
  176SAPS    C120029   2.047   5.456   1.970 -0.4313  0.0751  1.6087
  176SAPS    HA20030   2.061   5.355   1.925 -1.2163  1.1021 -1.2234
  176SAPS    HB20031   2.134   5.518   1.943 -1.4081  0.6722 -0.3687
  176SAPS    C220032   2.034   5.432   2.122 -0.0415 -0.5316  0.0891
  176SAPS    HS20033   1.952   5.358   2.136  0.6672 -1.4153 -0.3082
  176SAPS   O2120034   2.001   5.554   2.191  0.0760 -0.2857 -0.0911
  176SAPS   C2120035   1.933   5.554   2.298 -0.2374  0.7203 -0.4644
  176SAPS   O2220036   1.882   5.455   2.356  0.4870 -0.1757 -0.0893
  176SAPS   C2220037   1.920   5.696   2.353  0.0275 -0.1250 -0.1600
  176SAPS   H2R20038   2.022   5.735   2.373  0.1204 -1.1110  1.4260
  176SAPS   H2S20039   1.878   5.754   2.268  1.1742 -1.0490 -1.3935
  176SAPS    C320040   2.159   5.368   2.186  0.3804 -0.2568  0.4008
  176SAPS    HX20041   2.239   5.444   2.186 -1.5608  1.9552 -1.5439
  176SAPS    HY20042   2.178   5.275   2.128 -2.3124 -1.3180  1.0685
  176SAPS   O3120043   2.143   5.334   2.324  0.0450  0.2835 -0.1766
  176SAPS   C3120044   2.072   5.223   2.336  0.9577  0.0201  0.0013
  176SAPS   O3220045   2.018   5.163   2.243 -0.1516  0.1103 -0.3226
  176SAPS   C3220046   2.044   5.200   2.484 -0.2456  0.2736  0.5287
  176SAPS   H2X20047   2.021   5.301   2.525 -0.5091  0.7602 -0.7770
  176SAPS   H2Y20048   2.141   5.169   2.529 -0.2642 -2.4993 -1.0899
  176SAPS   C2320049   1.844   5.727   2.485 -0.2834  0.5014 -0.3650
  176SAPS   H3R20050   1.749   5.671   2.485  0.5336 -0.9324  0.1292
  176SAPS   H3S20051   1.819   5.835   2.495  1.5309  0.8109  1.6317
  176SAPS   C2420052   1.927   5.707   2.616  0.3713  0.3400  0.4193
  176SAPS   H4R20053   1.858   5.750   2.692 -1.2387  0.9719 -1.3084
  176SAPS   H4S20054   2.019   5.767   2.629  2.5067 -2.7001  0.4432
  176SAPS   C2520055   1.956   5.560   2.648 -0.1076  0.2687  0.5283
  176SAPS   H5R20056   1.970   5.489   2.565 -1.4168  0.4921  0.0925
  176SAPS   C2620057   2.008   5.517   2.767 -0.1997 -0.4331 -0.1146
  176SAPS   H6R20058   2.028   5.409   2.781  0.7848 -0.1361  0.9312
  176SAPS   C2720059   2.020   5.604   2.892 -0.1883  0.7518  0.1895
  176SAPS   H7R20060   1.940   5.681   2.888 -2.0020 -1.1001 -2.0752
  176SAPS   H7S20061   2.124   5.640   2.903  0.5096 -1.4966  1.6917
  176SAPS   C2820062   1.992   5.528   3.017  0.3037  0.2736  0.6231
  176SAPS   H8R20063   1.969   5.421   3.006  1.2847  0.0958  0.1301
  176SAPS   C2920064   1.982   5.585   3.135  0.3037  0.6023 -0.1147
  176SAPS   H9R20065   1.950   5.538   3.229  0.6950  0.9982  0.2215
  176SAPS  C21020066   2.023   5.730   3.163 -1.0254 -0.6744  0.4188
  176SAPS  H10R20067   2.056   5.789   3.075 -0.2255 -1.7382 -0.0016
  176SAPS  H10S20068   2.113   5.731   3.228  0.3453  0.8176 -1.4074
  176SAPS  C21120069   1.912   5.800   3.239 -0.5678  0.5485 -0.1690
  176SAPS  H11R20070   1.838   5.845   3.171 -1.4278  0.7544  0.8665
  176SAPS  C21220071   1.895   5.804   3.378 -0.5409  0.1987  0.1086
  176SAPS  H12R20072   1.818   5.869   3.421  1.8129  2.3881  1.2658
  176SAPS  C21320073   1.977   5.748   3.491  0.1775  0.1650 -0.1635
  176SAPS  H13R20074   1.998   5.828   3.565 -4.8346 -0.8195  2.7367
  176SAPS  H13S20075   2.076   5.715   3.452 -0.1967 -0.6173 -0.4624
  176SAPS  C21420076   1.916   5.636   3.571 -0.8152  0.4631  1.0865
  176SAPS  H14R20077   1.838   5.578   3.519  1.1327 -0.9508 -0.4302
  176SAPS  C21520078   1.939   5.600   3.698  0.4233 -0.3627 -0.4760
  176SAPS  H15R20079   1.889   5.511   3.739 -1.4926  0.5804 -0.7032
  176SAPS  C21620080   2.040   5.652   3.796 -0.4419 -0.0942  0.2016
  176SAPS  H16R20081   1.988   5.725   3.862 -2.4520  0.2747 -1.6732
  176SAPS  H16S20082   2.128   5.702   3.750  0.5367 -1.4192  0.5788
  176SAPS  C21720083   2.101   5.546   3.888  0.2598  0.1620 -0.5412
  176SAPS  H17R20084   2.173   5.494   3.822  0.0735  0.8620 -1.3117
  176SAPS  H17S20085   2.017   5.479   3.918  0.5895  1.0586  2.7619
  176SAPS  C21820086   2.169   5.614   4.014  0.7454  0.4492 -0.2294
  176SAPS  H18R20087   2.106   5.681   4.076  1.5399  0.1739  0.9111
  176SAPS  H18S20088   2.248   5.669   3.959 -0.0581  0.3544 -1.5260
  176SAPS  C21920089   2.220   5.505   4.109 -0.4635  0.6204  0.0268
  176SAPS  H19R20090   2.246   5.551   4.207 -1.4391  2.2742 -0.4348
  176SAPS  H19S20091   2.317   5.471   4.066  0.1722 -0.8882  2.4670
  176SAPS  C22020092   2.125   5.386   4.142 -0.0992  0.1710  0.9737
  176SAPS  H20R20093   2.128   5.312   4.060  2.8209 -1.7552  2.6609
  176SAPS  H20S20094   2.022   5.420   4.165  0.4174  0.1075  3.6937
  176SAPS  H20T20095   2.169   5.342   4.233  0.4472  0.1023  0.6818
  176SAPS   C3320096   1.933   5.084   2.504 -0.3463 -0.1538  0.3484
  176SAPS   H3X20097   1.960   4.984   2.465 -2.2957 -0.2597 -0.8630
  176SAPS   H3Y20098   1.850   5.118   2.438  0.4998  1.7182  0.1922
  176SAPS   C3420099   1.885   5.071   2.649  0.0313 -0.5561  0.1457
  176SAPS   H4X20100   1.959   5.119   2.717 -0.2798  0.7185 -0.3969
  176SAPS   H4Y20101   1.872   4.962   2.671 -0.6129 -1.0903 -2.5240
  176SAPS   C3520102   1.746   5.133   2.672  0.0366  0.3306 -0.3656
  176SAPS   H5X20103   1.670   5.085   2.607  0.1837 -0.6152  0.1347
  176SAPS   H5Y20104   1.747   5.240   2.645  2.2625  0.3935 -0.2232
  176SAPS   C3620105   1.702   5.117   2.812  0.7381 -0.2909  0.4991
  176SAPS   H6X20106   1.710   5.012   2.850  1.3014 -0.2633  0.4611
  176SAPS   H6Y20107   1.592   5.133   2.805  0.5496 -1.5382  0.3095
  176SAPS   C3720108   1.767   5.207   2.917 -0.1151  0.3705  0.4895
  176SAPS   H7X20109   1.723   5.307   2.900  0.0273  0.1280 -1.5805
  176SAPS   H7Y20110   1.877   5.221   2.907 -0.3128  0.2025 -3.1286
  176SAPS   C3820111   1.741   5.153   3.061  0.1716 -0.6560  0.5983
  176SAPS   H8X20112   1.797   5.057   3.062  0.4840 -0.5826 -2.0393
  176SAPS   H8Y20113   1.632   5.129   3.063 -0.2952  0.7460 -2.2627
  176SAPS   C3920114   1.786   5.249   3.167 -0.0413  0.6599 -0.2283
  176SAPS   H9X20115   1.738   5.344   3.135  0.4952  1.1287  0.3286
  176SAPS   H9Y20116   1.895   5.272   3.168 -0.2379  1.6469 -0.6099
  176SAPS  C31020117   1.758   5.191   3.309 -0.4540  0.4418  0.1653
  176SAPS  H10X20118   1.836   5.119   3.341 -2.3923 -1.8655 -0.0502
  176SAPS  H10Y20119   1.666   5.130   3.312 -0.4679  0.4893  0.8494
  176SAPS  C31120120   1.741   5.301   3.419 -0.1548 -0.0129 -0.2735
  176SAPS  H11X20121   1.636   5.334   3.400 -0.2434 -1.3182 -2.2750
  176SAPS  H11Y20122   1.808   5.388   3.399  2.5611 -1.0838  3.1985
  176SAPS  C31220123   1.756   5.245   3.559  0.2862  0.1170 -0.5894
  176SAPS  H12X20124   1.866   5.233   3.574  0.7040  0.8518 -2.8273
  176SAPS  H12Y20125   1.715   5.142   3.566  2.0931 -0.7135 -1.6249
  176SAPS  C31320126   1.697   5.323   3.672 -0.0021  0.1512 -1.4582
  176SAPS  H13X20127   1.586   5.323   3.674 -0.0064 -0.8980 -0.9805
  176SAPS  H13Y20128   1.734   5.424   3.646 -0.3553  0.7232  0.1716
  176SAPS  C31420129   1.742   5.283   3.819  0.4163 -0.1198  0.3873
  176SAPS  H14X20130   1.854   5.282   3.820  0.4296 -1.4186  0.2755
  176SAPS  H14Y20131   1.705   5.182   3.850  1.6656 -0.3701  1.1641
  176SAPS  C31520132   1.694   5.394   3.918  0.4006 -0.1377 -0.8498
  176SAPS  H15X20133   1.583   5.389   3.922  0.2771  0.6980 -2.4586
  176SAPS  H15Y20134   1.721   5.491   3.871  1.9376  0.6726  1.5211
  176SAPS  C31620135   1.769   5.394   4.051  0.6842  0.6857 -1.0920
  176SAPS  H16X20136   1.763   5.490   4.107 -1.4112 -1.2797  2.4644
  176SAPS  H16Y20137   1.873   5.358   4.039  0.6542  0.8497 -1.8428
  176SAPS  C31720138   1.703   5.293   4.145  0.0008 -0.4740 -0.1886
  176SAPS  H17X20139   1.715   5.188   4.111 -0.2364 -0.4510 -0.3471
  176SAPS  H17Y20140   1.595   5.317   4.148 -0.3759 -2.1837  0.6945
  176SAPS  C31820141   1.775   5.294   4.282  0.2078 -0.5813  0.8229
  176SAPS  H18X20142   1.884   5.307   4.269  0.2978 -0.7830  1.3503
  176SAPS  H18Y20143   1.766   5.196   4.334 -1.2099  0.0189  1.7887
  176SAPS  H18Z20144   1.743   5.375   4.351  0.8123 -1.6087  2.3639
  177SAPS     N20145   0.338   4.721   1.621 -0.1981  0.0754  0.0113
  177SAPS   HN120146   0.357   4.628   1.580  0.5477 -0.0935  0.7201
  177SAPS   HN220147   0.304   4.798   1.559 -0.2156 -0.5274 -0.7429
  177SAPS   HN320148   0.426   4.748   1.669  0.0400 -0.3218 -0.1987
  177SAPS   C1220149   0.233   4.679   1.717  0.6769 -0.3410 -0.1865
  177SAPS  H12A20150   0.205   4.759   1.785 -3.3467 -2.2247  0.6701
  177SAPS   C1320151   0.093   4.634   1.651 -0.0207 -0.3962  0.0039
  177SAPS  O13A20152   0.049   4.675   1.537  0.1218  0.2629 -0.2933
  177SAPS  O13B20153   0.012   4.581   1.735 -0.0042  0.3295  0.1873
  177SAPS   C1120154   0.286   4.558   1.806 -0.1745 -0.0136  0.2223
  177SAPS  H11A20155   0.311   4.479   1.731 -2.2346  0.7864 -1.4202
  177SAPS  H11B20156   0.212   4.498   1.862 -0.1967  0.5533  0.8058
  177SAPS     P20157   0.367   4.649   2.033  0.4126 -0.0358  0.2965
  177SAPS   O1320158   0.500   4.682   2.084  0.5175  0.5009 -0.1053
  177SAPS   O1420159   0.260   4.751   2.045  0.3549  0.2609  0.1791
  177SAPS   O1220160   0.395   4.594   1.890  0.2229  0.0916 -0.2975
  177SAPS   O1120161   0.333   4.524   2.114  0.2655 -0.1370  0.0288
  177SAPS    C120162   0.231   4.516   2.218  0.3530  0.1328  0.0364
  177SAPS    HA20163   0.133   4.548   2.179 -0.5239 -2.3638  0.0391
  177SAPS    HB20164   0.215   4.409   2.245  0.0242  0.0994 -0.2814
  177SAPS    C220165   0.238   4.608   2.347  0.0392  0.0893  0.4837
  177SAPS    HS20166   0.242   4.710   2.304  0.0572  0.2663  0.9047
  177SAPS   O2120167   0.349   4.566   2.426 -0.4754 -0.9070  0.0688
  177SAPS   C2120168   0.414   4.668   2.469  0.7571  0.3158 -0.3267
  177SAPS   O2220169   0.399   4.784   2.438  0.4830  0.6327  0.1251
  177SAPS   C2220170   0.505   4.634   2.589  1.2712 -0.2979  0.7852
  177SAPS   H2R20171   0.448   4.599   2.678  1.4648 -3.0406 -0.0825
  177SAPS   H2S20172   0.577   4.558   2.551  0.8213 -0.0412 -0.6338
  177SAPS    C320173   0.103   4.596   2.428  0.2607  0.1741 -0.5648
  177SAPS    HX20174   0.111   4.494   2.472  1.8569  1.1640  1.6549
  177SAPS    HY20175   0.018   4.593   2.358 -0.0292 -0.0345 -0.2114
  177SAPS   O3120176   0.089   4.694   2.535  0.3435  0.1615 -0.0238
  177SAPS   C3120177   0.022   4.808   2.518 -0.4529  0.2440  0.1325
  177SAPS   O3220178  -0.041   4.837   2.414 -0.6660  0.1723 -0.4360
  177SAPS   C3220179   0.034   4.887   2.649  0.5823  1.2313  0.7821
  177SAPS   H2X20180   0.131   4.853   2.690  0.7567 -0.5807 -0.9403
  177SAPS   H2Y20181  -0.045   4.851   2.718  2.7203 -1.6710  1.9063
  177SAPS   C2320182   0.598   4.746   2.627  0.1996 -0.5227 -0.4984
  177SAPS   H3R20183   0.539   4.825   2.679 -2.8109 -2.1292 -1.2203
  177SAPS   H3S20184   0.629   4.795   2.533 -1.5268  1.0758 -0.3008
  177SAPS   C2420185   0.717   4.696   2.713  0.5037 -0.3556 -0.5342
  177SAPS   H4R20186   0.767   4.630   2.639  2.0839  0.5293 -0.2976
  177SAPS   H4S20187   0.681   4.643   2.803 -0.3375 -0.1388 -0.7330
  177SAPS   C2520188   0.827   4.794   2.754  0.4671 -0.6884  0.4299
  177SAPS   H5R20189   0.891   4.835   2.674  1.1015  0.2422  1.3769
  177SAPS   C2620190   0.838   4.860   2.872 -0.5908 -0.8461  0.8469
  177SAPS   H6R20191   0.915   4.938   2.871  0.5349 -1.9063 -0.9118
  177SAPS   C2720192   0.760   4.842   3.002 -0.1858  0.4381  0.4598
  177SAPS   H7R20193   0.744   4.733   3.019  0.4228  0.0268 -1.2881
  177SAPS   H7S20194   0.663   4.892   2.983 -0.2860 -0.3241 -1.2386
  177SAPS   C2820195   0.817   4.899   3.132  0.5504  0.3867  0.4125
  177SAPS   H8R20196   0.922   4.934   3.127  0.2000  1.4046 -0.2506
  177SAPS   C2920197   0.745   4.898   3.247 -0.3435 -0.1283  0.0464
  177SAPS   H9R20198   0.788   4.952   3.333  0.1567 -0.7414  0.1857
  177SAPS  C21020199   0.610   4.844   3.296 -0.3142 -0.3058 -0.1373
  177SAPS  H10R20200   0.583   4.764   3.224 -0.1157 -1.1186  0.6748
  177SAPS  H10S20201   0.537   4.928   3.289  0.4907  0.5789  1.4515
  177SAPS  C21120202   0.627   4.786   3.438 -0.2231  0.3150  0.0443
  177SAPS  H11R20203   0.730   4.762   3.468 -0.7880 -2.2870  0.1250
  177SAPS  C21220204   0.522   4.774   3.529  0.0493  0.0312  0.0698
  177SAPS  H12R20205   0.544   4.735   3.629  0.2449  1.4455  0.5958
  177SAPS  C21320206   0.368   4.798   3.501  0.4239 -0.0635  0.8707
  177SAPS  H13R20207   0.353   4.857   3.409 -1.1370 -2.4818 -0.5376
  177SAPS  H13S20208   0.332   4.853   3.590  0.6896  1.7624 -0.1116
  177SAPS  C21420209   0.289   4.668   3.499  0.3554  0.2315  0.2244
  177SAPS  H14R20210   0.312   4.611   3.408  0.2144  3.3303 -1.9340
  177SAPS  C21520211   0.209   4.618   3.594  0.3124 -0.5561  0.1425
  177SAPS  H15R20212   0.166   4.518   3.579  0.3759 -0.4165 -1.0170
  177SAPS  C21620213   0.175   4.678   3.731 -0.3425  0.6096 -0.0645
  177SAPS  H16R20214   0.100   4.618   3.787  0.1885 -0.0789 -0.0741
  177SAPS  H16S20215   0.118   4.772   3.712 -1.4397 -0.1862 -0.7910
  177SAPS  C21720216   0.305   4.691   3.816  0.7248  0.4649 -0.1533
  177SAPS  H17R20217   0.382   4.761   3.776 -1.1381  4.2828  2.2602
  177SAPS  H17S20218   0.349   4.591   3.832 -1.9332 -1.0337 -1.5660
  177SAPS  C21820219   0.272   4.731   3.967 -0.3207 -0.1814 -0.0099
  177SAPS  H18R20220   0.361   4.729   4.032  0.4675 -3.1349 -1.0007
  177SAPS  H18S20221   0.200   4.652   3.999 -3.2529  1.1232 -2.7435
  177SAPS  C21920222   0.202   4.870   3.992  0.4800  0.4407  0.0881
  177SAPS  H19R20223   0.114   4.883   3.925  1.1373  1.4351 -0.6165
  177SAPS  H19S20224   0.280   4.943   3.961  2.5242 -0.4439  2.7150
  177SAPS  C22020225   0.163   4.887   4.135 -0.0530 -1.0808  0.3126
  177SAPS  H20R20226   0.090   4.805   4.158 -0.5936 -0.6548  0.1430
  177SAPS  H20S20227   0.112   4.985   4.148  1.5427  0.1799 -2.2864
  177SAPS  H20T20228   0.253   4.877   4.199  0.3759  1.7249  0.2497
  177SAPS   C3320229   0.016   5.039   2.634 -0.0321  1.2838  0.0039
  177SAPS   H3X20230   0.008   5.073   2.740 -1.1370  1.2363 -0.0521
  177SAPS   H3Y20231  -0.078   5.065   2.582 -0.8462  1.3082  1.4228
  177SAPS   C3420232   0.131   5.104   2.561 -0.7039 -0.3724  0.3234
  177SAPS   H4X20233   0.106   5.212   2.560 -3.0072 -0.7793  2.6345
  177SAPS   H4Y20234   0.131   5.073   2.454  0.9967 -2.3036  0.8061
  177SAPS   C3520235   0.271   5.080   2.618  0.0199 -0.4912  0.4834
  177SAPS   H5X20236   0.301   4.981   2.578  0.7883  0.3559 -1.1036
  177SAPS   H5Y20237   0.268   5.071   2.729  0.3938 -1.7133  0.4057
  177SAPS   C3620238   0.360   5.197   2.581 -0.9439 -0.0010 -0.0608
  177SAPS   H6X20239   0.309   5.292   2.607  1.1960  1.3835 -0.7132
  177SAPS   H6Y20240   0.363   5.208   2.471  2.4181 -0.7870 -0.1579
  177SAPS   C3720241   0.501   5.179   2.628  0.3160  0.2614 -0.2476
  177SAPS   H7X20242   0.555   5.271   2.597 -0.9672  1.1486  0.0595
  177SAPS   H7Y20243   0.553   5.091   2.584 -0.8724  0.0738 -1.3272
  177SAPS   C3820244   0.505   5.165   2.784 -0.3701 -0.1404  0.3574
  177SAPS   H8X20245   0.457   5.072   2.819  3.1690 -1.0347  3.5560
  177SAPS   H8Y20246   0.436   5.248   2.811 -0.3278  0.0945 -0.2317
  177SAPS   C3920247   0.645   5.166   2.844 -0.6500  0.1548 -0.0790
  177SAPS   H9X20248   0.690   5.259   2.804  1.6204 -1.3351 -1.1951
  177SAPS   H9Y20249   0.707   5.086   2.799  0.0296  0.8441 -0.3786
  177SAPS  C31020250   0.638   5.169   2.996  0.2628 -0.0164 -0.1675
  177SAPS  H10X20251   0.737   5.171   3.045  1.3360 -0.3786 -2.2258
  177SAPS  H10Y20252   0.600   5.072   3.036 -0.7083  0.6918  0.7017
  177SAPS  C31120253   0.559   5.291   3.053  0.0029 -0.1643  0.1238
  177SAPS  H11X20254   0.449   5.285   3.034 -0.1143  0.4439  0.5488
  177SAPS  H11Y20255   0.591   5.379   2.993  0.0401 -1.7984 -2.3959
  177SAPS  C31220256   0.581   5.326   3.194 -0.4280 -0.0582 -0.3628
  177SAPS  H12X20257   0.532   5.424   3.209  0.8327  1.2032 -3.7263
  177SAPS  H12Y20258   0.689   5.343   3.212 -0.3799  0.3960 -1.0515
  177SAPS  C31320259   0.522   5.225   3.293 -0.4646  0.3553  0.0705
  177SAPS  H13X20260   0.577   5.132   3.267  0.1597  0.9390 -0.7433
  177SAPS  H13Y20261   0.415   5.203   3.276 -0.0869  0.2743 -2.5886
  177SAPS  C31420262   0.548   5.265   3.440 -0.2059  0.1360 -0.3943
  177SAPS  H14X20263   0.472   5.336   3.479  0.4827  1.5658 -1.5321
  177SAPS  H14Y20264   0.640   5.328   3.447 -0.0459 -0.0976 -0.4008
  177SAPS  C31520265   0.562   5.146   3.542  0.0888  0.0359  0.9610
  177SAPS  H15X20266   0.651   5.093   3.502 -0.6845  0.5576 -1.6109
  177SAPS  H15Y20267   0.473   5.080   3.547 -0.9004  1.1535 -0.8857
  177SAPS  C31620268   0.579   5.197   3.686 -0.4231  0.6728  0.7977
  177SAPS  H16X20269   0.496   5.258   3.727 -2.6387 -2.0311  0.6244
  177SAPS  H16Y20270   0.668   5.263   3.687 -0.5074  0.7832  0.9456
  177SAPS  C31720271   0.623   5.082   3.781  0.4382  0.4137  0.4048
  177SAPS  H17X20272   0.724   5.051   3.745  0.5201  0.8939  0.2137
  177SAPS  H17Y20273   0.550   4.998   3.774  1.1039 -0.2723  1.4707
  177SAPS  C31820274   0.637   5.123   3.928  0.2851  0.6554 -0.1501
  177SAPS  H18X20275   0.538   5.149   3.972 -0.1425  0.2045 -0.8293
  177SAPS  H18Y20276   0.695   5.217   3.940 -0.7530  1.3323 -0.3164
  177SAPS  H18Z20277   0.685   5.040   3.985 -1.6101  1.2201  2.4602
  178SAPS     N20278   4.096   2.033   1.994 -0.4134  0.0515  0.2997
  178SAPS   HN120279   4.054   2.118   2.036 -1.0399  1.3694 -2.7580
  178SAPS   HN220280   4.185   2.008   2.043  0.1442 -0.7085 -1.0560
  178SAPS   HN320281   4.128   2.052   1.897 -0.4108  1.4318  0.5508
  178SAPS   C1220282   3.995   1.928   1.995 -0.2888 -0.1143  1.1304
  178SAPS  H12A20283   3.906   1.964   1.945  1.1741  1.3161 -0.6277
  178SAPS   C1320284   4.039   1.790   1.935 -0.1631  0.0158 -1.2853
  178SAPS  O13A20285   4.151   1.781   1.884  0.0150  0.5656  0.1718
  178SAPS  O13B20286   3.948   1.705   1.908  0.2137 -0.4711  0.1898
  178SAPS   C1120287   3.948   1.907   2.134  1.0140 -0.6835  0.8670
  178SAPS  H11A20288   4.013   1.850   2.204  0.2506 -0.9008  1.4099
  178SAPS  H11B20289   3.859   1.841   2.130  1.6351 -1.7064  2.7898
  178SAPS     P20290   3.767   2.078   2.223  0.7650  0.1688  0.1290
  178SAPS   O1320291   3.738   2.191   2.131  0.1055 -0.1345 -0.7180
  178SAPS   O1420292   3.681   1.964   2.214  0.4412  0.2622  0.2872
  178SAPS   O1220293   3.919   2.032   2.204 -0.0401 -0.0887 -0.0090
  178SAPS   O1120294   3.757   2.129   2.372 -0.7446  0.2658 -0.5294
  178SAPS    C120295   3.616   2.144   2.431 -0.7167  0.0845  0.7411
  178SAPS    HA20296   3.613   2.252   2.457 -1.1258  0.2847 -0.1037
  178SAPS    HB20297   3.535   2.121   2.359 -0.8645  0.9373  0.6182
  178SAPS    C220298   3.586   2.056   2.556 -0.0656 -0.7318 -0.7043
  178SAPS    HS20299   3.475   2.047   2.544 -0.1376 -0.3334 -0.3390
  178SAPS   O2120300   3.626   2.117   2.683  0.0016 -0.3863  0.2166
  178SAPS   C2120301   3.550   2.210   2.730  0.1249  0.6394 -1.1124
  178SAPS   O2220302   3.449   2.255   2.677 -0.1132  0.0384 -0.3091
  178SAPS   C2220303   3.605   2.264   2.861 -1.3625 -0.5484  0.1623
  178SAPS   H2R20304   3.598   2.185   2.938  1.1135 -0.4693  0.5576
  178SAPS   H2S20305   3.712   2.291   2.850 -0.8936 -1.2716  2.4636
  178SAPS    C320306   3.657   1.916   2.550 -0.1564 -0.0990 -0.2307
  178SAPS    HX20307   3.767   1.928   2.539 -0.2001  0.4173 -0.1227
  178SAPS    HY20308   3.622   1.867   2.456  0.8937 -3.6150  1.0382
  178SAPS   O3120309   3.621   1.822   2.658  0.2892  0.1171  0.1371
  178SAPS   C3120310   3.716   1.815   2.753  0.1695  0.1523  0.2766
  178SAPS   O3220311   3.826   1.868   2.743 -0.5096  0.3685 -0.1912
  178SAPS   C3220312   3.673   1.708   2.858 -0.3547  0.4476  0.6425
  178SAPS   H2X20313   3.685   1.611   2.804 -0.8703 -0.8749  2.7811
  178SAPS   H2Y20314   3.562   1.712   2.869 -0.8016  3.1754 -2.9577
  178SAPS   C2320315   3.541   2.397   2.914  0.7566 -0.1211  0.3322
  178SAPS   H3R20316   3.434   2.382   2.940  0.4323  2.7674  1.0732
  178SAPS   H3S20317   3.539   2.478   2.838 -0.3318 -0.8081 -0.4003
  178SAPS   C2420318   3.612   2.446   3.045 -0.4948  0.0355  0.2139
  178SAPS   H4R20319   3.721   2.448   3.024 -0.7608 -2.0820 -1.7804
  178SAPS   H4S20320   3.594   2.367   3.121 -2.0992  0.9607  0.8512
  178SAPS   C2520321   3.559   2.579   3.097 -0.8274  0.2507 -1.4429
  178SAPS   H5R20322   3.543   2.665   3.030 -0.6227  1.0697 -0.4711
  178SAPS   C2620323   3.512   2.598   3.226 -0.3533  0.6815  0.3903
  178SAPS   H6R20324   3.477   2.696   3.261 -0.2153  0.0979  2.2390
  178SAPS   C2720325   3.522   2.496   3.336 -0.2807 -0.0225  0.1098
  178SAPS   H7R20326   3.523   2.540   3.438 -0.3985 -0.9053  0.5054
  178SAPS   H7S20327   3.616   2.438   3.329 -1.6423 -2.3394  0.0849
  178SAPS   C2820328   3.421   2.388   3.330  0.7075 -0.1935 -0.1481
  178SAPS   H8R20329   3.370   2.373   3.234  0.7899  2.0393 -0.5866
  178SAPS   C2920330   3.393   2.308   3.431 -0.7514 -0.6235  0.0398
  178SAPS   H9R20331   3.327   2.221   3.414  0.7442 -2.3214  2.2876
  178SAPS  C21020332   3.470   2.306   3.555 -0.1441  0.5105  0.3937
  178SAPS  H10R20333   3.572   2.349   3.550  0.5388 -0.9865  0.8904
  178SAPS  H10S20334   3.499   2.201   3.576 -0.3484  0.4064  0.1666
  178SAPS  C21120335   3.389   2.368   3.662 -1.0315 -0.0410  0.0246
  178SAPS  H11R20336   3.341   2.463   3.633  0.1388  1.0441  1.4542
  178SAPS  C21220337   3.372   2.333   3.794  0.3669  0.4676  0.3329
  178SAPS  H12R20338   3.318   2.403   3.859  0.4275  1.1846 -0.3698
  178SAPS  C21320339   3.440   2.220   3.869 -0.2249 -0.1552 -0.1706
  178SAPS  H13R20340   3.520   2.269   3.927  0.8984  0.5158 -2.1807
  178SAPS  H13S20341   3.480   2.144   3.798 -0.6199 -0.3708 -0.1703
  178SAPS  C21420342   3.342   2.150   3.959  0.0684  0.5465  1.1660
  178SAPS  H14R20343   3.300   2.060   3.913 -0.5989  0.6876  1.4915
  178SAPS  C21520344   3.321   2.169   4.086  0.0173  0.7818 -0.3733
  178SAPS  H15R20345   3.251   2.096   4.129  1.6819 -0.2627  0.6504
  178SAPS  C21620346   3.382   2.277   4.171  0.8808 -0.6155  0.7678
  178SAPS  H16R20347   3.443   2.348   4.113  0.4112 -1.2360 -0.5228
  178SAPS  H16S20348   3.455   2.231   4.241  0.2865 -0.9998  1.1493
  178SAPS  C21720349   3.284   2.364   4.249  0.2962  0.1129 -0.3726
  178SAPS  H17R20350   3.231   2.309   4.329 -0.3374  1.4819  0.1727
  178SAPS  H17S20351   3.203   2.408   4.188 -1.0904 -0.9485  0.6541
  178SAPS  C21820352   3.364   2.467   4.334  0.2646  0.1035  0.4911
  178SAPS  H18R20353   3.435   2.526   4.271 -0.7717  0.1220 -0.6987
  178SAPS  H18S20354   3.419   2.406   4.409  0.3234  2.5873  2.6130
  178SAPS  C21920355   3.265   2.546   4.415  0.0625 -0.4305 -0.3803
  178SAPS  H19R20356   3.188   2.480   4.461 -0.3812  0.6678  0.5183
  178SAPS  H19S20357   3.194   2.596   4.345 -0.1436  0.1209  0.2045
  178SAPS  C22020358   3.320   2.651   4.501 -0.0759  0.1374 -0.3075
  178SAPS  H20R20359   3.241   2.704   4.557  1.2866  0.4587  1.3886
  178SAPS  H20S20360   3.377   2.717   4.431  1.4133 -1.1158 -0.3421
  178SAPS  H20T20361   3.379   2.595   4.577 -1.0477 -0.4529  0.0200
  178SAPS   C3320362   3.743   1.716   2.988  0.1282 -0.0148 -0.4850
  178SAPS   H3X20363   3.707   1.800   3.052  0.4175  0.5910 -1.1090
  178SAPS   H3Y20364   3.853   1.714   2.976  0.0879 -1.2823 -0.7847
  178SAPS   C3420365   3.714   1.585   3.064  0.2615 -0.2829  0.4111
  178SAPS   H4X20366   3.787   1.505   3.037  1.4558  0.4701  1.3171
  178SAPS   H4Y20367   3.611   1.554   3.037  0.5183 -0.1746 -0.7834
  178SAPS   C3520368   3.722   1.609   3.217 -0.4590  0.6321 -0.3218
  178SAPS   H5X20369   3.647   1.688   3.242  0.8982  1.6991  0.5393
  178SAPS   H5Y20370   3.823   1.647   3.242 -0.0874 -1.2959  1.3465
  178SAPS   C3620371   3.691   1.471   3.281 -0.5352 -0.5223 -0.3165
  178SAPS   H6X20372   3.776   1.400   3.275 -0.4168 -0.3959 -0.1456
  178SAPS   H6Y20373   3.603   1.424   3.232  0.0895  0.1939 -2.2136
  178SAPS   C3720374   3.662   1.494   3.434 -0.5821 -0.5982 -0.5232
  178SAPS   H7X20375   3.562   1.540   3.451 -1.1324 -1.7767 -0.5093
  178SAPS   H7Y20376   3.739   1.561   3.479  0.6525 -2.3612  0.0679
  178SAPS   C3820377   3.660   1.363   3.512 -0.1944 -0.0333  0.0449
  178SAPS   H8X20378   3.764   1.323   3.510  0.7529  2.2563  0.5819
  178SAPS   H8Y20379   3.591   1.299   3.453 -0.2892  1.2069 -1.2559
  178SAPS   C3920380   3.608   1.383   3.657 -0.6688 -0.4244  0.7599
  178SAPS   H9X20381   3.520   1.451   3.653 -1.0082 -0.8824  0.0846
  178SAPS   H9Y20382   3.690   1.435   3.711  0.4173  0.7784 -1.8632
  178SAPS  C31020383   3.579   1.248   3.734 -0.6241  0.4257 -0.2512
  178SAPS  H10X20384   3.675   1.194   3.749 -0.4182  1.2716  1.6763
  178SAPS  H10Y20385   3.523   1.188   3.658 -2.3264  1.7616 -0.1179
  178SAPS  C31120386   3.522   1.269   3.872  0.0580  0.2489  0.0442
  178SAPS  H11X20387   3.436   1.339   3.864 -2.9820 -3.0984  0.8975
  178SAPS  H11Y20388   3.612   1.298   3.930  1.1285 -0.4261 -1.2350
  178SAPS  C31220389   3.464   1.130   3.926 -0.3086 -0.5480  0.4704
  178SAPS  H12X20390   3.544   1.053   3.928 -1.0722 -1.4423 -1.1101
  178SAPS  H12Y20391   3.382   1.100   3.857  0.1986 -2.0080  0.4728
  178SAPS  C31320392   3.409   1.152   4.067 -0.6241 -0.0395 -0.0042
  178SAPS  H13X20393   3.342   1.064   4.079 -0.3130 -0.0684  1.7167
  178SAPS  H13Y20394   3.344   1.241   4.061  0.9232  1.2000  0.8771
  178SAPS  C31420395   3.507   1.164   4.185 -0.0019  0.3358  0.3169
  178SAPS  H14X20396   3.568   1.254   4.160  1.8654 -1.0344 -0.2791
  178SAPS  H14Y20397   3.582   1.084   4.167 -1.3440 -0.6013 -1.3988
  178SAPS  C31520398   3.462   1.158   4.332  0.2310 -0.2118 -0.6101
  178SAPS  H15X20399   3.549   1.155   4.400 -1.1292  0.0726  1.2216
  178SAPS  H15Y20400   3.399   1.071   4.358  0.6756 -1.2408 -2.7824
  178SAPS  C31620401   3.391   1.281   4.380  0.1965 -0.4016 -0.1406
  178SAPS  H16X20402   3.286   1.265   4.348 -0.2819 -0.3316  1.2948
  178SAPS  H16Y20403   3.442   1.365   4.328 -1.7411  0.7120 -0.3537
  178SAPS  C31720404   3.380   1.289   4.534  0.3814 -0.3142 -0.1010
  178SAPS  H17X20405   3.400   1.187   4.574  2.3887  0.5754  1.3413
  178SAPS  H17Y20406   3.273   1.312   4.555  1.2250  1.6225  2.7147
  178SAPS  C31820407   3.475   1.385   4.608 -0.0295  0.0076  0.4599
  178SAPS  H18X20408   3.465   1.363   4.716 -1.7647  1.9423  0.7560
  178SAPS  H18Y20409   3.445   1.491   4.595 -0.3355  0.2156  2.5162
  178SAPS  H18Z20410   3.577   1.371   4.566 -0.3250  1.8158 -0.9989
  179SAPS     N20411   6.512   4.838   1.943  0.1433  0.1656  0.1295
  179SAPS   HN120412   6.474   4.778   2.019 -2.7797 -1.3877 -2.3421
  179SAPS   HN220413   6.576   4.782   1.883  2.3599  1.4111  1.2084
  179SAPS   HN320414   6.558   4.925   1.978 -0.3385  0.1704  0.7735
  179SAPS   C1220415   6.394   4.876   1.850  0.0918  0.1473 -0.2847
  179SAPS  H12A20416   6.438   4.928   1.766  0.9909  1.9698  1.2465
  179SAPS   C1320417   6.316   4.762   1.784  1.0538 -0.4306  0.3635
  179SAPS  O13A20418   6.357   4.641   1.806 -0.4244  0.2793  0.3643
  179SAPS  O13B20419   6.231   4.786   1.691 -0.4863 -0.0735 -0.5011
  179SAPS   C1120420   6.279   4.961   1.917 -0.1121  0.6731 -0.3241
  179SAPS  H11A20421   6.243   4.905   2.006 -0.6502  2.0240  0.3533
  179SAPS  H11B20422   6.202   4.974   1.838 -0.3678  0.1828 -0.1585
  179SAPS     P20423   6.228   5.178   2.052  0.2105  0.3799 -0.0919
  179SAPS   O1320424   6.223   5.325   2.032 -0.1095 -0.1065 -0.3622
  179SAPS   O1420425   6.096   5.110   2.043  0.6724 -0.0619 -0.2743
  179SAPS   O1220426   6.327   5.093   1.953 -0.3992  0.2077 -0.4223
  179SAPS   O1120427   6.302   5.146   2.188 -0.1443  0.0217 -0.3017
  179SAPS    C120428   6.225   5.160   2.305 -0.2149  0.5724 -0.7611
  179SAPS    HA20429   6.117   5.168   2.283 -0.0898 -0.7705 -2.0059
  179SAPS    HB20430   6.239   5.066   2.363  0.2085 -0.3278 -2.2666
  179SAPS    C220431   6.259   5.287   2.383 -0.4292 -0.3029 -0.7270
  179SAPS    HS20432   6.274   5.367   2.308  3.2250 -1.6361 -1.5957
  179SAPS   O2120433   6.389   5.268   2.456  0.0044 -0.4391  0.6762
  179SAPS   C2120434   6.483   5.361   2.444 -0.3128 -0.7919  0.2953
  179SAPS   O2220435   6.468   5.474   2.394 -0.0191  0.0606  0.6077
  179SAPS   C2220436   6.616   5.321   2.521  0.1763  0.8521  0.1141
  179SAPS   H2R20437   6.588   5.279   2.620 -0.8693  0.7321 -0.2159
  179SAPS   H2S20438   6.662   5.247   2.452 -0.9265  0.6497 -0.4361
  179SAPS    C320439   6.149   5.327   2.486 -0.9446 -0.1534  0.1804
  179SAPS    HX20440   6.145   5.233   2.545  2.0154  0.7896  2.1277
  179SAPS    HY20441   6.056   5.353   2.431  0.2220  3.1364 -0.4690
  179SAPS   O3120442   6.198   5.427   2.571 -0.1977 -0.5128 -0.1859
  179SAPS   C3120443   6.164   5.555   2.532 -0.7601 -0.4152 -0.5572
  179SAPS   O3220444   6.085   5.588   2.444  0.6115  0.4941 -0.3282
  179SAPS   C3220445   6.248   5.654   2.613 -0.2157 -0.0293 -0.3114
  179SAPS   H2X20446   6.351   5.651   2.572  1.1018  1.2366  2.6729
  179SAPS   H2Y20447   6.241   5.627   2.720  1.4566  0.6168 -0.0147
  179SAPS   C2320448   6.719   5.433   2.545  0.0666 -0.3175 -0.7689
  179SAPS   H3R20449   6.744   5.491   2.454  1.9715 -0.3319 -0.3004
  179SAPS   H3S20450   6.820   5.386   2.554  0.0230 -0.2507  0.2744
  179SAPS   C2420451   6.701   5.531   2.663  0.1078  0.1225 -0.6424
  179SAPS   H4R20452   6.609   5.590   2.647 -1.1008 -1.2852  0.7057
  179SAPS   H4S20453   6.780   5.609   2.666  0.2252 -0.0196  0.1328
  179SAPS   C2520454   6.699   5.462   2.794  0.3115  0.3162  0.6673
  179SAPS   H5R20455   6.783   5.392   2.804 -0.0045 -0.2314 -0.3473
  179SAPS   C2620456   6.607   5.462   2.884  0.0136 -0.8796  0.2016
  179SAPS   H6R20457   6.628   5.412   2.980 -2.5808 -1.4347  0.5545
  179SAPS   C2720458   6.472   5.521   2.878  0.6537 -0.7201  0.4026
  179SAPS   H7R20459   6.438   5.573   2.786  0.2815 -2.3264 -0.4044
  179SAPS   H7S20460   6.452   5.592   2.961 -0.4318 -1.1798  0.5467
  179SAPS   C2820461   6.373   5.410   2.898 -0.4306 -0.5483  0.0297
  179SAPS   H8R20462   6.342   5.365   2.803  0.9753  0.7258 -1.0866
  179SAPS   C2920463   6.334   5.354   3.010 -0.3372 -0.7693 -0.7932
  179SAPS   H9R20464   6.267   5.267   3.002  0.3677 -1.2393 -1.8784
  179SAPS  C21020465   6.363   5.408   3.149  0.1341 -0.2784 -1.1524
  179SAPS  H10R20466   6.447   5.480   3.151 -0.0014 -0.0999 -1.5325
  179SAPS  H10S20467   6.389   5.322   3.213 -1.7612 -1.0556 -1.3350
  179SAPS  C21120468   6.238   5.457   3.217 -0.3567  0.3002  0.4458
  179SAPS  H11R20469   6.164   5.486   3.141 -0.8167  0.9856  1.1492
  179SAPS  C21220470   6.213   5.466   3.351 -0.0031 -0.2412 -0.1357
  179SAPS  H12R20471   6.116   5.510   3.378 -0.0196  1.0929 -2.1882
  179SAPS  C21320472   6.309   5.438   3.463  0.6158 -0.2117 -0.0773
  179SAPS  H13R20473   6.331   5.329   3.462  0.7241 -0.1989  0.5005
  179SAPS  H13S20474   6.258   5.473   3.556  1.8057  1.4839 -0.0149
  179SAPS  C21420475   6.438   5.512   3.457 -0.4762  0.1249 -0.2003
  179SAPS  H14R20476   6.423   5.616   3.425 -1.3624 -0.4744 -1.8356
  179SAPS  C21520477   6.557   5.457   3.476 -0.6474  0.8294 -1.1371
  179SAPS  H15R20478   6.648   5.518   3.480  0.4314 -0.7071  2.6297
  179SAPS  C21620479   6.592   5.305   3.476  0.4609 -0.0439 -0.2675
  179SAPS  H16R20480   6.680   5.279   3.414  1.4059  0.1281  0.9646
  179SAPS  H16S20481   6.517   5.233   3.437 -0.5834  0.9377 -0.1141
  179SAPS  C21720482   6.611   5.261   3.618  0.2931  0.4563  0.2090
  179SAPS  H17R20483   6.515   5.241   3.670 -0.0340 -0.2540 -0.6404
  179SAPS  H17S20484   6.682   5.332   3.666 -0.8199  1.8999 -0.2153
  179SAPS  C21820485   6.675   5.118   3.615  0.1268  0.2931 -0.8345
  179SAPS  H18R20486   6.771   5.132   3.560  0.9442  3.5941  1.1550
  179SAPS  H18S20487   6.598   5.059   3.561 -0.5778 -0.9407  1.3946
  179SAPS  C21920488   6.688   5.071   3.751 -0.2914 -0.0397 -0.2700
  179SAPS  H19R20489   6.594   5.080   3.811  0.1102 -0.8611  0.5113
  179SAPS  H19S20490   6.764   5.129   3.807 -0.8314 -1.6653  2.3234
  179SAPS  C22020491   6.733   4.923   3.756 -0.0262  0.1758 -0.8764
  179SAPS  H20R20492   6.824   4.907   3.695  1.2065 -1.7479  1.3036
  179SAPS  H20S20493   6.653   4.862   3.709 -0.0711 -0.0709 -0.4820
  179SAPS  H20T20494   6.758   4.893   3.860 -1.5169  0.2239 -0.4730
  179SAPS   C3320495   6.192   5.802   2.606 -0.6055 -0.1397 -0.6285
  179SAPS   H3X20496   6.089   5.802   2.648 -0.3248  1.8154  0.1750
  179SAPS   H3Y20497   6.186   5.824   2.497 -1.1842 -0.0541 -0.5842
  179SAPS   C3420498   6.280   5.914   2.670  0.1147 -0.3050 -0.5758
  179SAPS   H4X20499   6.228   6.009   2.647  1.8029  0.9333  0.5446
  179SAPS   H4Y20500   6.379   5.911   2.621  0.4857 -2.3258  0.2142
  179SAPS   C3520501   6.293   5.894   2.821  0.3758  1.0741  0.5448
  179SAPS   H5X20502   6.366   5.812   2.838  0.8995  1.7288  1.5786
  179SAPS   H5Y20503   6.198   5.853   2.861  1.7560 -1.7813  1.1297
  179SAPS   C3620504   6.337   6.008   2.906 -0.2452  0.0850  0.8590
  179SAPS   H6X20505   6.259   6.087   2.901  1.6430  2.0127 -0.3766
  179SAPS   H6Y20506   6.433   6.045   2.863 -0.7115 -2.0568 -2.3682
  179SAPS   C3720507   6.349   5.963   3.050 -0.8071  0.1196 -0.2892
  179SAPS   H7X20508   6.413   6.036   3.104  0.4835  0.4518 -2.1700
  179SAPS   H7Y20509   6.409   5.870   3.054  2.4502  2.0395 -0.9493
  179SAPS   C3820510   6.206   5.938   3.119 -0.2245 -0.2613  0.7550
  179SAPS   H8X20511   6.187   5.833   3.088  0.7265 -1.0974  2.8228
  179SAPS   H8Y20512   6.125   6.004   3.082  1.3039  2.4871  1.9386
  179SAPS   C3920513   6.204   5.959   3.274 -0.8712  0.2353  0.2703
  179SAPS   H9X20514   6.166   6.060   3.302 -2.2645  0.1346 -1.1099
  179SAPS   H9Y20515   6.305   5.974   3.318 -0.1015 -2.5095 -0.3388
  179SAPS  C31020516   6.129   5.850   3.360 -0.7252  0.5821  0.1546
  179SAPS  H10X20517   6.185   5.756   3.341  2.4205  1.8666  2.2504
  179SAPS  H10Y20518   6.026   5.849   3.319 -1.4243  2.4781  1.7023
  179SAPS  C31120519   6.117   5.892   3.501 -0.4560 -0.3207  0.2699
  179SAPS  H11X20520   6.081   5.997   3.502 -0.0784 -0.1600 -0.9563
  179SAPS  H11Y20521   6.214   5.877   3.552 -2.3379 -1.1131  3.9263
  179SAPS  C31220522   6.018   5.797   3.575 -0.0270 -0.3629 -0.1697
  179SAPS  H12X20523   6.076   5.704   3.592  0.2880  0.2670  2.7053
  179SAPS  H12Y20524   5.932   5.793   3.505 -1.2988  4.6754  0.7177
  179SAPS  C31320525   5.962   5.847   3.707 -0.5654  0.5890 -0.0080
  179SAPS  H13X20526   5.897   5.769   3.752  1.4535 -1.4282 -0.4207
  179SAPS  H13Y20527   5.921   5.948   3.683 -4.1530 -0.7448 -0.0846
  179SAPS  C31420528   6.079   5.890   3.797  0.0291  0.6114  0.2035
  179SAPS  H14X20529   6.121   5.978   3.744 -0.4372 -0.0959 -1.3741
  179SAPS  H14Y20530   6.163   5.818   3.800 -0.5454 -0.1310 -1.0497
  179SAPS  C31520531   6.019   5.932   3.938 -0.5461  0.6597 -0.3711
  179SAPS  H15X20532   5.940   5.855   3.954  0.2215 -0.3187 -1.1112
  179SAPS  H15Y20533   5.988   6.038   3.935 -3.2095 -0.0097  0.7769
  179SAPS  C31620534   6.115   5.915   4.052 -0.3639 -0.6827  0.4079
  179SAPS  H16X20535   6.212   5.966   4.030 -0.6740  0.4790  1.5976
  179SAPS  H16Y20536   6.132   5.805   4.048 -3.6355 -1.2753  0.0231
  179SAPS  C31720537   6.056   5.955   4.188 -0.1991 -0.0299 -0.5831
  179SAPS  H17X20538   6.131   5.926   4.265 -1.8118 -1.4533  0.5469
  179SAPS  H17Y20539   5.966   5.892   4.208  0.0718 -0.6102 -1.1709
  179SAPS  C31820540   6.032   6.103   4.204  0.3354 -0.3547 -0.4390
  179SAPS  H18X20541   6.002   6.121   4.310 -1.1205 -0.1452 -0.8566
  179SAPS  H18Y20542   5.964   6.141   4.124 -0.6349 -0.7827  0.1562
  179SAPS  H18Z20543   6.129   6.155   4.192  1.2908 -1.6732  1.2761
  180SAPS     N20544   6.292   3.765   1.960 -0.2863 -0.5379 -0.3961
  180SAPS   HN120545   6.252   3.794   1.869 -0.2590  1.2983  0.1338
  180SAPS   HN220546   6.294   3.661   1.963 -0.3458 -0.5154  1.1627
  180SAPS   HN320547   6.223   3.800   2.030 -0.5490  2.8646 -2.1433
  180SAPS   C1220548   6.431   3.811   1.977  0.4822 -0.0417 -1.1271
  180SAPS  H12A20549   6.497   3.731   1.945  0.0763 -1.0849  0.5222
  180SAPS   C1320550   6.467   3.933   1.903  0.0389 -0.5435 -0.0542
  180SAPS  O13A20551   6.392   3.981   1.820  0.6366 -0.1762  0.5038
  180SAPS  O13B20552   6.584   3.984   1.922  0.4818  0.0633 -0.1992
  180SAPS   C1120553   6.460   3.828   2.131  0.1574 -0.0114  0.1745
  180SAPS  H11A20554   6.563   3.866   2.144 -0.4555  1.8284  0.0170
  180SAPS  H11B20555   6.454   3.724   2.171  2.5481 -0.8216 -1.3506
  180SAPS     P20556   6.396   4.034   2.285  0.0845 -0.5449  0.0029
  180SAPS   O1320557   6.492   4.130   2.219 -0.4973 -0.1458 -0.1460
  180SAPS   O1420558   6.274   4.098   2.347  0.1551  0.6312  0.1499
  180SAPS   O1220559   6.360   3.911   2.188  0.3144 -0.2552 -0.7532
  180SAPS   O1120560   6.465   3.964   2.402  0.0635  0.2883  0.3718
  180SAPS    C120561   6.400   3.880   2.504 -0.4291  0.1315 -0.1605
  180SAPS    HA20562   6.344   3.800   2.451  0.7367 -1.7445  1.2783
  180SAPS    HB20563   6.483   3.834   2.561  0.2123  0.9235 -0.4316
  180SAPS    C220564   6.318   3.952   2.608  0.3685  0.1361  0.6140
  180SAPS    HS20565   6.269   4.038   2.558 -2.5525 -0.8534  1.5616
  180SAPS   O2120566   6.407   4.010   2.711 -0.1715  0.2457  0.3393
  180SAPS   C2120567   6.344   4.098   2.795  0.0044 -0.5252 -0.4917
  180SAPS   O2220568   6.226   4.126   2.782  0.1800  0.4984 -0.0812
  180SAPS   C2220569   6.458   4.167   2.869 -0.0813  0.3890 -0.3739
  180SAPS   H2R20570   6.498   4.089   2.937 -0.7900  1.0344  0.8081
  180SAPS   H2S20571   6.532   4.201   2.793 -0.9714  2.1622 -0.4925
  180SAPS    C320572   6.204   3.856   2.662  1.3469 -0.4028 -0.5321
  180SAPS    HX20573   6.132   3.833   2.581  2.3732 -2.0715 -1.0237
  180SAPS    HY20574   6.139   3.915   2.730  1.3961 -1.8784  0.8697
  180SAPS   O3120575   6.253   3.731   2.724  0.3549 -0.8824  0.4459
  180SAPS   C3120576   6.217   3.615   2.665  0.4066  0.5077  0.5485
  180SAPS   O3220577   6.184   3.609   2.546  0.0307 -0.0878  0.3054
  180SAPS   C3220578   6.212   3.504   2.763 -0.0923  0.1028  0.2698
  180SAPS   H2X20579   6.315   3.470   2.788 -0.8229 -1.5132  1.1908
  180SAPS   H2Y20580   6.157   3.424   2.709 -2.0706  0.2046  2.0167
  180SAPS   C2320581   6.409   4.282   2.958 -0.1611  0.1040  0.1598
  180SAPS   H3R20582   6.338   4.340   2.894 -3.0149 -2.1176  1.0686
  180SAPS   H3S20583   6.494   4.349   2.983 -0.9142  1.7770 -1.4446
  180SAPS   C2420584   6.327   4.246   3.086 -0.6860 -0.8065  0.2442
  180SAPS   H4R20585   6.245   4.175   3.064 -1.1763 -0.3988  0.7386
  180SAPS   H4S20586   6.274   4.340   3.111 -0.7915 -0.0512 -2.5641
  180SAPS   C2520587   6.412   4.195   3.200 -0.4873  0.2246 -0.1125
  180SAPS   H5R20588   6.406   4.085   3.203 -1.5652  0.2621 -0.5029
  180SAPS   C2620589   6.464   4.267   3.295 -0.2491  0.0458  0.3328
  180SAPS   H6R20590   6.507   4.210   3.379 -0.7947  1.5954  1.7278
  180SAPS   C2720591   6.478   4.416   3.315 -0.5440 -0.5712 -0.3097
  180SAPS   H7R20592   6.388   4.473   3.284  0.4653  2.4043  1.7199
  180SAPS   H7S20593   6.566   4.452   3.257  0.9141  1.5696  2.9251
  180SAPS   C2820594   6.511   4.448   3.458 -0.2603 -0.4294  0.1372
  180SAPS   H8R20595   6.486   4.379   3.540 -1.7481  0.2674  0.3054
  180SAPS   C2920596   6.581   4.560   3.492 -0.0573  0.7424  0.3179
  180SAPS   H9R20597   6.571   4.593   3.597  0.2334  0.2121  0.5177
  180SAPS  C21020598   6.622   4.664   3.393  0.9425 -0.1526  0.4670
  180SAPS  H10R20599   6.588   4.767   3.412  2.2780  0.5649 -0.8124
  180SAPS  H10S20600   6.577   4.637   3.295 -2.0265 -1.0765  1.9471
  180SAPS  C21120601   6.774   4.656   3.394  0.3343  0.1300  0.9228
  180SAPS  H11R20602   6.822   4.629   3.489  1.2156 -1.0601  0.1647
  180SAPS  C21220603   6.849   4.663   3.283  0.0955  0.6398  0.3325
  180SAPS  H12R20604   6.958   4.648   3.294  0.4601  2.3776 -0.4993
  180SAPS  C21320605   6.802   4.665   3.144  0.4775  0.3262  0.3904
  180SAPS  H13R20606   6.871   4.727   3.081 -0.5948 -0.1868 -1.3654
  180SAPS  H13S20607   6.709   4.726   3.143 -0.6601 -1.3147 -1.5817
  180SAPS  C21420608   6.773   4.532   3.074  0.5469 -0.6471 -0.2687
  180SAPS  H14R20609   6.738   4.450   3.139  2.6171 -0.5634  1.0310
  180SAPS  C21520610   6.787   4.508   2.946 -0.4281 -0.1152  0.1855
  180SAPS  H15R20611   6.759   4.409   2.907 -0.9049  0.1581 -0.1812
  180SAPS  C21620612   6.866   4.595   2.845  0.1426  0.4918 -0.6206
  180SAPS  H16R20613   6.843   4.700   2.873  2.1712  0.6889  0.4796
  180SAPS  H16S20614   6.822   4.579   2.744  2.2109  0.2004 -1.5258
  180SAPS  C21720615   7.021   4.574   2.851 -0.9374 -0.3032  0.3630
  180SAPS  H17R20616   7.074   4.615   2.763 -1.9637  1.4149  0.4831
  180SAPS  H17S20617   7.038   4.465   2.863 -2.5614 -0.8529 -1.8025
  180SAPS  C21820618   7.099   4.640   2.971 -0.2414  0.0879 -0.3151
  180SAPS  H18R20619   7.188   4.576   2.989 -1.6819 -1.8522  0.3288
  180SAPS  H18S20620   7.053   4.649   3.071 -0.4260 -1.2210 -0.2636
  180SAPS  C21920621   7.170   4.772   2.939  0.4556  0.0087  0.8178
  180SAPS  H19R20622   7.088   4.847   2.941  1.7582  1.6215 -1.3849
  180SAPS  H19S20623   7.218   4.760   2.840 -0.1761 -0.5169  0.5699
  180SAPS  C22020624   7.279   4.816   3.042  0.2726 -0.1301  0.0893
  180SAPS  H20R20625   7.234   4.795   3.141 -1.2882  2.1839 -0.0295
  180SAPS  H20S20626   7.372   4.755   3.040  0.4842  0.1138  1.5324
  180SAPS  H20T20627   7.299   4.924   3.026 -1.2144  0.0752 -0.6172
  180SAPS   C3320628   6.137   3.545   2.887  0.8912  0.7620 -0.2246
  180SAPS   H3X20629   6.050   3.610   2.862  0.7765  0.7381  0.0995
  180SAPS   H3Y20630   6.207   3.598   2.956  1.9873 -0.8668 -0.0336
  180SAPS   C3420631   6.085   3.415   2.958 -0.6397  0.3917 -0.3418
  180SAPS   H4X20632   6.171   3.345   2.960 -0.8520  0.1144 -0.8182
  180SAPS   H4Y20633   6.017   3.372   2.882 -0.3717  0.7655 -0.8003
  180SAPS   C3520634   6.008   3.440   3.090 -0.9899 -0.2528  0.1251
  180SAPS   H5X20635   5.963   3.350   3.138  0.8852 -2.9296 -2.7477
  180SAPS   H5Y20636   5.923   3.503   3.056 -0.5243 -0.5057 -1.5972
  180SAPS   C3620637   6.094   3.505   3.194  0.1889 -0.0923 -0.9991
  180SAPS   H6X20638   6.122   3.608   3.163  1.1594  0.0043  0.1319
  180SAPS   H6Y20639   6.186   3.442   3.195 -0.2007 -0.7112  0.7798
  180SAPS   C3720640   6.024   3.497   3.332 -0.5464  0.1970 -0.4351
  180SAPS   H7X20641   6.010   3.390   3.359 -1.9524 -0.0788 -2.0839
  180SAPS   H7Y20642   5.918   3.530   3.333 -0.4204  0.6641  1.2250
  180SAPS   C3820643   6.101   3.582   3.442  1.2386 -0.2830 -0.4479
  180SAPS   H8X20644   6.133   3.682   3.406 -0.8755  1.3653  1.8969
  180SAPS   H8Y20645   6.195   3.529   3.465  2.0466  1.0308 -0.5894
  180SAPS   C3920646   6.019   3.587   3.567  0.4203  0.2751  0.0895
  180SAPS   H9X20647   6.000   3.484   3.606  1.7960 -0.5681 -1.3539
  180SAPS   H9Y20648   5.922   3.638   3.547  0.7508  1.2340  0.8472
  180SAPS  C31020649   6.103   3.667   3.673 -0.0184  0.3068  0.0758
  180SAPS  H10X20650   6.131   3.770   3.642  1.5025 -0.0452  0.2173
  180SAPS  H10Y20651   6.201   3.617   3.684  0.6045  0.8721 -2.2968
  180SAPS  C31120652   6.020   3.665   3.803 -0.5014  0.1073  0.0114
  180SAPS  H11X20653   6.017   3.557   3.829  1.9233 -0.9256 -3.3340
  180SAPS  H11Y20654   5.913   3.694   3.789 -0.3448  1.1524  0.8314
  180SAPS  C31220655   6.068   3.751   3.915  0.3200  0.6537 -0.3346
  180SAPS  H12X20656   6.033   3.854   3.894 -1.2873  0.0174 -0.9271
  180SAPS  H12Y20657   6.178   3.768   3.921  0.4018 -0.1538  0.9478
  180SAPS  C31320658   5.998   3.708   4.041 -0.1346  0.3325  0.9992
  180SAPS  H13X20659   6.008   3.598   4.055 -1.8288 -0.0317 -0.3130
  180SAPS  H13Y20660   5.889   3.731   4.037 -0.0405  0.5761 -1.2742
  180SAPS  C31420661   6.076   3.765   4.165 -0.2861  0.1824 -0.1473
  180SAPS  H14X20662   6.001   3.767   4.247 -2.0668 -0.9236 -1.6564
  180SAPS  H14Y20663   6.111   3.867   4.139  0.9972 -0.1927  0.0723
  180SAPS  C31520664   6.193   3.668   4.212  0.5062 -0.2418  0.5154
  180SAPS  H15X20665   6.268   3.667   4.130  2.0050 -1.1937  1.8415
  180SAPS  H15Y20666   6.140   3.571   4.215 -1.0692  0.5918  1.3427
  180SAPS  C31620667   6.261   3.708   4.341 -0.1460  0.6725  0.1500
  180SAPS  H16X20668   6.308   3.618   4.386 -2.2923 -0.1710  0.8167
  180SAPS  H16Y20669   6.184   3.742   4.413  1.7382 -0.4657  2.8472
  180SAPS  C31720670   6.368   3.821   4.332  0.0860 -0.1484  0.5580
  180SAPS  H17X20671   6.337   3.904   4.265 -0.6965 -0.5510  0.4035
  180SAPS  H17Y20672   6.456   3.779   4.279  0.8715  0.7938  1.0861
  180SAPS  C31820673   6.413   3.880   4.468  0.4058 -0.1953  0.1273
  180SAPS  H18X20674   6.480   3.968   4.463 -0.2470  0.3773  1.1429
  180SAPS  H18Y20675   6.460   3.804   4.534 -3.7637 -2.5428  0.7227
  180SAPS  H18Z20676   6.326   3.920   4.525  0.9679  0.2055  0.7146
  181POPC     N20677   1.122   4.041   6.931 -0.3119 -0.8966 -0.7525
  181POPC   C1220678   0.981   4.014   6.880  0.3194  0.2735  0.4796
  181POPC  H12A20679   0.940   4.099   6.826  0.1787 -0.2679 -0.2802
  181POPC  H12B20680   0.922   4.005   6.970 -1.4010  0.2899 -0.6197
  181POPC   C1320681   1.142   4.139   7.049 -0.6530  0.6041 -0.6456
  181POPC  H13A20682   1.245   4.170   7.059  0.2839 -2.0201 -1.0821
  181POPC  H13B20683   1.082   4.228   7.039 -1.4681  0.7386  3.6961
  181POPC  H13C20684   1.135   4.089   7.144  0.3778  1.6402  0.0031
  181POPC   C1420685   1.179   3.916   6.982 -0.4823 -0.2533 -0.1587
  181POPC  H14A20686   1.127   3.882   7.070 -0.7741 -2.3073 -1.0571
  181POPC  H14B20687   1.176   3.836   6.909 -1.3814  0.8493 -1.3830
  181POPC  H14C20688   1.284   3.931   7.000 -0.4787  1.2026 -1.1820
  181POPC   C1520689   1.195   4.099   6.811  0.3888  0.6137 -0.5377
  181POPC  H15A20690   1.171   4.024   6.736  0.1849 -0.5473  0.6459
  181POPC  H15B20691   1.302   4.103   6.805  0.4322 -0.9751 -1.7209
  181POPC  H15C20692   1.142   4.187   6.779 -0.7045 -0.7729 -2.8205
  181POPC   C1120693   0.956   3.892   6.790 -0.3714  0.0130  0.1425
  181POPC  H11A20694   0.846   3.889   6.773 -0.1322  0.7775 -1.8832
  181POPC  H11B20695   0.979   3.800   6.847 -1.9554 -0.4823  0.0307
  181POPC     P20696   0.955   3.985   6.561  0.1059 -0.1827  0.5109
  181POPC   O1320697   1.064   4.015   6.466  0.0228  0.6042  0.2733
  181POPC   O1420698   0.896   4.105   6.615 -0.2841 -0.2818 -0.1750
  181POPC   O1220699   1.023   3.897   6.664  0.0499  0.4798  0.6949
  181POPC   O1120700   0.847   3.898   6.478 -0.2791  0.2061  0.7149
  181POPC    C120701   0.860   3.758   6.456  0.2958  0.6368  0.2839
  181POPC    HA20702   0.764   3.706   6.477 -0.7184  2.5995  0.7764
  181POPC    HB20703   0.937   3.716   6.523 -0.1274  0.2191  0.5180
  181POPC    C220704   0.915   3.725   6.314 -0.0240  0.9627  0.0292
  181POPC    HS20705   1.015   3.774   6.310  0.4018  0.1577  0.4655
  181POPC   O2120706   0.815   3.776   6.221 -0.2205 -0.8698 -0.2486
  181POPC   C2120707   0.846   3.886   6.160 -0.4804 -0.3791  0.9658
  181POPC   O2220708   0.954   3.942   6.158  0.1956 -0.5801 -0.6442
  181POPC   C2220709   0.735   3.934   6.068 -0.4256 -0.0838  0.3765
  181POPC   H2R20710   0.749   4.038   6.031  0.6764 -0.6994 -1.0810
  181POPC   H2S20711   0.642   3.933   6.128 -0.8530 -5.2235  0.0510
  181POPC    C320712   0.931   3.572   6.305  0.1887  0.0398 -0.2225
  181POPC    HX20713   0.836   3.515   6.314 -0.2515  0.9097  0.8272
  181POPC    HY20714   0.998   3.545   6.390  1.1905  1.6247 -0.4517
  181POPC   O3120715   1.007   3.557   6.186 -0.5755  0.4771  0.1888
  181POPC   C3120716   0.939   3.527   6.074 -0.1943 -0.0509  0.0784
  181POPC   O3220717   0.821   3.520   6.068  0.3059 -0.2037 -0.1787
  181POPC   C3220718   1.034   3.513   5.949  0.5651  0.0052 -0.2620
  181POPC   H2X20719   1.104   3.436   5.987  0.2312  0.1991  0.7931
  181POPC   H2Y20720   1.097   3.604   5.944 -0.2948  0.7804  1.8140
  181POPC   C2320721   0.713   3.835   5.950 -0.2866 -0.0272  0.0896
  181POPC   H3R20722   0.603   3.834   5.933 -0.4114 -0.4535  0.8796
  181POPC   H3S20723   0.748   3.732   5.972  0.5907  0.7657  2.7114
  181POPC   C2420724   0.773   3.884   5.819  0.3180  0.3812  0.0443
  181POPC   H4R20725   0.882   3.874   5.838  0.1323 -0.8223  0.5407
  181POPC   H4S20726   0.756   3.993   5.813  0.2420  0.4783  1.6569
  181POPC   C2520727   0.739   3.796   5.698 -0.4506 -0.9007 -0.2043
  181POPC   H5R20728   0.631   3.803   5.675 -1.2259 -3.4989  2.0562
  181POPC   H5S20729   0.769   3.689   5.707  0.3750 -0.5713  1.4501
  181POPC   C2620730   0.818   3.831   5.570 -0.0209 -0.3421  0.2781
  181POPC   H6R20731   0.812   3.742   5.505 -1.2967  0.2881 -0.5032
  181POPC   H6S20732   0.926   3.844   5.594 -0.4601 -2.3642  4.1107
  181POPC   C2720733   0.765   3.953   5.490  0.9019  0.3961 -0.7826
  181POPC   H7R20734   0.776   4.041   5.556  2.4663  0.0404 -0.5232
  181POPC   H7S20735   0.656   3.933   5.480  0.9500  0.3308 -1.1617
  181POPC   C2820736   0.844   3.991   5.366  0.2072 -0.0221  0.2576
  181POPC   H8R20737   0.954   3.984   5.383  0.0468 -3.4115  0.6426
  181POPC   H8S20738   0.808   4.094   5.348 -0.0105 -0.3436 -1.2533
  181POPC   C2920739   0.811   3.901   5.252 -0.1819  0.1479 -1.1847
  181POPC   H9120740   0.792   3.797   5.282 -1.4585  0.5071 -0.6781
  181POPC  C21020741   0.789   3.934   5.128 -0.3900 -0.2375  0.3190
  181POPC  H10120742   0.752   3.859   5.057  1.6746 -0.6417 -0.4106
  181POPC  C21120743   0.807   4.072   5.069 -0.0968  0.2226  0.1104
  181POPC  H11R20744   0.890   4.070   4.995  0.7716 -1.6432  1.0732
  181POPC  H11S20745   0.831   4.141   5.153 -2.4117 -0.6098  1.5544
  181POPC  C21220746   0.671   4.128   5.012 -0.3597 -0.6396 -0.3493
  181POPC  H12R20747   0.607   4.064   4.948 -2.8531  0.8414  0.5153
  181POPC  H12S20748   0.708   4.214   4.953  1.6959  1.0487  3.1059
  181POPC  C21320749   0.577   4.204   5.114 -0.4740  0.4276  0.4337
  181POPC  H13R20750   0.513   4.282   5.068 -1.3202  0.9294  2.3416
  181POPC  H13S20751   0.641   4.265   5.182 -0.4957  2.3878 -1.2328
  181POPC  C21420752   0.494   4.107   5.209 -0.1931  0.7587 -0.9554
  181POPC  H14R20753   0.567   4.035   5.251 -2.8586 -2.0313 -0.7907
  181POPC  H14S20754   0.413   4.056   5.153 -0.2111 -1.1487  0.6879
  181POPC  C21520755   0.422   4.185   5.318  0.3372 -0.0839 -0.1758
  181POPC  H15R20756   0.336   4.236   5.269  0.6272  0.0558 -0.5386
  181POPC  H15S20757   0.488   4.263   5.360 -0.9952  0.7438  0.4757
  181POPC  C21620758   0.364   4.096   5.425 -0.0938  0.4863 -0.0499
  181POPC  H16R20759   0.296   4.162   5.482 -0.1950 -2.2882  3.3674
  181POPC  H16S20760   0.443   4.063   5.496 -0.1956 -1.6357 -0.8560
  181POPC  C21720761   0.275   3.971   5.381 -0.0125  0.6758 -0.5887
  181POPC  H17R20762   0.332   3.914   5.305 -0.4044 -1.1857  0.4664
  181POPC  H17S20763   0.182   4.008   5.331 -1.6010 -2.6673 -0.4090
  181POPC  C21820764   0.234   3.878   5.502 -0.0743 -0.5676 -1.1247
  181POPC  H18R20765   0.138   3.828   5.477 -0.7546  1.1640 -2.1950
  181POPC  H18S20766   0.204   3.944   5.586 -0.7561 -1.1304 -0.9131
  181POPC  H18T20767   0.312   3.806   5.534  0.4835  1.6658  3.2911
  181POPC   C3320768   0.962   3.466   5.824  0.1255 -0.3182 -0.5001
  181POPC   H3X20769   0.886   3.538   5.788 -0.0010 -0.4569 -0.5112
  181POPC   H3Y20770   0.910   3.370   5.844 -0.0851 -0.0387  0.3492
  181POPC   C3420771   1.053   3.449   5.700 -0.1456  0.1335 -0.2976
  181POPC   H4X20772   1.118   3.362   5.720  0.7685  0.5493 -1.3731
  181POPC   H4Y20773   1.132   3.527   5.691  1.1934 -0.9451  1.4180
  181POPC   C3520774   0.975   3.436   5.572 -0.5119  0.0410  0.1404
  181POPC   H5X20775   0.884   3.499   5.565 -1.0556 -0.9339 -4.2565
  181POPC   H5Y20776   0.951   3.328   5.557  2.1517 -0.4163 -1.5638
  181POPC   C3620777   1.071   3.482   5.461  0.4482 -0.1103 -0.6781
  181POPC   H6X20778   1.156   3.415   5.437  2.5434  1.6382  1.3452
  181POPC   H6Y20779   1.108   3.583   5.488 -1.8210  0.7792 -0.6575
  181POPC   C3720780   0.996   3.494   5.325  0.5073 -0.6927 -0.5253
  181POPC   H7X20781   0.914   3.568   5.331 -0.0433 -1.3758  0.7250
  181POPC   H7Y20782   0.949   3.396   5.300  1.3102 -1.4268  0.7403
  181POPC   C3820783   1.077   3.553   5.213 -0.0926  0.2456  0.4810
  181POPC   H8X20784   1.169   3.491   5.201 -0.4863 -0.3551  0.5545
  181POPC   H8Y20785   1.133   3.642   5.249 -0.2499  1.0043 -1.0762
  181POPC   C3920786   1.007   3.584   5.078  0.0260 -0.3133  0.0536
  181POPC   H9X20787   1.089   3.585   5.004  0.9530  1.3773  1.0585
  181POPC   H9Y20788   0.980   3.691   5.079  0.0514 -0.2615 -1.7932
  181POPC  C31020789   0.893   3.498   5.027  0.3743  0.2901  0.2640
  181POPC  H10X20790   0.801   3.505   5.088 -0.9570 -1.2047 -1.4460
  181POPC  H10Y20791   0.932   3.394   5.033  1.1604  0.4829 -1.0515
  181POPC  C31120792   0.844   3.535   4.888  0.2890 -0.1830  0.4302
  181POPC  H11X20793   0.814   3.642   4.886 -1.5752 -0.6753 -0.5265
  181POPC  H11Y20794   0.760   3.462   4.876 -0.2579  0.2327  1.5654
  181POPC  C31220795   0.941   3.479   4.775  0.1992 -0.5514 -0.3555
  181POPC  H12X20796   0.945   3.368   4.771  0.0756 -0.6148  0.8672
  181POPC  H12Y20797   1.046   3.509   4.792 -0.5681  1.7692  0.7266
  181POPC  C31320798   0.892   3.516   4.631  0.4679  0.9489  0.2974
  181POPC  H13X20799   0.877   3.625   4.637  0.5435  1.0158 -0.5614
  181POPC  H13Y20800   0.795   3.464   4.612 -0.4447  2.8100 -0.4048
  181POPC  C31420801   0.982   3.480   4.514 -0.6166 -0.0188  0.1689
  181POPC  H14X20802   0.937   3.498   4.414  2.0493 -1.2110 -1.3530
  181POPC  H14Y20803   1.001   3.371   4.511  0.9669  0.2332  0.3922
  181POPC  C31520804   1.117   3.546   4.518 -0.4314  0.0995  0.2031
  181POPC  H15X20805   1.167   3.505   4.609  1.9694 -1.0672 -1.5186
  181POPC  H15Y20806   1.099   3.655   4.522  2.7986  0.7818 -0.9507
  181POPC  C31620807   1.194   3.520   4.393  0.2963  0.3533  0.2981
  181POPC  H16X20808   1.158   3.593   4.318 -3.0992 -2.5063 -1.1346
  181POPC  H16Y20809   1.161   3.421   4.354  3.1255 -0.3502 -0.5445
  181POPC  H16Z20810   1.305   3.528   4.404  0.5179  0.1289 -1.5492
  182POPC     N20811   4.299   5.305   6.579 -0.9083 -0.5201  0.2585
  182POPC   C1220812   4.262   5.400   6.467  0.0774 -0.6477 -0.0958
  182POPC  H12A20813   4.189   5.469   6.508 -0.8626 -1.5274 -0.2368
  182POPC  H12B20814   4.207   5.336   6.401  1.4627 -2.9931  0.9237
  182POPC   C1320815   4.187   5.204   6.610 -0.8224  0.4104 -0.2613
  182POPC  H13A20816   4.217   5.152   6.699  1.8817  0.7708 -0.8930
  182POPC  H13B20817   4.099   5.267   6.620 -0.7853  0.6037 -1.0274
  182POPC  H13C20818   4.171   5.131   6.532 -1.3254 -1.3707  1.4252
  182POPC   C1420819   4.408   5.212   6.543  0.6649 -0.7123  0.0861
  182POPC  H14A20820   4.452   5.163   6.629 -0.5979  0.2568  1.3245
  182POPC  H14B20821   4.380   5.140   6.468 -0.0032 -1.3743  0.9475
  182POPC  H14C20822   4.500   5.256   6.507  0.0089  2.6727  2.0799
  182POPC   C1520823   4.339   5.387   6.696  0.9793 -0.7608  0.1765
  182POPC  H15A20824   4.348   5.341   6.793  2.3978  0.9525  0.9049
  182POPC  H15B20825   4.255   5.454   6.706  1.4982  0.2069 -1.4655
  182POPC  H15C20826   4.423   5.453   6.678  0.5314  0.0086  0.8942
  182POPC   C1120827   4.367   5.461   6.373  0.6655 -0.4186 -0.2279
  182POPC  H11A20828   4.320   5.509   6.285 -1.2684  0.5621  1.2493
  182POPC  H11B20829   4.441   5.392   6.328  1.1518  0.8124 -1.3608
  182POPC     P20830   4.377   5.693   6.487  0.2240 -0.0556  0.0938
  182POPC   O1320831   4.450   5.726   6.611  0.3298 -0.9203 -0.5861
  182POPC   O1420832   4.228   5.678   6.488 -0.0175 -0.3089  0.1006
  182POPC   O1220833   4.445   5.552   6.449 -0.2259 -0.6704 -0.3116
  182POPC   O1120834   4.426   5.772   6.369 -0.2168  0.2335  0.2069
  182POPC    C120835   4.547   5.760   6.299  0.3990 -0.1316  0.4499
  182POPC    HA20836   4.584   5.655   6.305 -0.3467 -0.4686 -0.4938
  182POPC    HB20837   4.617   5.821   6.360 -0.8560  1.6942  0.1532
  182POPC    C220838   4.523   5.805   6.146 -0.5547  0.7812  0.0152
  182POPC    HS20839   4.478   5.728   6.080  0.2751  0.8880 -0.6961
  182POPC   O2120840   4.649   5.849   6.096  0.5744 -0.2475 -0.1973
  182POPC   C2120841   4.721   5.742   6.062  0.2852 -0.2081  0.9001
  182POPC   O2220842   4.679   5.628   6.061  0.0455 -0.7728  0.4434
  182POPC   C2220843   4.860   5.792   6.015 -0.7032 -0.1558 -0.4040
  182POPC   H2R20844   4.907   5.800   6.116 -0.5766  0.1632 -0.4866
  182POPC   H2S20845   4.854   5.892   5.967  0.9939  0.5141  0.6559
  182POPC    C320846   4.426   5.927   6.131 -0.7137  0.5907 -0.2810
  182POPC    HX20847   4.485   6.008   6.177  1.1303 -0.5766 -0.4913
  182POPC    HY20848   4.335   5.899   6.189 -1.4514 -0.0933 -1.6955
  182POPC   O3120849   4.389   5.958   5.989 -0.0355  0.3744 -1.1040
  182POPC   C3120850   4.468   6.039   5.923 -0.3140 -0.5811  0.3166
  182POPC   O3220851   4.558   6.110   5.972 -0.2824 -0.0208 -0.1299
  182POPC   C3220852   4.427   6.033   5.774  0.2001 -0.8203  0.2410
  182POPC   H2X20853   4.317   6.038   5.760  0.1052  0.9696  1.2702
  182POPC   H2Y20854   4.451   5.930   5.740  0.0184 -0.6959 -0.2706
  182POPC   C2320855   4.928   5.691   5.927  0.3116  0.8003  1.1070
  182POPC   H3R20856   4.919   5.591   5.973  1.4073 -0.0889 -0.5418
  182POPC   H3S20857   5.034   5.721   5.910  0.3990 -0.1347 -0.1250
  182POPC   C2420858   4.855   5.690   5.792 -0.2967 -0.0285  0.0360
  182POPC   H4R20859   4.850   5.798   5.764 -0.3004 -0.2590 -0.9065
  182POPC   H4S20860   4.748   5.660   5.798 -0.7989  0.5691 -3.3427
  182POPC   C2520861   4.927   5.605   5.687  0.1175 -0.4264 -0.1979
  182POPC   H5R20862   4.950   5.508   5.736 -2.1909  0.3016  2.5917
  182POPC   H5S20863   5.015   5.671   5.669  0.2265  0.0635  1.8794
  182POPC   C2620864   4.838   5.578   5.569 -0.1879 -0.3524 -0.7102
  182POPC   H6R20865   4.785   5.668   5.529  1.0400  0.7536  0.0499
  182POPC   H6S20866   4.757   5.507   5.596  0.6110 -1.5463 -1.3746
  182POPC   C2720867   4.923   5.514   5.456  0.2546 -0.6397  0.3080
  182POPC   H7R20868   4.962   5.417   5.494  2.0110 -0.0903 -0.0265
  182POPC   H7S20869   5.006   5.578   5.420 -1.0211 -1.3725 -4.5335
  182POPC   C2820870   4.824   5.480   5.347  0.0864  0.2366 -0.8092
  182POPC   H8R20871   4.780   5.574   5.306  0.6985  1.0506  0.3437
  182POPC   H8S20872   4.732   5.435   5.389  0.7371 -1.0153 -0.6847
  182POPC   C2920873   4.895   5.403   5.241 -0.0064  0.8411 -0.8347
  182POPC   H9120874   4.916   5.299   5.270  2.2059  1.2670 -0.7337
  182POPC  C21020875   4.928   5.446   5.116 -0.1754 -0.2072 -0.6884
  182POPC  H10120876   4.989   5.380   5.053 -1.8784 -2.2893 -0.2760
  182POPC  C21120877   4.887   5.573   5.049 -0.0118 -0.0587  0.8445
  182POPC  H11R20878   4.978   5.637   5.053 -0.1887  0.3705 -0.9526
  182POPC  H11S20879   4.803   5.618   5.105 -0.2492 -0.4253  0.7829
  182POPC  C21220880   4.848   5.555   4.891  0.0378 -0.4733 -0.4043
  182POPC  H12R20881   4.821   5.656   4.853 -0.0046 -0.4251 -0.2477
  182POPC  H12S20882   4.760   5.488   4.885 -0.8395  0.6024 -0.1037
  182POPC  C21320883   4.969   5.524   4.803 -0.1145 -0.5365  0.2603
  182POPC  H13R20884   5.007   5.424   4.833  0.7158 -0.0284  0.9188
  182POPC  H13S20885   5.052   5.593   4.831 -1.0800  0.2608  1.2691
  182POPC  C21420886   4.951   5.521   4.651  0.4241 -0.1463 -0.4974
  182POPC  H14R20887   4.871   5.591   4.617  1.3369  0.0199 -2.4596
  182POPC  H14S20888   4.918   5.417   4.633 -0.4324  0.2314 -1.2143
  182POPC  C21520889   5.082   5.541   4.568  1.0493 -0.2318  0.3816
  182POPC  H15R20890   5.157   5.483   4.626  1.0381  0.7725  1.4393
  182POPC  H15S20891   5.112   5.648   4.573  0.4250 -0.0976  1.8999
  182POPC  C21620892   5.069   5.506   4.416 -0.1739  0.0491 -0.9663
  182POPC  H16R20893   5.138   5.581   4.371 -0.5737  2.9236  2.6464
  182POPC  H16S20894   4.967   5.524   4.377 -0.3704 -0.8950 -0.9007
  182POPC  C21720895   5.112   5.355   4.385 -0.2924  0.3120  0.2147
  182POPC  H17R20896   5.050   5.286   4.446 -1.6856 -0.3987 -1.9020
  182POPC  H17S20897   5.214   5.337   4.425 -0.6593 -2.3757  0.1260
  182POPC  C21820898   5.096   5.303   4.243 -0.3782 -0.7598  0.4754
  182POPC  H18R20899   5.130   5.197   4.249  1.4442 -0.1935  0.6575
  182POPC  H18S20900   5.167   5.360   4.179 -0.7151  1.7420  2.1924
  182POPC  H18T20901   4.998   5.322   4.195 -0.1460 -0.2650  0.1935
  182POPC   C3320902   4.507   6.134   5.681  0.2160 -0.3520 -1.0183
  182POPC   H3X20903   4.608   6.151   5.725  1.4228 -1.2901 -3.2655
  182POPC   H3Y20904   4.452   6.230   5.694  0.8623 -0.1413  0.2927
  182POPC   C3420905   4.525   6.094   5.532  0.0275  0.3784  0.4251
  182POPC   H4X20906   4.440   6.034   5.494  2.0803 -3.1856  0.9846
  182POPC   H4Y20907   4.608   6.021   5.529 -1.5303 -1.4881  0.8349
  182POPC   C3520908   4.553   6.210   5.436  0.7198  0.1535  0.3790
  182POPC   H5X20909   4.649   6.265   5.449  1.6391 -1.5925  1.3762
  182POPC   H5Y20910   4.472   6.283   5.457  0.5709  0.6450 -1.6620
  182POPC   C3620911   4.537   6.170   5.289  0.6430  0.3299 -0.8881
  182POPC   H6X20912   4.433   6.130   5.282 -0.0914  1.9253  0.0836
  182POPC   H6Y20913   4.607   6.087   5.267  0.3719 -0.1716  0.0480
  182POPC   C3720914   4.571   6.284   5.194 -0.4923  0.0333  0.2720
  182POPC   H7X20915   4.679   6.310   5.202  0.0966 -1.7856 -0.8938
  182POPC   H7Y20916   4.506   6.372   5.209 -0.8338 -0.2557  0.4985
  182POPC   C3820917   4.566   6.231   5.048  0.0152  0.2489  0.8862
  182POPC   H8X20918   4.461   6.201   5.028  0.1101  1.1030 -1.1907
  182POPC   H8Y20919   4.636   6.146   5.035 -1.0361 -0.6889  1.1818
  182POPC   C3920920   4.617   6.330   4.943  0.8910 -0.2744  0.1703
  182POPC   H9X20921   4.722   6.356   4.967  0.7982 -0.7924  1.1776
  182POPC   H9Y20922   4.559   6.425   4.952 -1.3930 -1.2352 -2.7618
  182POPC  C31020923   4.604   6.276   4.806 -0.2471  0.3189 -0.1893
  182POPC  H10X20924   4.513   6.212   4.803  0.6058 -0.8807 -2.2906
  182POPC  H10Y20925   4.685   6.202   4.789 -2.5116 -1.9959 -1.8322
  182POPC  C31120926   4.610   6.383   4.694  0.1303 -0.3172  0.1333
  182POPC  H11X20927   4.695   6.449   4.723  1.6081 -1.5339 -1.2530
  182POPC  H11Y20928   4.517   6.444   4.693  0.9607  1.0144  0.9166
  182POPC  C31220929   4.629   6.327   4.551 -0.6953  0.8329 -0.1121
  182POPC  H12X20930   4.568   6.237   4.530  0.7562  0.0850 -1.3890
  182POPC  H12Y20931   4.735   6.293   4.552 -1.0546 -0.3594 -0.7973
  182POPC  C31320932   4.601   6.443   4.450  0.1838 -0.0246  0.1098
  182POPC  H13X20933   4.651   6.534   4.491 -2.4098  1.8083 -0.5500
  182POPC  H13Y20934   4.493   6.470   4.452  0.3331  0.7156 -1.0679
  182POPC  C31420935   4.647   6.406   4.307  0.1492 -0.4504  0.5207
  182POPC  H14X20936   4.607   6.306   4.278  0.6615 -0.8078  1.0130
  182POPC  H14Y20937   4.758   6.401   4.298  0.1509 -0.3816  0.5038
  182POPC  C31520938   4.601   6.512   4.210 -0.1636  0.1144  0.0505
  182POPC  H15X20939   4.491   6.514   4.221 -0.1007  1.6108  0.6979
  182POPC  H15Y20940   4.624   6.477   4.108  3.5360  1.5052  0.2187
  182POPC  C31620941   4.666   6.652   4.234 -0.1363 -0.3611 -0.3426
  182POPC  H16X20942   4.620   6.713   4.154 -1.2176 -1.3017 -0.4631
  182POPC  H16Y20943   4.775   6.662   4.218 -0.0557  2.6535  1.3637
  182POPC  H16Z20944   4.633   6.691   4.333 -0.8435  1.8028 -1.3787
  183POPC     N20945   6.551   0.596   6.584 -0.0323  0.0508 -0.0165
  183POPC   C1220946   6.482   0.567   6.447 -0.2796  1.1181 -0.8248
  183POPC  H12A20947   6.469   0.460   6.439 -1.1577  1.1177  0.3745
  183POPC  H12B20948   6.559   0.607   6.382  1.8706  1.2443  1.6297
  183POPC   C1320949   6.594   0.742   6.569  0.1043 -0.0107  0.1369
  183POPC  H13A20950   6.508   0.807   6.582 -0.0520 -0.4505  1.4657
  183POPC  H13B20951   6.675   0.769   6.635  0.4101  1.4129 -0.7927
  183POPC  H13C20952   6.619   0.774   6.469 -0.8185  0.3199 -0.0029
  183POPC   C1420953   6.456   0.588   6.701 -0.3034 -0.1781  0.8511
  183POPC  H14A20954   6.505   0.633   6.785 -0.2983 -0.8297  1.2052
  183POPC  H14B20955   6.371   0.652   6.685 -1.5685 -1.6040  1.6687
  183POPC  H14C20956   6.434   0.484   6.722 -1.1595 -0.4874 -1.2513
  183POPC   C1520957   6.667   0.506   6.608 -0.2309  0.8422 -0.2735
  183POPC  H15A20958   6.738   0.519   6.528  1.6095  0.5498  1.2276
  183POPC  H15B20959   6.630   0.404   6.610  1.4629  0.1996  0.9708
  183POPC  H15C20960   6.720   0.522   6.701  0.1031 -0.6894 -0.1738
  183POPC   C1120961   6.347   0.646   6.413 -0.9720  0.3754 -0.3292
  183POPC  H11A20962   6.337   0.625   6.304 -1.2428 -0.4051 -0.1577
  183POPC  H11B20963   6.377   0.751   6.433  0.1940 -0.6487  4.6593
  183POPC     P20964   6.115   0.531   6.444  0.0699 -0.2696 -0.1003
  183POPC   O1320965   6.016   0.620   6.372 -0.0226 -0.0112 -0.8396
  183POPC   O1420966   6.068   0.451   6.559 -0.3958  0.3845 -0.0955
  183POPC   O1220967   6.240   0.609   6.491  0.3683  0.0465  0.1011
  183POPC   O1120968   6.173   0.432   6.335 -0.1505  0.5456  0.1059
  183POPC    C120969   6.085   0.337   6.285  0.0734  0.1682 -0.3057
  183POPC    HA20970   5.977   0.362   6.288 -0.5576 -2.1058 -1.1494
  183POPC    HB20971   6.093   0.238   6.336 -2.4796 -0.3409 -0.7242
  183POPC    C220972   6.101   0.312   6.129  0.0479 -0.6955 -0.1661
  183POPC    HS20973   6.190   0.249   6.108 -1.3853 -2.6437 -0.5951
  183POPC   O2120974   6.099   0.441   6.062 -0.3575 -0.4188  0.2954
  183POPC   C2120975   6.190   0.456   5.960 -0.6050  0.7329  0.0219
  183POPC   O2220976   6.266   0.368   5.929 -0.5762 -0.6091  0.3606
  183POPC   C2220977   6.194   0.597   5.905  0.4896 -0.2452 -0.7192
  183POPC   H2R20978   6.297   0.614   5.866 -0.0736 -0.4313 -2.3537
  183POPC   H2S20979   6.185   0.673   5.986 -1.7616 -2.0140  0.8299
  183POPC    C320980   5.975   0.245   6.076 -0.1718  0.0813  0.0016
  183POPC    HX20981   5.891   0.315   6.094 -0.6959  0.1252 -2.3000
  183POPC    HY20982   5.966   0.161   6.149  1.9106  0.9035  1.2819
  183POPC   O3120983   5.976   0.201   5.940  0.3041 -0.0911  0.1199
  183POPC   C3120984   6.037   0.090   5.906  0.3692 -0.5243 -1.0286
  183POPC   O3220985   6.071   0.006   5.987  0.1467 -0.1485 -0.3491
  183POPC   C3220986   6.055   0.079   5.760 -0.0132 -1.0182  0.2994
  183POPC   H2X20987   6.127   0.160   5.738 -0.0416 -0.1261  3.0683
  183POPC   H2Y20988   5.959   0.101   5.708  0.1157 -2.2633 -0.5152
  183POPC   C2320989   6.087   0.629   5.802 -0.2694 -0.8389 -0.2819
  183POPC   H3R20990   6.083   0.740   5.792  0.9486 -0.3184  3.6564
  183POPC   H3S20991   5.981   0.603   5.825 -0.7943  0.5637 -0.9447
  183POPC   C2420992   6.116   0.551   5.676 -0.2779 -0.2792 -0.1057
  183POPC   H4R20993   6.116   0.444   5.704  1.1343  0.0173  1.1341
  183POPC   H4S20994   6.214   0.589   5.642  0.0331  0.8667  1.8789
  183POPC   C2520995   5.997   0.558   5.577 -0.4036  0.1134 -0.0139
  183POPC   H5R20996   6.002   0.658   5.527 -0.7350  0.9685  1.6076
  183POPC   H5S20997   5.898   0.542   5.625 -1.1914  1.1690 -1.2095
  183POPC   C2620998   6.012   0.449   5.468  0.1175 -0.4401  0.6395
  183POPC   H6R20999   5.912   0.433   5.422  0.1025 -2.3752  1.2754
  183POPC   H6S21000   6.013   0.346   5.510 -0.7290 -1.5091 -1.7331
  183POPC   C2721001   6.124   0.475   5.361 -0.3572  0.4450  0.3016
  183POPC   H7R21002   6.216   0.484   5.422  1.3327 -0.8544 -1.8945
  183POPC   H7S21003   6.116   0.581   5.329 -0.9243  1.1425  2.6149
  183POPC   C2821004   6.157   0.369   5.262 -0.3583 -0.4460  0.2186
  183POPC   H8R21005   6.163   0.272   5.316  0.2411  0.4197  1.7878
  183POPC   H8S21006   6.255   0.387   5.212 -0.4282 -0.3308  0.1216
  183POPC   C2921007   6.046   0.354   5.167 -0.0441 -0.0636 -1.0939
  183POPC   H9121008   5.956   0.328   5.225 -0.3797  1.8651 -0.6797
  183POPC  C21021009   6.045   0.388   5.040 -0.1953  0.0802  0.3909
  183POPC  H10121010   5.952   0.362   4.988 -0.4683  0.3216  0.7545
  183POPC  C21121011   6.170   0.421   4.963  0.2225 -0.3172 -0.1565
  183POPC  H11R21012   6.241   0.337   4.951 -1.3248 -2.2069  2.7384
  183POPC  H11S21013   6.230   0.496   5.019 -0.0245  0.0582 -0.3890
  183POPC  C21221014   6.137   0.479   4.823  0.4000 -0.3623  0.8102
  183POPC  H12R21015   6.061   0.560   4.830 -0.6752 -0.9251 -2.4546
  183POPC  H12S21016   6.089   0.403   4.757  2.3401 -1.1026  0.1851
  183POPC  C21321017   6.259   0.525   4.741  0.6365  0.5590 -0.1025
  183POPC  H13R21018   6.333   0.441   4.747  0.4562  0.4835  1.7058
  183POPC  H13S21019   6.305   0.606   4.801  1.1552 -2.0704  3.4271
  183POPC  C21421020   6.237   0.573   4.591  0.0308 -0.1829 -0.5575
  183POPC  H14R21021   6.173   0.661   4.610  0.1289 -0.5965  2.0228
  183POPC  H14S21022   6.188   0.499   4.525  2.6158 -0.6780 -2.0664
  183POPC  C21521023   6.367   0.599   4.517 -0.4480  0.0805 -0.1672
  183POPC  H15R21024   6.348   0.610   4.408 -1.0753 -0.0580 -0.0769
  183POPC  H15S21025   6.428   0.507   4.521  1.0069  1.0498  1.5036
  183POPC  C21621026   6.445   0.720   4.580 -0.4094  0.0555 -0.1340
  183POPC  H16R21027   6.472   0.688   4.682 -3.5961  1.0693  1.1386
  183POPC  H16S21028   6.387   0.815   4.577 -1.1721 -0.4093 -1.9743
  183POPC  C21721029   6.582   0.735   4.515 -0.0910  0.1570 -0.2516
  183POPC  H17R21030   6.574   0.756   4.406  2.4975 -0.7968 -0.6954
  183POPC  H17S21031   6.626   0.633   4.513  1.5891  0.8619 -0.7879
  183POPC  C21821032   6.675   0.847   4.574  0.8738  0.0396 -0.3254
  183POPC  H18R21033   6.773   0.853   4.521  1.5270 -0.1169  0.8279
  183POPC  H18S21034   6.692   0.816   4.679  0.4661 -1.6243 -0.7337
  183POPC  H18T21035   6.625   0.947   4.572 -1.1597 -0.9338 -2.0869
  183POPC   C3321036   6.116  -0.056   5.715 -0.2580 -0.1320  0.6126
  183POPC   H3X21037   6.057  -0.145   5.744  0.3125 -0.2023  1.5949
  183POPC   H3Y21038   6.216  -0.061   5.763  0.6949  2.0974 -0.9493
  183POPC   C3421039   6.132  -0.051   5.562 -1.0297  0.0573 -0.5931
  183POPC   H4X21040   6.190   0.040   5.537 -0.1738 -0.4004 -0.3318
  183POPC   H4Y21041   6.040  -0.025   5.506  0.3130  1.4821 -2.2347
  183POPC   C3521042   6.210  -0.169   5.502 -0.1040  0.3319  0.2786
  183POPC   H5X21043   6.136  -0.251   5.514  0.1470 -0.1388 -1.2090
  183POPC   H5Y21044   6.291  -0.192   5.574  0.7541 -3.1882 -1.6188
  183POPC   C3621045   6.282  -0.144   5.364 -0.3784 -0.2490 -0.2761
  183POPC   H6X21046   6.355  -0.222   5.336  0.4286  0.2637  0.3354
  183POPC   H6Y21047   6.347  -0.055   5.376  1.1133 -1.2905 -0.3991
  183POPC   C3721048   6.191  -0.120   5.239 -0.5008  0.0151 -0.2177
  183POPC   H7X21049   6.114  -0.048   5.273  0.7077  0.8185  0.9063
  183POPC   H7Y21050   6.146  -0.221   5.224  1.1479 -0.5101 -2.0935
  183POPC   C3821051   6.256  -0.044   5.118 -0.1450  0.1907  0.5601
  183POPC   H8X21052   6.310   0.046   5.156 -0.6813  1.3217 -1.2026
  183POPC   H8Y21053   6.175  -0.018   5.047  1.6085 -0.5165 -1.8299
  183POPC   C3921054   6.358  -0.130   5.031 -0.3230 -0.6987  0.4377
  183POPC   H9X21055   6.306  -0.212   4.977 -4.2217  1.7940 -0.0210
  183POPC   H9Y21056   6.445  -0.173   5.084  0.5698  1.8559  1.2270
  183POPC  C31021057   6.430  -0.046   4.919  0.2349 -0.4857  0.0828
  183POPC  H10X21058   6.513  -0.100   4.869  0.6693  0.0897  0.1645
  183POPC  H10Y21059   6.458   0.057   4.950 -1.2981  0.6890 -2.1826
  183POPC  C31121060   6.320  -0.033   4.805  0.7268 -0.0637 -0.5389
  183POPC  H11X21061   6.231   0.019   4.848  0.9171 -1.8452  2.2805
  183POPC  H11Y21062   6.286  -0.133   4.770 -1.8739  0.7467 -0.5107
  183POPC  C31221063   6.367   0.054   4.692 -0.1421 -0.0306  0.3884
  183POPC  H12X21064   6.468   0.029   4.654 -0.3335 -1.6044  0.8459
  183POPC  H12Y21065   6.382   0.156   4.732  1.0834  0.4579 -1.1974
  183POPC  C31321066   6.269   0.070   4.571 -0.1646  0.6855  0.5028
  183POPC  H13X21067   6.167   0.093   4.609  1.0123  2.7171  2.6686
  183POPC  H13Y21068   6.258  -0.030   4.524  0.5879  1.0238 -0.4315
  183POPC  C31421069   6.323   0.160   4.456 -0.3648 -0.0123 -0.5950
  183POPC  H14X21070   6.424   0.127   4.421 -0.8901 -3.1206  0.4624
  183POPC  H14Y21071   6.306   0.265   4.487 -3.8420 -0.1503 -1.6038
  183POPC  C31521072   6.224   0.135   4.339  0.8252 -0.2900  0.1069
  183POPC  H15X21073   6.118   0.159   4.366 -0.5306 -1.0702 -3.8297
  183POPC  H15Y21074   6.230   0.031   4.301 -3.1886 -0.1277 -1.5322
  183POPC  C31621075   6.263   0.223   4.219 -0.8484 -0.3209 -0.3734
  183POPC  H16X21076   6.294   0.326   4.245 -0.5639 -0.7970  1.3105
  183POPC  H16Y21077   6.184   0.217   4.140 -0.2599 -0.8552 -0.9307
  183POPC  H16Z21078   6.357   0.186   4.174  0.2475  1.9126 -0.0342
  184POPC     N21079   0.333   6.740   6.731  0.4268 -0.7938 -0.3155
  184POPC   C1221080   0.183   6.754   6.726 -0.5241  0.5213 -0.1932
  184POPC  H12A21081   0.159   6.855   6.695  0.5896  0.8121 -0.1346
  184POPC  H12B21082   0.145   6.741   6.826 -0.6531 -1.4933 -0.4760
  184POPC   C1321083   0.396   6.714   6.593  0.5359  0.3320  0.4842
  184POPC  H13A21084   0.371   6.799   6.531  2.2719  0.6029  0.0974
  184POPC  H13B21085   0.504   6.714   6.588  0.5008  0.9965 -0.6752
  184POPC  H13C21086   0.358   6.624   6.548 -1.7220  1.1396  0.6591
  184POPC   C1421087   0.402   6.855   6.803 -0.1840  0.0928  0.3542
  184POPC  H14A21088   0.389   6.947   6.748 -2.3200 -0.0911  0.4815
  184POPC  H14B21089   0.349   6.873   6.895  1.5595 -1.3773  1.7256
  184POPC  H14C21090   0.501   6.827   6.836  0.1554  0.3059 -0.4695
  184POPC   C1521091   0.380   6.620   6.810  0.1907 -0.4640 -0.3744
  184POPC  H15A21092   0.353   6.630   6.914  0.2844 -0.0553 -0.3887
  184POPC  H15B21093   0.488   6.617   6.807  0.5431  0.9186  3.9640
  184POPC  H15C21094   0.331   6.529   6.778 -0.5858 -0.0349 -0.4169
  184POPC   C1121095   0.096   6.653   6.644 -0.2184  0.3194 -0.6840
  184POPC  H11A21096   0.102   6.685   6.537 -0.3166  0.8265 -0.5410
  184POPC  H11B21097  -0.011   6.668   6.671 -0.0159 -1.7097  1.5198
  184POPC     P21098   0.169   6.408   6.570 -0.0125  0.0386  0.1560
  184POPC   O1321099   0.049   6.345   6.515  0.5917  0.6569 -0.2353
  184POPC   O1421100   0.276   6.325   6.625 -0.5144  0.5687 -0.0896
  184POPC   O1221101   0.129   6.523   6.671  0.1956 -0.4473  0.5322
  184POPC   O1121102   0.244   6.493   6.456  0.2162 -0.0731 -0.6170
  184POPC    C121103   0.294   6.411   6.340  0.3142  0.1073 -0.2852
  184POPC    HA21104   0.207   6.392   6.273  0.2917  1.0227 -0.5358
  184POPC    HB21105   0.331   6.310   6.368  0.2179  0.6787  2.0400
  184POPC    C221106   0.402   6.486   6.275 -0.0788 -0.7107 -1.0622
  184POPC    HS21107   0.375   6.592   6.256  0.1710 -0.1199  1.4573
  184POPC   O2121108   0.430   6.434   6.142  0.2984 -0.0404 -0.2587
  184POPC   C2121109   0.365   6.494   6.039 -0.2338 -0.5145  0.1083
  184POPC   O2221110   0.278   6.576   6.048 -0.0355 -0.2294 -0.4519
  184POPC   C2221111   0.420   6.445   5.904  0.1794 -0.4289  0.0127
  184POPC   H2R21112   0.398   6.336   5.915  4.7923 -1.5287  0.5228
  184POPC   H2S21113   0.531   6.454   5.901  0.0815  0.9877 -0.0121
  184POPC    C321114   0.533   6.477   6.358  0.0069 -0.3638 -0.0831
  184POPC    HX21115   0.547   6.369   6.379  2.4586 -1.1361 -4.3592
  184POPC    HY21116   0.512   6.531   6.452  0.4048 -0.4467  0.0564
  184POPC   O3121117   0.647   6.534   6.287  0.4519 -0.6283  0.4398
  184POPC   C3121118   0.660   6.661   6.287  0.1220 -0.0358 -0.2388
  184POPC   O3221119   0.582   6.740   6.337 -0.7170  0.0246 -0.7384
  184POPC   C3221120   0.787   6.696   6.214  0.1048 -0.0189  0.2770
  184POPC   H2X21121   0.836   6.604   6.177 -2.2293 -1.4213  0.4749
  184POPC   H2Y21122   0.845   6.757   6.286 -0.4562  0.4729  0.3251
  184POPC   C2321123   0.352   6.528   5.793  0.4719 -0.0903  0.3005
  184POPC   H3R21124   0.390   6.632   5.803 -0.0031  0.1674 -0.4132
  184POPC   H3S21125   0.241   6.528   5.807  0.4687 -1.2084  0.3538
  184POPC   C2421126   0.402   6.493   5.651 -0.4240  0.3180  0.7186
  184POPC   H4R21127   0.416   6.384   5.636 -1.5993  0.3300 -0.6838
  184POPC   H4S21128   0.505   6.533   5.647 -1.4386  3.1379  0.5822
  184POPC   C2521129   0.326   6.552   5.537  0.4227 -0.0584  0.8298
  184POPC   H5R21130   0.344   6.662   5.527 -0.9572  0.2802  1.7669
  184POPC   H5S21131   0.226   6.540   5.584  0.9443 -1.2262  1.6709
  184POPC   C2621132   0.329   6.482   5.402 -0.7649 -0.0068 -0.0729
  184POPC   H6R21133   0.324   6.372   5.417 -1.6972  0.0827  0.3867
  184POPC   H6S21134   0.422   6.511   5.350 -0.5790  0.7245  0.6379
  184POPC   C2721135   0.210   6.534   5.322 -0.8560 -0.4546 -0.7676
  184POPC   H7R21136   0.247   6.636   5.299  1.9401 -1.7783 -2.6667
  184POPC   H7S21137   0.131   6.533   5.400 -2.1177  0.4218 -1.9846
  184POPC   C2821138   0.169   6.449   5.204 -0.7961 -0.3638  0.0020
  184POPC   H8R21139   0.142   6.526   5.128  2.3943 -0.6506 -1.6197
  184POPC   H8S21140   0.082   6.386   5.228 -0.7670 -0.1410  0.7050
  184POPC   C2921141   0.289   6.380   5.139  0.4795 -0.6692 -0.8438
  184POPC   H9121142   0.383   6.437   5.141 -0.3409  0.7788 -1.7424
  184POPC  C21021143   0.282   6.264   5.075  0.0888  0.1740 -0.5367
  184POPC  H10121144   0.372   6.231   5.020  2.1202  2.1949  1.3510
  184POPC  C21121145   0.149   6.191   5.049 -0.1961 -0.3166 -0.0569
  184POPC  H11R21146   0.082   6.190   5.137 -0.7455 -1.1660 -0.4774
  184POPC  H11S21147   0.166   6.087   5.013  0.7598  0.1919 -1.1657
  184POPC  C21221148   0.063   6.271   4.940  0.1082  0.6082 -1.3802
  184POPC  H12R21149   0.034   6.367   4.988 -0.3039 -0.3872  0.4245
  184POPC  H12S21150  -0.034   6.219   4.930  0.3303 -0.3951  1.0691
  184POPC  C21321151   0.139   6.273   4.808 -0.5793 -0.2908  0.5112
  184POPC  H13R21152   0.168   6.171   4.773 -1.0358 -0.4085  0.4747
  184POPC  H13S21153   0.229   6.337   4.823 -0.7209 -0.6799  3.4539
  184POPC  C21421154   0.056   6.338   4.692 -0.1167 -0.4144  0.0085
  184POPC  H14R21155   0.130   6.338   4.609  2.0183 -1.5863  1.7791
  184POPC  H14S21156   0.036   6.443   4.723  1.3131  0.2225 -1.1145
  184POPC  C21521157  -0.076   6.258   4.668 -0.1361  0.3980 -0.5298
  184POPC  H15R21158  -0.165   6.296   4.723  1.5943 -0.8378  3.5271
  184POPC  H15S21159  -0.067   6.158   4.717  0.9539  0.9188  0.3755
  184POPC  C21621160  -0.101   6.260   4.517  0.4312  0.3408  0.5765
  184POPC  H16R21161  -0.016   6.244   4.446  0.0488 -2.8392  0.6686
  184POPC  H16S21162  -0.154   6.354   4.494  0.5248 -0.2027 -2.3171
  184POPC  C21721163  -0.182   6.137   4.478  0.4861  0.5052 -0.9347
  184POPC  H17R21164  -0.225   6.146   4.376  3.3031 -2.6566 -2.6106
  184POPC  H17S21165  -0.266   6.118   4.547  2.9976 -0.9375  1.9710
  184POPC  C21821166  -0.104   6.005   4.473 -0.1015 -0.0112 -0.1523
  184POPC  H18R21167  -0.159   5.921   4.425  0.5898  1.4886 -3.9002
  184POPC  H18S21168  -0.072   5.973   4.575  0.2900 -2.6024 -1.0227
  184POPC  H18T21169  -0.004   6.012   4.425  1.4521  1.8952  3.0051
  184POPC   C3321170   0.757   6.789   6.088 -0.4544  0.9144  0.4266
  184POPC   H3X21171   0.856   6.824   6.051  0.9079 -0.7922  2.2209
  184POPC   H3Y21172   0.692   6.875   6.114 -1.8279 -0.5709  2.1855
  184POPC   C3421173   0.702   6.720   5.961 -0.0837  0.1267 -0.0255
  184POPC   H4X21174   0.593   6.706   5.976 -0.7485 -0.1553 -4.1076
  184POPC   H4Y21175   0.739   6.617   5.944 -0.3788 -0.2186  1.3015
  184POPC   C3521176   0.747   6.803   5.844 -0.6550 -0.7901  0.0963
  184POPC   H5X21177   0.857   6.798   5.828 -0.4549 -0.4996  1.2889
  184POPC   H5Y21178   0.730   6.911   5.866  0.3217 -0.1537 -2.0572
  184POPC   C3621179   0.678   6.755   5.717 -0.6474 -0.1116  0.4302
  184POPC   H6X21180   0.568   6.771   5.727 -0.5653  0.7876  0.0001
  184POPC   H6Y21181   0.702   6.647   5.703  1.3225  0.0941  1.8274
  184POPC   C3721182   0.716   6.849   5.594 -1.1839  0.4086  0.5636
  184POPC   H7X21183   0.825   6.835   5.574 -1.5256 -0.4150 -0.8206
  184POPC   H7Y21184   0.703   6.955   5.626 -2.4338  0.7204 -0.8637
  184POPC   C3821185   0.642   6.819   5.469  0.2614 -0.1254  0.3745
  184POPC   H8X21186   0.535   6.798   5.491  0.2034 -1.1859 -0.7901
  184POPC   H8Y21187   0.671   6.716   5.440 -2.2632 -1.2252  1.4214
  184POPC   C3921188   0.669   6.924   5.353 -0.3121 -0.2195 -0.0640
  184POPC   H9X21189   0.623   7.020   5.383 -1.3206  0.0761 -2.3132
  184POPC   H9Y21190   0.615   6.882   5.265 -0.3011 -1.9818  0.7173
  184POPC  C31021191   0.816   6.946   5.320 -0.6081 -0.5746  0.0981
  184POPC  H10X21192   0.864   6.851   5.287  1.0059  0.1066  0.3631
  184POPC  H10Y21193   0.872   6.988   5.407 -0.7312 -0.8432  0.3075
  184POPC  C31121194   0.836   7.037   5.198  0.0212  0.4286  0.3834
  184POPC  H11X21195   0.944   7.039   5.169  0.0834 -0.1746  0.5507
  184POPC  H11Y21196   0.806   7.139   5.229 -0.9028  0.0225  0.8635
  184POPC  C31221197   0.756   6.997   5.072 -0.2152  0.1058 -1.0229
  184POPC  H12X21198   0.656   7.046   5.073  1.0938  3.0776  1.1676
  184POPC  H12Y21199   0.749   6.887   5.086 -2.1781  0.2692 -0.5010
  184POPC  C31321200   0.824   7.023   4.937 -0.2499 -0.6686 -0.5551
  184POPC  H13X21201   0.929   6.988   4.951  0.3431  1.6318  1.5836
  184POPC  H13Y21202   0.844   7.132   4.926 -0.9339 -0.4886 -0.0660
  184POPC  C31421203   0.749   6.985   4.802  0.5947 -0.6515 -0.1781
  184POPC  H14X21204   0.808   7.003   4.710 -0.6048 -1.3456 -1.0996
  184POPC  H14Y21205   0.660   7.050   4.787 -0.7008 -1.3615  3.4032
  184POPC  C31521206   0.713   6.842   4.794  0.0527  0.1608  0.3252
  184POPC  H15X21207   0.658   6.818   4.887 -0.7298  3.1116  0.7340
  184POPC  H15Y21208   0.798   6.770   4.794  0.1319  0.2262 -1.0576
  184POPC  C31621209   0.647   6.810   4.658  0.0841  0.1390  0.0424
  184POPC  H16X21210   0.621   6.702   4.649  0.0423  0.2075 -0.7455
  184POPC  H16Y21211   0.705   6.820   4.564 -2.0069  0.7705 -1.2476
  184POPC  H16Z21212   0.555   6.871   4.645 -1.1350 -1.5543  0.2943
  185POPC     N21213   4.314   4.688   2.054 -0.0214  0.0717 -0.5122
  185POPC   C1221214   4.220   4.799   2.100 -0.1281  0.1535  0.2340
  185POPC  H12A21215   4.167   4.774   2.191 -1.4688 -1.5396 -0.9493
  185POPC  H12B21216   4.145   4.802   2.023 -1.6677 -0.4908  1.6603
  185POPC   C1321217   4.373   4.696   1.906 -0.3565 -0.1972 -0.1715
  185POPC  H13A21218   4.298   4.650   1.844 -0.1153 -1.6318  0.5614
  185POPC  H13B21219   4.387   4.799   1.876 -0.6205 -0.8040 -2.5710
  185POPC  H13C21220   4.466   4.645   1.888 -0.3299 -0.5194  0.7824
  185POPC   C1421221   4.424   4.683   2.155  0.2662  0.3713  0.1576
  185POPC  H14A21222   4.482   4.774   2.150 -1.1184  1.2635 -0.2043
  185POPC  H14B21223   4.382   4.667   2.253  1.2762  1.2228  0.7472
  185POPC  H14C21224   4.493   4.602   2.135 -1.3948 -0.5776 -2.2190
  185POPC   C1521225   4.239   4.558   2.066 -0.7536 -0.4391  0.0572
  185POPC  H15A21226   4.168   4.534   1.988  0.6445  1.0069 -1.7612
  185POPC  H15B21227   4.191   4.563   2.162 -1.5160  1.7147 -0.3904
  185POPC  H15C21228   4.302   4.470   2.062 -0.3164 -0.1469  0.4588
  185POPC   C1121229   4.269   4.944   2.109  0.3005  0.0847  0.0125
  185POPC  H11A21230   4.361   4.947   2.170  1.8348 -2.1819 -2.0344
  185POPC  H11B21231   4.187   4.997   2.163  0.5895 -1.8036  2.5014
  185POPC     P21232   4.183   5.069   1.901  0.1889  0.0683  0.1320
  185POPC   O1321233   4.095   4.954   1.862 -0.5200 -0.1876  0.3942
  185POPC   O1421234   4.244   5.155   1.795  0.0284  0.1382 -0.0022
  185POPC   O1221235   4.301   5.011   1.986 -0.0797  0.1190 -0.4537
  185POPC   O1121236   4.093   5.152   1.993  0.5269 -0.0085  0.1383
  185POPC    C121237   4.123   5.274   2.063 -0.2461  0.5358 -0.0936
  185POPC    HA21238   4.039   5.346   2.058 -1.4828 -0.8062  0.6952
  185POPC    HB21239   4.220   5.309   2.021 -1.0460  1.0446 -1.5741
  185POPC    C221240   4.155   5.255   2.208  0.4950 -0.2829 -0.6845
  185POPC    HS21241   4.253   5.204   2.208  0.2783 -0.7096 -0.3793
  185POPC   O2121242   4.034   5.184   2.268 -0.2081  0.0924  0.1802
  185POPC   C2121243   4.067   5.118   2.366 -0.0513  0.4897 -0.0912
  185POPC   O2221244   4.174   5.109   2.421 -0.3411 -0.1763 -0.5543
  185POPC   C2221245   3.944   5.036   2.406 -0.7914  0.0304 -0.5467
  185POPC   H2R21246   3.966   4.930   2.380  0.4726 -0.2656  1.4942
  185POPC   H2S21247   3.862   5.067   2.338 -0.2456  1.6278 -0.5244
  185POPC    C321248   4.162   5.397   2.279  0.2612  0.0059 -0.3796
  185POPC    HX21249   4.061   5.443   2.269  0.7681  1.0914 -0.6193
  185POPC    HY21250   4.226   5.462   2.215 -1.2519  1.5992 -0.3701
  185POPC   O3121251   4.202   5.395   2.417  0.1645  0.0543 -0.1720
  185POPC   C3121252   4.127   5.436   2.513  0.3760 -0.1183  0.3496
  185POPC   O3221253   4.012   5.477   2.498  0.5473  0.1640 -0.2584
  185POPC   C3221254   4.199   5.430   2.647 -0.9051 -0.0663 -0.2980
  185POPC   H2X21255   4.131   5.455   2.731 -2.1209 -1.7213 -0.7454
  185POPC   H2Y21256   4.279   5.507   2.645  0.1908 -1.1736 -2.2689
  185POPC   C2321257   3.904   5.041   2.556 -0.3114  0.5366 -0.5165
  185POPC   H3R21258   3.870   5.145   2.577 -1.1842 -0.0811  1.3335
  185POPC   H3S21259   3.987   5.017   2.626 -0.3611  2.2089  0.1442
  185POPC   C2421260   3.792   4.939   2.579 -0.8547  0.1533 -0.3135
  185POPC   H4R21261   3.824   4.848   2.522  2.9597  1.2175 -0.1585
  185POPC   H4S21262   3.693   4.977   2.547 -2.9884 -2.5485  2.4919
  185POPC   C2521263   3.770   4.881   2.724 -0.3876 -0.5978  1.2012
  185POPC   H5R21264   3.871   4.847   2.756  0.5116  1.5242  0.8187
  185POPC   H5S21265   3.712   4.787   2.714  1.3520 -1.5157 -1.6582
  185POPC   C2621266   3.705   4.986   2.815  0.6470 -0.2107 -0.4441
  185POPC   H6R21267   3.605   5.018   2.778  0.4042  0.3094  0.5987
  185POPC   H6S21268   3.775   5.072   2.809  2.3026 -1.4930 -0.2036
  185POPC   C2721269   3.683   4.937   2.961  0.6220 -1.0141  0.2010
  185POPC   H7R21270   3.619   4.846   2.957  1.0305 -1.3897 -5.1392
  185POPC   H7S21271   3.625   5.017   3.011  1.6294 -0.6322  0.7869
  185POPC   C2821272   3.816   4.929   3.033 -0.0714  0.9393 -0.0938
  185POPC   H8R21273   3.877   5.020   3.014  1.3026  0.0531 -0.1260
  185POPC   H8S21274   3.878   4.845   2.994 -0.5067  0.0646  1.0364
  185POPC   C2921275   3.790   4.907   3.183  0.0529  0.0610  0.0645
  185POPC   H9121276   3.726   4.984   3.229  1.0151  0.7927  0.2119
  185POPC  C21021277   3.839   4.806   3.260 -0.3329  0.0255 -0.1000
  185POPC  H10121278   3.823   4.793   3.368  2.2562 -1.4812  0.2038
  185POPC  C21121279   3.929   4.693   3.205 -0.3891 -0.2464  0.4551
  185POPC  H11R21280   4.026   4.688   3.259 -0.0904  0.3619 -0.0075
  185POPC  H11S21281   3.948   4.713   3.097 -0.3005  0.4154  0.5905
  185POPC  C21221282   3.870   4.557   3.195  0.1667 -0.4927 -0.1031
  185POPC  H12R21283   3.835   4.537   3.299  2.5587  0.1154  0.8930
  185POPC  H12S21284   3.951   4.485   3.172 -0.5651 -0.1806 -4.5245
  185POPC  C21321285   3.756   4.542   3.097 -0.1471 -0.0947 -0.4032
  185POPC  H13R21286   3.669   4.608   3.119 -0.3631 -0.4145 -0.2944
  185POPC  H13S21287   3.724   4.438   3.121 -1.7154  0.2700 -0.8018
  185POPC  C21421288   3.805   4.542   2.950  0.1345  0.0134  0.0709
  185POPC  H14R21289   3.909   4.509   2.933 -0.9052 -2.0345 -3.2413
  185POPC  H14S21290   3.792   4.644   2.907 -0.1888  0.3026  0.8262
  185POPC  C21521291   3.718   4.456   2.853 -0.5722  0.0235 -0.0784
  185POPC  H15R21292   3.715   4.351   2.888  0.7655  0.3107  0.9958
  185POPC  H15S21293   3.766   4.461   2.752  0.1128  0.4996  0.2653
  185POPC  C21621294   3.579   4.507   2.835 -0.2947  0.3464 -0.6547
  185POPC  H16R21295   3.585   4.612   2.798  0.4661  0.2904 -0.7000
  185POPC  H16S21296   3.526   4.506   2.933 -0.4959 -1.7421 -0.7359
  185POPC  C21721297   3.496   4.434   2.726  0.7644 -0.6402 -0.4845
  185POPC  H17R21298   3.480   4.325   2.744 -1.4958 -0.2255  0.3198
  185POPC  H17S21299   3.553   4.452   2.632 -0.7644  0.1637 -1.2841
  185POPC  C21821300   3.358   4.493   2.715  0.2598 -0.9205  0.1889
  185POPC  H18R21301   3.317   4.457   2.619  0.3686 -0.2799 -0.1048
  185POPC  H18S21302   3.355   4.604   2.715 -0.1410 -0.9310 -0.0085
  185POPC  H18T21303   3.304   4.464   2.808  3.1061 -0.5224  2.1086
  185POPC   C3321304   4.256   5.293   2.686  0.4874  0.4594  0.0920
  185POPC   H3X21305   4.316   5.251   2.601  0.7003 -0.4445  0.6750
  185POPC   H3Y21306   4.176   5.218   2.705  1.5841 -0.1242  2.9065
  185POPC   C3421307   4.362   5.295   2.802  0.2471  0.2008  0.9645
  185POPC   H4X21308   4.461   5.331   2.767  0.9812 -2.8122 -0.4523
  185POPC   H4Y21309   4.394   5.189   2.810  0.7837  0.1170 -1.4309
  185POPC   C3521310   4.323   5.350   2.932  0.0669  0.1548 -0.0198
  185POPC   H5X21311   4.258   5.275   2.981  2.5817 -1.5462  0.9581
  185POPC   H5Y21312   4.277   5.450   2.919  1.8205  1.2790  1.8552
  185POPC   C3621313   4.452   5.361   3.020  0.0945 -0.3305 -0.5360
  185POPC   H6X21314   4.523   5.431   2.971  2.2632 -2.4660 -0.6392
  185POPC   H6Y21315   4.496   5.259   3.027 -0.2469 -0.4243  0.5627
  185POPC   C3721316   4.425   5.406   3.164 -0.3076 -0.1292  0.2982
  185POPC   H7X21317   4.518   5.389   3.223 -0.6555 -1.3224  0.5380
  185POPC   H7Y21318   4.346   5.337   3.200  1.0590 -1.7505  0.3443
  185POPC   C3821319   4.396   5.556   3.171 -0.0047 -0.0678 -0.0891
  185POPC   H8X21320   4.300   5.584   3.124  0.6890  0.7682 -1.0541
  185POPC   H8Y21321   4.477   5.615   3.123  2.0319 -1.3126  1.6293
  185POPC   C3921322   4.394   5.600   3.314  0.4951 -0.2396 -0.3040
  185POPC   H9X21323   4.494   5.626   3.355  0.3891 -0.3522  0.0345
  185POPC   H9Y21324   4.348   5.522   3.379 -0.4806 -0.8039 -1.6244
  185POPC  C31021325   4.313   5.727   3.352 -0.0404  0.8837  1.4756
  185POPC  H10X21326   4.210   5.719   3.313 -0.0749 -1.9371  1.9835
  185POPC  H10Y21327   4.350   5.815   3.295  1.4469 -0.2489  0.6152
  185POPC  C31121328   4.309   5.740   3.503 -0.1578 -0.0351  1.3359
  185POPC  H11X21329   4.319   5.850   3.517  1.6082  0.6782 -3.4836
  185POPC  H11Y21330   4.395   5.691   3.552 -0.7797  0.2770  2.8174
  185POPC  C31221331   4.177   5.701   3.579 -0.3534  0.0201  0.2324
  185POPC  H12X21332   4.137   5.608   3.535 -1.6633  2.0316 -3.2793
  185POPC  H12Y21333   4.097   5.778   3.569 -0.1496  0.1472 -0.4870
  185POPC  C31321334   4.210   5.707   3.724 -0.6677  0.0073 -0.7098
  185POPC  H13X21335   4.232   5.814   3.747 -0.7050  0.1044 -1.1272
  185POPC  H13Y21336   4.304   5.656   3.754 -0.8532 -0.5114 -0.9959
  185POPC  C31421337   4.103   5.656   3.816 -0.0694 -0.1179 -0.0556
  185POPC  H14X21338   4.064   5.555   3.793  0.5947 -0.0341 -1.7123
  185POPC  H14Y21339   4.019   5.729   3.821 -0.4728 -0.6105  0.3994
  185POPC  C31521340   4.153   5.651   3.959 -0.4842 -0.0714  0.0040
  185POPC  H15X21341   4.230   5.571   3.954  1.5212  1.7675 -0.1342
  185POPC  H15Y21342   4.070   5.618   4.025 -0.3481 -2.1696 -0.7809
  185POPC  C31621343   4.210   5.776   4.019 -0.2870 -0.1261  0.1606
  185POPC  H16X21344   4.262   5.753   4.115  1.2741  1.0116 -0.3674
  185POPC  H16Y21345   4.135   5.854   4.041 -1.1243 -0.0035 -2.7718
  185POPC  H16Z21346   4.292   5.825   3.961  0.0911 -0.9233 -0.0011
  186POPC     N21347   5.394   2.097   2.077 -0.2834 -0.3767  0.5572
  186POPC   C1221348   5.479   2.179   1.977  0.1573  0.5379 -0.0948
  186POPC  H12A21349   5.485   2.280   2.015  1.2138 -0.5246  2.8437
  186POPC  H12B21350   5.432   2.175   1.880 -1.9171 -1.3803  0.8889
  186POPC   C1321351   5.447   2.132   2.218  0.2481 -0.0184  0.0231
  186POPC  H13A21352   5.423   2.233   2.246  1.4188 -0.7003  4.0971
  186POPC  H13B21353   5.397   2.068   2.288  0.8673  2.3251  2.7781
  186POPC  H13C21354   5.552   2.105   2.223 -0.2647 -3.0571 -2.2157
  186POPC   C1421355   5.253   2.140   2.079 -0.1846  0.7239  0.4779
  186POPC  H14A21356   5.211   2.112   1.983  0.4478  0.6858  0.2020
  186POPC  H14B21357   5.212   2.083   2.161 -1.4305 -1.8527 -1.7741
  186POPC  H14C21358   5.251   2.246   2.101  1.5169  0.2226  3.7179
  186POPC   C1521359   5.391   1.945   2.068  0.2387  0.5406  0.5072
  186POPC  H15A21360   5.491   1.906   2.073  0.0088  0.0795  2.2197
  186POPC  H15B21361   5.348   1.924   1.971 -1.4274  2.0924  0.8483
  186POPC  H15C21362   5.334   1.905   2.150 -0.1418 -0.3879 -0.1998
  186POPC   C1121363   5.633   2.135   1.962 -0.4049 -0.5977 -0.3750
  186POPC  H11A21364   5.670   2.143   2.067 -1.4993 -3.0308  0.2498
  186POPC  H11B21365   5.693   2.203   1.896  1.8022 -0.8662  1.2250
  186POPC     P21366   5.744   1.898   1.973 -0.0618 -0.5173  0.5357
  186POPC   O1321367   5.801   1.810   1.869  0.3603  0.0176  0.4347
  186POPC   O1421368   5.661   1.834   2.078  0.4114 -0.0266 -0.0535
  186POPC   O1221369   5.648   2.007   1.908  0.2175 -0.7302 -0.0146
  186POPC   O1121370   5.853   1.967   2.057  0.1128 -0.4088  0.6474
  186POPC    C121371   5.935   1.907   2.157  0.3336  0.3558  0.4252
  186POPC    HA21372   6.032   1.961   2.155  0.4297  0.2296  1.3737
  186POPC    HB21373   5.953   1.801   2.129  1.3066  0.5857  0.1506
  186POPC    C221374   5.889   1.920   2.305 -0.5686  0.4652 -0.1673
  186POPC    HS21375   5.778   1.912   2.306 -0.6490  1.4464  0.9585
  186POPC   O2121376   5.918   2.046   2.375 -0.4036  0.6648 -0.4104
  186POPC   C2121377   5.822   2.130   2.405 -0.6112 -0.3404 -0.5102
  186POPC   O2221378   5.699   2.123   2.382 -0.0417 -0.6426 -0.0227
  186POPC   C2221379   5.876   2.263   2.465  0.4717 -0.8367  0.0933
  186POPC   H2R21380   5.883   2.332   2.379  0.3231  0.9633  1.4681
  186POPC   H2S21381   5.981   2.231   2.484  0.5402 -0.0964  1.0497
  186POPC    C321382   5.943   1.808   2.393 -0.8937 -0.0420  0.3493
  186POPC    HX21383   6.054   1.808   2.388 -0.6545 -1.9892  3.3181
  186POPC    HY21384   5.903   1.721   2.337 -0.8928  1.0080 -1.3903
  186POPC   O3121385   5.899   1.816   2.529  0.4251  0.6020  0.4495
  186POPC   C3121386   5.996   1.836   2.618  0.5069  0.9278  0.0725
  186POPC   O3221387   6.114   1.854   2.591 -0.4016  0.3002 -0.0023
  186POPC   C3221388   5.942   1.832   2.754  0.6323  0.3417 -0.3390
  186POPC   H2X21389   5.894   1.735   2.779 -1.0718  1.2142 -0.0795
  186POPC   H2Y21390   5.858   1.904   2.755 -0.6726 -1.1258 -0.7044
  186POPC   C2321391   5.808   2.311   2.599 -0.1681  0.1242  0.4933
  186POPC   H3R21392   5.698   2.303   2.585 -0.2337  1.5969  0.0129
  186POPC   H3S21393   5.816   2.422   2.606 -1.6461  0.1882  1.4632
  186POPC   C2421394   5.851   2.243   2.734  0.3019  1.0695 -0.0132
  186POPC   H4R21395   5.909   2.322   2.788  2.0601 -0.2169  0.0554
  186POPC   H4S21396   5.920   2.159   2.715  1.1833  2.1284 -1.8175
  186POPC   C2521397   5.730   2.203   2.824 -0.5736  0.4580  0.0512
  186POPC   H5R21398   5.745   2.119   2.895  0.8660 -1.0579 -1.9180
  186POPC   H5S21399   5.662   2.166   2.744  0.3835  0.6848 -0.8865
  186POPC   C2621400   5.671   2.319   2.902  0.9560 -0.5565  0.0985
  186POPC   H6R21401   5.579   2.283   2.954  0.0979  3.0721  1.3960
  186POPC   H6S21402   5.636   2.401   2.836  1.4623 -0.0444  0.4557
  186POPC   C2721403   5.758   2.382   3.014 -0.4185  0.4431  0.0068
  186POPC   H7R21404   5.686   2.445   3.071  0.3019  2.0511 -0.7934
  186POPC   H7S21405   5.826   2.460   2.974 -1.0420  0.2195 -1.5826
  186POPC   C2821406   5.835   2.275   3.102 -0.1084 -0.0980 -0.0304
  186POPC   H8R21407   5.909   2.207   3.055 -0.3135 -1.8247  2.0160
  186POPC   H8S21408   5.761   2.207   3.150 -0.6221 -0.7824 -1.7099
  186POPC   C2921409   5.915   2.353   3.204  0.2509  0.1302  0.3043
  186POPC   H9121410   6.003   2.409   3.170  0.5060 -0.3836  0.1046
  186POPC  C21021411   5.895   2.376   3.338 -0.3389 -0.0927  0.5856
  186POPC  H10121412   5.947   2.454   3.395 -0.5737 -0.1976  0.9450
  186POPC  C21121413   5.783   2.320   3.422  0.2729 -0.0391 -0.1594
  186POPC  H11R21414   5.818   2.299   3.525 -1.7128 -0.0371  0.5628
  186POPC  H11S21415   5.757   2.220   3.382  0.3959 -0.4224  0.6916
  186POPC  C21221416   5.656   2.409   3.410  0.0085  0.7693 -0.4357
  186POPC  H12R21417   5.564   2.367   3.457  0.4389 -2.4571 -2.1315
  186POPC  H12S21418   5.629   2.410   3.302 -1.6509 -0.6883 -0.0755
  186POPC  C21321419   5.666   2.550   3.475  0.1643 -0.2063  0.9741
  186POPC  H13R21420   5.595   2.617   3.422  1.8347  0.2412 -0.8041
  186POPC  H13S21421   5.765   2.600   3.468 -0.6375  1.4444  0.8796
  186POPC  C21421422   5.619   2.555   3.626  0.1277  0.0142 -0.4099
  186POPC  H14R21423   5.692   2.526   3.705  0.1321 -0.8979 -0.7321
  186POPC  H14S21424   5.536   2.482   3.638  2.0320 -2.0801  0.7640
  186POPC  C21521425   5.565   2.692   3.666  0.1321 -0.1307  0.3280
  186POPC  H15R21426   5.458   2.695   3.634 -0.2513 -0.2975  1.5541
  186POPC  H15S21427   5.622   2.770   3.613  2.7997 -1.9227  0.3734
  186POPC  C21621428   5.571   2.737   3.810  0.4833  0.4049 -0.2912
  186POPC  H16R21429   5.551   2.659   3.886  0.6526  1.2687  0.6681
  186POPC  H16S21430   5.487   2.807   3.831 -1.2548 -0.7650 -2.7679
  186POPC  C21721431   5.706   2.815   3.839  0.1814 -0.1213  0.4025
  186POPC  H17R21432   5.704   2.908   3.777 -0.0875 -1.6608 -2.0357
  186POPC  H17S21433   5.795   2.753   3.811  0.7952 -0.4388  2.8614
  186POPC  C21821434   5.722   2.846   3.991 -0.8844 -0.3988 -0.4382
  186POPC  H18R21435   5.631   2.894   4.034 -1.4066 -0.9563 -0.9055
  186POPC  H18S21436   5.741   2.750   4.043  0.2074 -0.8223 -1.5682
  186POPC  H18T21437   5.802   2.920   4.015 -2.2779  0.4720  1.9136
  186POPC   C3321438   6.049   1.871   2.863  0.4312  0.1830  0.2609
  186POPC   H3X21439   6.108   1.961   2.833 -1.0390  1.3992  0.8719
  186POPC   H3Y21440   6.108   1.779   2.879 -1.6548 -1.1558  0.7192
  186POPC   C3421441   5.984   1.899   3.004 -0.3262 -0.4759 -0.7572
  186POPC   H4X21442   5.900   1.832   3.032 -1.7159  1.8295  0.9127
  186POPC   H4Y21443   5.941   2.001   2.995  1.5405  0.4776  0.4894
  186POPC   C3521444   6.093   1.906   3.114  0.7988  0.3766 -0.3707
  186POPC   H5X21445   6.165   1.989   3.095  1.4803 -0.1669 -0.2328
  186POPC   H5Y21446   6.151   1.812   3.106 -0.7020 -0.6434  0.3788
  186POPC   C3621447   6.026   1.915   3.257 -0.4633  0.0380  0.4524
  186POPC   H6X21448   5.970   1.822   3.280 -3.9546  2.0687  0.9041
  186POPC   H6Y21449   5.960   2.004   3.247  1.1229  1.0491 -2.1358
  186POPC   C3721450   6.135   1.945   3.361  0.6723  0.4805 -0.7709
  186POPC   H7X21451   6.161   2.053   3.361  0.3351  0.5996  1.1221
  186POPC   H7Y21452   6.223   1.885   3.332  1.1801  0.8955 -0.1298
  186POPC   C3821453   6.088   1.914   3.507 -0.3164  0.4367  0.0221
  186POPC   H8X21454   6.030   1.820   3.516 -0.5191  0.6772  1.5233
  186POPC   H8Y21455   6.005   1.984   3.531 -0.2148  0.4292  0.3981
  186POPC   C3921456   6.193   1.942   3.615 -0.6456 -0.4623 -0.7463
  186POPC   H9X21457   6.237   2.039   3.584  0.7210 -0.9487 -0.3682
  186POPC   H9Y21458   6.268   1.860   3.606 -0.3610 -0.5194  1.5620
  186POPC  C31021459   6.141   1.965   3.758 -0.5756  0.0659 -0.1176
  186POPC  H10X21460   6.080   1.876   3.786 -1.8779  0.8310 -0.4376
  186POPC  H10Y21461   6.069   2.050   3.755  0.2480  0.7775  0.0742
  186POPC  C31121462   6.257   1.982   3.859 -0.0006 -1.8554  0.5839
  186POPC  H11X21463   6.302   2.084   3.851 -2.2168 -0.8805 -0.3835
  186POPC  H11Y21464   6.339   1.912   3.831  0.4769 -0.9829 -0.2931
  186POPC  C31221465   6.200   1.953   4.003 -0.1457  0.9447 -0.1785
  186POPC  H12X21466   6.149   1.855   3.996  0.8236  0.3588  0.5917
  186POPC  H12Y21467   6.133   2.039   4.023  0.5092  1.1638  1.2104
  186POPC  C31321468   6.312   1.963   4.107 -0.2649  0.5570  0.2307
  186POPC  H13X21469   6.387   2.042   4.084 -1.2874  1.5886  0.4033
  186POPC  H13Y21470   6.362   1.863   4.103 -2.1165 -0.4131  0.1108
  186POPC  C31421471   6.264   1.983   4.245  0.9319  0.1491 -0.1798
  186POPC  H14X21472   6.167   1.932   4.267  0.2903  0.7817 -1.4687
  186POPC  H14Y21473   6.235   2.090   4.249  0.6458  0.0396  2.1775
  186POPC  C31521474   6.357   1.937   4.366  0.7690 -0.2471  0.4548
  186POPC  H15X21475   6.462   1.967   4.347  1.2693 -1.9896  0.2957
  186POPC  H15Y21476   6.375   1.828   4.374  0.8983 -0.3782 -1.1881
  186POPC  C31621477   6.314   1.981   4.509  0.0615  0.2576 -0.4391
  186POPC  H16X21478   6.343   2.085   4.534 -1.2314  0.2951  1.0844
  186POPC  H16Y21479   6.363   1.913   4.583  1.9264 -0.2450 -2.0484
  186POPC  H16Z21480   6.204   1.972   4.518 -0.0553  0.7928 -1.2840
  187POPC     N21481   3.451   5.880   1.596 -0.1614  0.4380 -0.1099
  187POPC   C1221482   3.443   5.865   1.746  0.3876 -0.1465  0.3123
  187POPC  H12A21483   3.545   5.856   1.781  0.9398  1.6892 -0.7037
  187POPC  H12B21484   3.392   5.773   1.772 -0.8316  0.4245  0.0048
  187POPC   C1321485   3.539   5.768   1.547  0.3389 -0.4729 -0.4670
  187POPC  H13A21486   3.644   5.773   1.575  0.4516 -0.9034 -0.8077
  187POPC  H13B21487   3.505   5.673   1.584  4.0701 -1.8644 -0.1786
  187POPC  H13C21488   3.526   5.774   1.440 -2.0430  1.4441 -0.1463
  187POPC   C1421489   3.320   5.870   1.529  1.1165 -0.6266  0.3092
  187POPC  H14A21490   3.344   5.911   1.432 -1.6112 -0.4112 -0.3642
  187POPC  H14B21491   3.289   5.767   1.525 -0.2158 -0.2642  0.5964
  187POPC  H14C21492   3.242   5.932   1.573  1.0838 -0.0194 -0.5822
  187POPC   C1521493   3.505   6.004   1.561  0.3853 -0.3160 -0.1154
  187POPC  H15A21494   3.601   6.036   1.600  0.0521  1.0558 -0.3572
  187POPC  H15B21495   3.440   6.081   1.600 -1.2153 -1.0158 -1.2914
  187POPC  H15C21496   3.505   6.009   1.453 -0.6267 -0.6064 -0.1382
  187POPC   C1121497   3.370   5.978   1.827  0.6043  0.1269  0.1537
  187POPC  H11A21498   3.441   6.060   1.849 -0.7619  1.4701 -0.2179
  187POPC  H11B21499   3.346   5.943   1.929 -1.6005  1.1673  0.0573
  187POPC     P21500   3.223   6.181   1.770  0.1921 -0.6463  0.4774
  187POPC   O1321501   3.091   6.203   1.717  0.1182 -0.0043  0.0389
  187POPC   O1421502   3.330   6.256   1.707 -0.4167  0.6314 -0.1387
  187POPC   O1221503   3.256   6.032   1.766  0.2345  0.0980  0.2328
  187POPC   O1121504   3.218   6.209   1.925 -0.1378  0.2099  0.0739
  187POPC    C121505   3.103   6.233   1.999  0.2446 -0.3409  0.4017
  187POPC    HA21506   3.014   6.175   1.966 -0.3498 -0.0028  1.3510
  187POPC    HB21507   3.088   6.344   2.000  3.2161  0.1291  1.2897
  187POPC    C221508   3.135   6.192   2.142 -0.8465  1.2924 -0.0528
  187POPC    HS21509   3.226   6.247   2.174 -0.3529 -0.7250  2.2047
  187POPC   O2121510   3.162   6.050   2.141 -0.2199  0.7553  0.6806
  187POPC   C2121511   3.241   5.994   2.233  0.2882  0.2834 -0.5089
  187POPC   O2221512   3.326   6.059   2.292 -0.1360 -0.2938  0.4981
  187POPC   C2221513   3.231   5.842   2.234 -0.6371 -0.3867 -0.4338
  187POPC   H2R21514   3.259   5.810   2.131 -0.7466  1.1323 -0.9501
  187POPC   H2S21515   3.128   5.810   2.261  0.4095 -3.6949  0.1969
  187POPC    C321516   3.016   6.231   2.240  0.0865  0.3632  0.0391
  187POPC    HX21517   2.919   6.189   2.207  0.4405 -0.6252  0.2456
  187POPC    HY21518   2.994   6.340   2.239 -1.6841  0.0305 -1.0938
  187POPC   O3121519   3.031   6.179   2.368  0.0635 -0.3929 -0.5351
  187POPC   C3121520   3.087   6.252   2.456 -0.4113 -0.1562  0.3933
  187POPC   O3221521   3.155   6.349   2.438 -0.1940  0.0260  0.1149
  187POPC   C3221522   3.074   6.191   2.598  0.1511 -0.1208 -0.1734
  187POPC   H2X21523   3.144   6.105   2.601 -0.6620 -0.8352 -0.7935
  187POPC   H2Y21524   2.969   6.154   2.602  0.1773 -0.1828 -0.0792
  187POPC   C2321525   3.319   5.764   2.339 -0.3555 -0.1022 -0.7853
  187POPC   H3R21526   3.422   5.805   2.329 -0.3875  0.0159 -0.6328
  187POPC   H3S21527   3.319   5.655   2.322 -0.5624 -0.1936 -0.2459
  187POPC   C2421528   3.277   5.796   2.482 -1.0919 -0.5925  0.0394
  187POPC   H4R21529   3.173   5.765   2.505 -1.5926  2.3678  2.5725
  187POPC   H4S21530   3.286   5.907   2.492  0.5859 -0.8281  2.1097
  187POPC   C2521531   3.375   5.737   2.581 -0.2889 -0.4194 -0.3409
  187POPC   H5R21532   3.476   5.727   2.536  0.4342 -2.0772  1.4674
  187POPC   H5S21533   3.347   5.629   2.576  1.4350 -0.8501 -1.8671
  187POPC   C2621534   3.385   5.813   2.717 -0.1231  0.0410 -1.0314
  187POPC   H6R21535   3.429   5.913   2.698  1.3745 -0.2410  0.6995
  187POPC   H6S21536   3.452   5.761   2.789 -0.7760 -1.2325 -1.3163
  187POPC   C2721537   3.250   5.831   2.784  0.5794 -0.0108  1.0415
  187POPC   H7R21538   3.199   5.733   2.772 -0.3966  0.7638 -1.9852
  187POPC   H7S21539   3.190   5.909   2.731 -0.8955 -0.9267  1.2973
  187POPC   C2821540   3.262   5.876   2.925 -0.2043  0.4365 -0.1386
  187POPC   H8R21541   3.158   5.903   2.953 -0.5288  0.8791 -1.6895
  187POPC   H8S21542   3.329   5.965   2.932 -0.3131  0.5899 -0.9045
  187POPC   C2921543   3.314   5.772   3.022 -0.6316  0.3377  0.3359
  187POPC   H9121544   3.390   5.699   2.991 -1.9392 -1.0910  0.3632
  187POPC  C21021545   3.277   5.762   3.153 -0.8682 -0.2751 -0.4831
  187POPC  H10121546   3.332   5.697   3.223 -0.5433  0.4830 -0.0233
  187POPC  C21121547   3.189   5.864   3.228  0.7700  0.4249 -0.6553
  187POPC  H11R21548   3.095   5.814   3.261 -0.1765  1.2457 -1.9929
  187POPC  H11S21549   3.166   5.944   3.154  1.8458  1.2084 -0.1625
  187POPC  C21221550   3.253   5.910   3.359 -0.2671  0.5084 -1.1064
  187POPC  H12R21551   3.215   6.007   3.398  1.5877 -0.3152  3.3346
  187POPC  H12S21552   3.359   5.930   3.334 -0.1692  0.5282 -0.6766
  187POPC  C21321553   3.244   5.801   3.466  0.4450 -0.1130 -0.1481
  187POPC  H13R21554   3.276   5.701   3.429  0.1590  1.0878 -4.1203
  187POPC  H13S21555   3.136   5.799   3.490  0.1850 -0.6249 -1.2756
  187POPC  C21421556   3.307   5.832   3.604  0.2962  0.2890 -0.0446
  187POPC  H14R21557   3.296   5.941   3.621  1.7070  0.9870 -3.0011
  187POPC  H14S21558   3.416   5.827   3.589  0.3861 -2.8336  0.9370
  187POPC  C21521559   3.251   5.760   3.725  0.4904  0.3498  0.2804
  187POPC  H15R21560   3.232   5.653   3.701  1.3907  0.6029 -1.7692
  187POPC  H15S21561   3.156   5.814   3.749 -0.8808 -2.1783  0.8724
  187POPC  C21621562   3.346   5.765   3.847  0.0364 -0.0827  0.7752
  187POPC  H16R21563   3.394   5.866   3.842 -1.2961  0.5392 -0.0133
  187POPC  H16S21564   3.418   5.681   3.855  0.5820  0.4719  2.0008
  187POPC  C21721565   3.277   5.752   3.983 -0.0551 -0.4081 -0.2787
  187POPC  H17R21566   3.206   5.668   3.970 -0.7401  0.1435 -0.1710
  187POPC  H17S21567   3.212   5.841   3.992 -2.4704 -1.9169 -1.6405
  187POPC  C21821568   3.375   5.728   4.087  0.3534 -0.9127 -0.6810
  187POPC  H18R21569   3.376   5.620   4.110 -1.4490 -1.1879 -1.6968
  187POPC  H18S21570   3.336   5.778   4.179 -0.9218  0.3068 -1.8379
  187POPC  H18T21571   3.477   5.760   4.059  0.8273 -0.9826  0.8903
  187POPC   C3321572   3.096   6.288   2.718 -0.0676  0.0329 -0.0355
  187POPC   H3X21573   3.017   6.366   2.714 -0.2234 -0.1542 -0.6536
  187POPC   H3Y21574   3.201   6.324   2.719 -0.0719  0.0416  0.5667
  187POPC   C3421575   3.082   6.230   2.862 -0.0351  0.2814  0.7760
  187POPC   H4X21576   3.162   6.157   2.887  0.5289  0.9436  0.9376
  187POPC   H4Y21577   2.984   6.182   2.882 -0.1788 -0.7451 -1.9384
  187POPC   C3521578   3.099   6.351   2.960  0.3913 -0.0473  0.9798
  187POPC   H5X21579   3.010   6.417   2.945 -0.6632 -1.0094  2.6468
  187POPC   H5Y21580   3.197   6.402   2.945 -0.9430  2.1654 -1.0919
  187POPC   C3621581   3.100   6.293   3.102  0.0511 -0.3556  0.2442
  187POPC   H6X21582   3.167   6.206   3.117  0.3084  0.1229  2.2673
  187POPC   H6Y21583   3.001   6.254   3.134 -0.8133  1.9837  0.6240
  187POPC   C3721584   3.134   6.406   3.200 -0.4708 -0.2970 -0.2286
  187POPC   H7X21585   3.090   6.503   3.170  2.3586  0.8056 -1.1682
  187POPC   H7Y21586   3.243   6.427   3.209 -0.6402  0.7355 -0.5098
  187POPC   C3821587   3.095   6.361   3.345  0.2427 -0.3761  0.0386
  187POPC   H8X21588   3.121   6.253   3.350 -1.1855 -0.7401  0.1322
  187POPC   H8Y21589   2.985   6.371   3.356 -0.2500 -0.1285 -3.7243
  187POPC   C3921590   3.178   6.426   3.446 -0.4804  0.3636 -0.1851
  187POPC   H9X21591   3.149   6.533   3.451  0.2268  0.5214  0.8379
  187POPC   H9Y21592   3.285   6.420   3.416 -0.8633 -2.3473 -1.3199
  187POPC  C31021593   3.171   6.369   3.589  0.8360 -0.2041  0.4504
  187POPC  H10X21594   3.172   6.258   3.586  1.8472 -0.3068  2.7278
  187POPC  H10Y21595   3.071   6.398   3.630 -0.0809  0.0524 -1.8042
  187POPC  C31121596   3.287   6.401   3.686 -0.4164 -0.0663  0.2697
  187POPC  H11X21597   3.308   6.508   3.706  0.2655  0.1001 -1.2354
  187POPC  H11Y21598   3.370   6.341   3.643 -0.2816 -1.8652  2.7732
  187POPC  C31221599   3.244   6.343   3.821  0.6769  0.2083  0.5794
  187POPC  H12X21600   3.207   6.238   3.813 -0.6997  0.5567  1.9100
  187POPC  H12Y21601   3.161   6.405   3.861  0.9882 -0.4379  2.2686
  187POPC  C31321602   3.354   6.343   3.928  0.7537  0.1942 -0.2372
  187POPC  H13X21603   3.378   6.450   3.942  2.3733 -0.0033 -1.2583
  187POPC  H13Y21604   3.445   6.306   3.876  1.2398 -1.3610  1.6259
  187POPC  C31421605   3.335   6.253   4.046 -0.2105 -0.0962  0.2232
  187POPC  H14X21606   3.435   6.244   4.094  0.4067  0.5873 -0.9125
  187POPC  H14Y21607   3.308   6.149   4.017 -0.3965  0.0100  0.0132
  187POPC  C31521608   3.244   6.303   4.156 -0.0793 -0.3999 -0.1357
  187POPC  H15X21609   3.142   6.301   4.114  0.5560  0.4361 -1.8366
  187POPC  H15Y21610   3.268   6.410   4.178 -0.1167 -0.4619  0.2088
  187POPC  C31621611   3.265   6.209   4.275 -0.2619 -0.5141  0.2378
  187POPC  H16X21612   3.182   6.221   4.347  0.7353 -0.0914  1.3425
  187POPC  H16Y21613   3.351   6.239   4.338 -1.6721 -1.5827  2.8153
  187POPC  H16Z21614   3.277   6.101   4.247  1.1606 -0.3687  0.1904
  188POPC     N21615   5.908   6.346   1.817  0.5680  0.4259 -0.0278
  188POPC   C1221616   5.785   6.436   1.793  0.3171 -0.5022 -0.0710
  188POPC  H12A21617   5.781   6.514   1.867 -2.2709 -1.1300  0.5573
  188POPC  H12B21618   5.701   6.372   1.817 -1.2554  1.2054 -0.8074
  188POPC   C1321619   6.035   6.420   1.809 -0.0793 -0.1908  0.2569
  188POPC  H13A21620   6.056   6.477   1.898 -0.1101 -0.4225  0.4134
  188POPC  H13B21621   6.125   6.361   1.802 -0.0796 -0.0424 -1.4195
  188POPC  H13C21622   6.036   6.482   1.720  0.5051 -1.4927 -0.6633
  188POPC   C1421623   5.906   6.290   1.959  0.8415  0.4449  0.4045
  188POPC  H14A21624   5.908   6.375   2.025  1.8009 -0.2762  1.3389
  188POPC  H14B21625   5.811   6.242   1.979  1.0611 -0.3783 -0.4642
  188POPC  H14C21626   5.984   6.220   1.984 -0.9782 -1.8708  0.0206
  188POPC   C1521627   5.908   6.231   1.722 -0.4092  0.3331 -0.5910
  188POPC  H15A21628   5.849   6.146   1.752 -0.2638 -0.3414 -2.1166
  188POPC  H15B21629   6.009   6.194   1.706 -0.1502 -0.2190  1.9030
  188POPC  H15C21630   5.874   6.258   1.623  0.2054  3.4778 -0.0604
  188POPC   C1121631   5.755   6.490   1.655  0.1421  0.2341  0.2747
  188POPC  H11A21632   5.647   6.516   1.648  0.4465  1.1331 -1.5463
  188POPC  H11B21633   5.776   6.409   1.582  0.1650 -0.1612  0.7086
  188POPC     P21634   5.823   6.739   1.672 -0.1535 -0.2918 -0.1702
  188POPC   O1321635   5.681   6.772   1.663 -0.0614  0.4735  0.6785
  188POPC   O1421636   5.918   6.831   1.606 -0.3024  0.5467 -0.0393
  188POPC   O1221637   5.840   6.588   1.613 -0.3287  0.1398  0.0854
  188POPC   O1121638   5.861   6.728   1.825 -0.5502  0.6161  0.2985
  188POPC    C121639   5.870   6.821   1.927  0.1427 -0.0358 -0.2927
  188POPC    HA21640   5.794   6.903   1.926  0.4519  0.2851  1.0146
  188POPC    HB21641   5.967   6.869   1.902  0.8718 -2.7333 -3.3403
  188POPC    C221642   5.882   6.755   2.068  0.4067  0.0440  0.3339
  188POPC    HS21643   5.966   6.684   2.052  0.1581 -0.4344  1.1144
  188POPC   O2121644   5.758   6.684   2.098  0.0638  0.2484  0.0137
  188POPC   C2121645   5.771   6.572   2.162  0.6126 -0.2778  0.1129
  188POPC   O2221646   5.877   6.516   2.196 -0.0636 -0.0507  0.4068
  188POPC   C2221647   5.629   6.503   2.180 -0.2297 -0.2414  0.4855
  188POPC   H2R21648   5.603   6.491   2.073 -2.8292  1.8083  0.7855
  188POPC   H2S21649   5.556   6.578   2.216 -2.4125  0.6268 -4.8555
  188POPC    C321650   5.924   6.857   2.184 -0.1842 -0.2522  0.3000
  188POPC    HX21651   5.857   6.942   2.155  0.4556 -0.1687 -1.0000
  188POPC    HY21652   6.025   6.902   2.179 -0.4402  0.3403  0.3703
  188POPC   O3121653   5.891   6.799   2.312  0.5508 -0.2163  0.0952
  188POPC   C3121654   5.980   6.743   2.377 -0.6369  0.3090  0.1936
  188POPC   O3221655   6.097   6.718   2.343  0.2546 -0.1874  0.2477
  188POPC   C3221656   5.925   6.722   2.516  0.4606 -0.7283 -0.3677
  188POPC   H2X21657   5.844   6.645   2.518  1.8322 -2.2488 -1.0776
  188POPC   H2Y21658   5.863   6.809   2.544 -2.2013 -2.5392 -0.2084
  188POPC   C2321659   5.641   6.366   2.246  0.4869 -0.0569  0.1499
  188POPC   H3R21660   5.711   6.303   2.187 -1.1422 -1.1929 -0.6379
  188POPC   H3S21661   5.542   6.317   2.238  0.9108 -0.7376 -1.1991
  188POPC   C2421662   5.681   6.374   2.398  0.7477  0.1200 -0.1316
  188POPC   H4R21663   5.783   6.417   2.408  0.9762 -0.2884 -0.6632
  188POPC   H4S21664   5.700   6.276   2.447 -0.4481 -0.0508  0.0096
  188POPC   C2521665   5.576   6.446   2.488  0.8647 -0.0785 -0.1985
  188POPC   H5R21666   5.474   6.406   2.469  0.9834  1.0883 -4.5139
  188POPC   H5S21667   5.572   6.552   2.455 -0.5808  0.5124  1.7433
  188POPC   C2621668   5.612   6.440   2.637 -0.1767 -0.0891 -0.7499
  188POPC   H6R21669   5.715   6.482   2.642 -0.1804 -0.1868  1.9675
  188POPC   H6S21670   5.614   6.338   2.683 -1.4204  0.3516  0.3563
  188POPC   C2721671   5.508   6.523   2.715 -0.4336 -0.3868 -0.0957
  188POPC   H7R21672   5.414   6.469   2.739 -0.5790  0.2524  0.8531
  188POPC   H7S21673   5.480   6.623   2.674  1.5003 -0.6034 -2.1333
  188POPC   C2821674   5.569   6.536   2.863  0.0668 -0.5298  1.2730
  188POPC   H8R21675   5.522   6.624   2.912 -1.6423 -0.7841  0.1885
  188POPC   H8S21676   5.677   6.561   2.860  0.4560 -2.1754  0.4447
  188POPC   C2921677   5.572   6.419   2.955 -0.6721  0.5482  0.1256
  188POPC   H9121678   5.579   6.319   2.910 -3.2421  0.3134  0.0757
  188POPC  C21021679   5.561   6.431   3.086 -0.3436  0.2249 -0.7786
  188POPC  H10121680   5.550   6.349   3.158  0.4510  1.7508  1.1468
  188POPC  C21121681   5.549   6.556   3.166  0.1483  0.3669  1.0362
  188POPC  H11R21682   5.442   6.585   3.161 -1.1023 -3.8260 -1.1608
  188POPC  H11S21683   5.609   6.638   3.122  3.0659 -1.6502  0.9864
  188POPC  C21221684   5.587   6.574   3.315 -0.4110  0.4294 -0.3348
  188POPC  H12R21685   5.605   6.678   3.350  0.6115 -0.1644  0.9819
  188POPC  H12S21686   5.687   6.527   3.327 -1.2311 -1.0364  1.0653
  188POPC  C21321687   5.477   6.525   3.411 -0.8297 -0.6657 -0.3481
  188POPC  H13R21688   5.468   6.414   3.410  0.1278 -0.8189 -3.2905
  188POPC  H13S21689   5.386   6.573   3.369  1.3989  2.9345 -1.5136
  188POPC  C21421690   5.496   6.569   3.562 -0.0797 -0.0710  0.2036
  188POPC  H14R21691   5.510   6.680   3.566  2.2541 -0.2307 -1.2869
  188POPC  H14S21692   5.589   6.511   3.580  0.8000  0.7921 -1.3291
  188POPC  C21521693   5.388   6.523   3.656  0.2563  0.5131  0.3587
  188POPC  H15R21694   5.371   6.413   3.645  0.3065  0.1830  2.8910
  188POPC  H15S21695   5.296   6.581   3.637  1.9998  2.5785 -2.4905
  188POPC  C21621696   5.424   6.544   3.801  0.5039 -1.6460  0.7091
  188POPC  H16R21697   5.520   6.495   3.829  0.6779 -1.1350  1.0188
  188POPC  H16S21698   5.350   6.480   3.853  1.3255 -1.9017  1.5963
  188POPC  C21721699   5.411   6.696   3.841  0.0467  0.4904 -1.4394
  188POPC  H17R21700   5.317   6.741   3.803  0.1225  2.3297  0.4085
  188POPC  H17S21701   5.496   6.751   3.795  1.3714  0.6627  1.0757
  188POPC  C21821702   5.420   6.710   3.992 -0.0353  0.2901  0.3872
  188POPC  H18R21703   5.521   6.688   4.030  1.0041  1.0828 -1.7272
  188POPC  H18S21704   5.351   6.634   4.035  0.7810  0.1245  1.4338
  188POPC  H18T21705   5.397   6.811   4.034 -0.0601 -0.0230  1.1451
  188POPC   C3321706   6.024   6.707   2.638  0.1385  0.1664 -0.0315
  188POPC   H3X21707   6.079   6.803   2.642 -1.3325  1.0483 -0.3696
  188POPC   H3Y21708   6.106   6.634   2.618  1.1763  1.5717 -1.0353
  188POPC   C3421709   5.944   6.677   2.769 -0.3046 -0.2624 -0.1036
  188POPC   H4X21710   5.889   6.580   2.762  0.1476 -0.6018  0.8289
  188POPC   H4Y21711   5.865   6.750   2.798  0.5434  1.0499 -1.0129
  188POPC   C3521712   6.037   6.655   2.892  0.2773 -0.7752 -0.2038
  188POPC   H5X21713   6.107   6.739   2.911 -0.9963 -0.0605  1.6296
  188POPC   H5Y21714   6.105   6.569   2.877 -0.3056 -1.6316  1.7213
  188POPC   C3621715   5.958   6.642   3.030 -0.1740  0.1398  0.3608
  188POPC   H6X21716   5.932   6.535   3.038  2.0511 -0.5649 -0.9079
  188POPC   H6Y21717   5.864   6.702   3.023  0.5593  1.2552 -0.2744
  188POPC   C3721718   6.033   6.695   3.158 -0.1425  0.2132  0.0583
  188POPC   H7X21719   6.062   6.801   3.142 -0.8090  0.4235  0.2200
  188POPC   H7Y21720   6.124   6.631   3.167 -1.3590 -1.8169 -1.3849
  188POPC   C3821721   5.952   6.681   3.292  0.0273 -0.1884  0.5866
  188POPC   H8X21722   5.972   6.577   3.325 -1.3631 -0.8169 -0.4665
  188POPC   H8Y21723   5.847   6.694   3.259 -1.1547 -4.1000  2.2483
  188POPC   C3921724   5.988   6.788   3.394  0.3133  1.1344 -0.5957
  188POPC   H9X21725   5.982   6.889   3.349  1.0166  0.9039 -1.2332
  188POPC   H9Y21726   6.097   6.773   3.403  0.2320 -0.7243 -2.0824
  188POPC  C31021727   5.908   6.767   3.526  0.1385 -0.3701 -0.3366
  188POPC  H10X21728   5.990   6.775   3.600 -1.1114 -0.7868  1.1356
  188POPC  H10Y21729   5.886   6.658   3.535  1.8494 -0.6481  1.0038
  188POPC  C31121730   5.791   6.866   3.546  0.2955 -0.1908 -0.9272
  188POPC  H11X21731   5.699   6.826   3.498 -0.1547  0.3233 -0.5155
  188POPC  H11Y21732   5.814   6.969   3.511 -0.2688  0.0461 -0.6155
  188POPC  C31221733   5.754   6.884   3.698  0.7951 -0.0638 -0.5340
  188POPC  H12X21734   5.745   6.781   3.738  0.4605  0.5016  0.9311
  188POPC  H12Y21735   5.653   6.929   3.711  1.2894  0.5926  1.3128
  188POPC  C31321736   5.856   6.959   3.780 -0.4438 -0.4493 -0.2266
  188POPC  H13X21737   5.804   7.047   3.822  0.2612 -0.2136  0.1780
  188POPC  H13Y21738   5.933   6.995   3.708 -1.0785 -0.6255 -1.0123
  188POPC  C31421739   5.913   6.880   3.894 -0.1246  0.4294 -0.7390
  188POPC  H14X21740   6.001   6.928   3.940  0.1783 -0.7065 -0.0869
  188POPC  H14Y21741   5.936   6.778   3.854 -1.0544  1.0014 -2.8651
  188POPC  C31521742   5.817   6.867   4.009  0.5598 -0.1760 -0.6305
  188POPC  H15X21743   5.738   6.791   3.988 -0.7554  0.7591  0.8012
  188POPC  H15Y21744   5.761   6.962   4.022 -1.1961 -1.2892  0.3524
  188POPC  C31621745   5.879   6.830   4.144  0.1971  0.1990 -0.7260
  188POPC  H16X21746   5.937   6.736   4.139 -1.5206 -1.1490  2.2444
  188POPC  H16Y21747   5.804   6.816   4.224 -1.6537 -1.5050 -2.6275
  188POPC  H16Z21748   5.953   6.909   4.167 -0.6315  0.4772  1.2198
  189SAPI   C1221749   0.701   1.311   6.508 -0.2757 -0.4290  0.1370
  189SAPI    H221750   0.697   1.412   6.461 -0.3498 -1.3503 -1.8984
  189SAPI    O221751   0.769   1.319   6.627  0.0865  0.0223  0.3395
  189SAPI   HO221752   0.858   1.343   6.603  1.1556 -1.5718  2.4116
  189SAPI   C1321753   0.551   1.272   6.525  1.1494 -0.0667  0.2134
  189SAPI    H321754   0.497   1.288   6.429  0.3457  1.4438  0.8806
  189SAPI    O321755   0.483   1.356   6.616  0.6125 -0.1120 -0.1959
  189SAPI   HO321756   0.547   1.371   6.686  0.5721 -0.8289  0.0055
  189SAPI   C1421757   0.534   1.127   6.563 -0.9252  0.1092  0.2721
  189SAPI    H421758   0.593   1.118   6.657  0.3930  1.3930 -0.3895
  189SAPI    O421759   0.400   1.086   6.571 -0.2004 -0.3961 -0.3374
  189SAPI   HO421760   0.366   1.109   6.658 -1.3485 -0.1357 -0.8287
  189SAPI   C1521761   0.613   1.022   6.486 -0.4960 -0.2782  0.7085
  189SAPI    H521762   0.552   1.001   6.395  0.7331  0.2652 -0.2630
  189SAPI    O521763   0.626   0.901   6.567 -0.1681 -0.4692  0.1607
  189SAPI   HO521764   0.537   0.865   6.574 -0.4963  0.3602  0.3055
  189SAPI   C1621765   0.748   1.066   6.426  0.2009 -0.3908  0.0333
  189SAPI    H621766   0.826   1.044   6.503  1.5981 -0.3517 -1.3363
  189SAPI    O621767   0.781   1.001   6.302 -0.3571  0.5236  0.1773
  189SAPI   HO621768   0.862   0.949   6.306 -0.4373  0.3996  4.1189
  189SAPI   C1121769   0.774   1.220   6.411  0.0470 -0.0229 -0.5919
  189SAPI    H121770   0.708   1.230   6.322 -0.5390 -0.5252 -0.2218
  189SAPI     P21771   0.937   1.363   6.251 -0.0538  0.0031 -0.1684
  189SAPI   O1321772   1.062   1.441   6.282 -0.0460  0.5545 -0.4430
  189SAPI   O1421773   0.812   1.452   6.239  0.3568 -0.1047 -0.0002
  189SAPI   O1221774   0.912   1.262   6.385  0.3844  0.3562 -0.1634
  189SAPI   O1121775   0.954   1.272   6.127 -1.0780 -0.2184  0.0436
  189SAPI    C121776   1.043   1.156   6.147  0.1470  0.0380  0.2048
  189SAPI    HA21777   1.147   1.180   6.175  0.7912  1.4575 -2.9181
  189SAPI    HB21778   1.003   1.083   6.220 -1.3728  1.3641  0.7622
  189SAPI    C221779   1.059   1.073   6.016 -0.1744  0.2126 -0.4671
  189SAPI    HS21780   1.148   1.007   6.023 -1.5301 -2.2898 -3.9546
  189SAPI   O2121781   1.080   1.150   5.898 -0.3907 -0.4158  0.2881
  189SAPI   C2121782   1.175   1.244   5.905  0.2142  0.1631 -0.7681
  189SAPI   O2221783   1.262   1.246   5.986  0.2621  1.3331 -1.0664
  189SAPI   C2221784   1.167   1.341   5.788  0.4471  0.6118  0.3585
  189SAPI   H2R21785   1.071   1.345   5.732  0.4781 -0.7986  0.1640
  189SAPI   H2S21786   1.186   1.440   5.835  0.0929  1.1628 -0.6280
  189SAPI    C321787   0.934   0.984   5.987  0.3962 -0.3869 -0.0978
  189SAPI    HX21788   0.858   1.065   5.974 -0.2470 -0.9152  0.2998
  189SAPI    HY21789   0.915   0.922   6.077 -4.7394 -0.7971 -1.1307
  189SAPI   O3121790   0.947   0.903   5.870 -0.1618 -0.2417  0.3671
  189SAPI   C3121791   1.043   0.817   5.874  0.6897  0.1301  0.0936
  189SAPI   O3221792   1.117   0.794   5.964 -0.6314  0.2977  0.2492
  189SAPI   C3221793   1.044   0.742   5.745 -0.1072 -0.1866  0.0957
  189SAPI   H2X21794   0.942   0.756   5.703 -0.3142 -1.6042  0.0706
  189SAPI   H2Y21795   1.064   0.637   5.774  0.8324  0.2036  0.9234
  189SAPI   C2321796   1.290   1.334   5.690  0.1586 -0.4038 -0.2129
  189SAPI   H3R21797   1.383   1.362   5.745  0.2957 -3.0291  1.0840
  189SAPI   H3S21798   1.271   1.414   5.616 -1.9790 -2.0066 -1.4817
  189SAPI   C2421799   1.304   1.202   5.621  0.3772  0.7336  0.4942
  189SAPI   H4R21800   1.321   1.115   5.687 -0.5202  0.7508  0.7588
  189SAPI   H4S21801   1.398   1.211   5.562  0.8883  0.0109  1.1734
  189SAPI   C2521802   1.190   1.182   5.527  0.1351 -0.2075  0.6515
  189SAPI   H5R21803   1.093   1.163   5.576 -1.5727 -0.9844 -2.7056
  189SAPI   C2621804   1.187   1.200   5.393 -0.5189 -0.3266  0.5107
  189SAPI   H6R21805   1.092   1.164   5.349 -0.4675 -1.2858  1.1426
  189SAPI   C2721806   1.305   1.230   5.302  0.3318 -0.7795  0.1981
  189SAPI   H7R21807   1.265   1.206   5.201  1.1148 -0.3634 -0.2154
  189SAPI   H7S21808   1.393   1.164   5.323  2.1924  0.9755 -1.6432
  189SAPI   C2821809   1.354   1.364   5.318 -0.6985 -1.5046 -0.2913
  189SAPI   H8R21810   1.350   1.405   5.420 -0.1022 -2.1758  0.0139
  189SAPI   C2921811   1.398   1.447   5.212  0.0946 -0.0393 -0.3623
  189SAPI   H9R21812   1.444   1.546   5.225 -0.1560  0.2963 -1.9050
  189SAPI  C21021813   1.386   1.413   5.069  0.0612 -0.2144 -0.2000
  189SAPI  H10R21814   1.389   1.512   5.018 -1.0447 -0.8125 -1.4921
  189SAPI  H10S21815   1.279   1.388   5.053 -0.5999  2.9961 -1.6511
  189SAPI  C21121816   1.485   1.315   5.008 -0.7742  0.3864 -0.4291
  189SAPI  H11R21817   1.485   1.214   5.052 -0.1837  0.8555  0.6999
  189SAPI  C21221818   1.539   1.338   4.887  0.5307  0.7559  0.9140
  189SAPI  H12R21819   1.600   1.259   4.841  0.0765  0.9794 -0.0951
  189SAPI  C21321820   1.531   1.461   4.804  0.4233  0.4383 -0.2402
  189SAPI  H13R21821   1.434   1.511   4.829 -0.7130 -0.8384 -1.8303
  189SAPI  H13S21822   1.531   1.449   4.694  0.4066 -1.2136 -0.0712
  189SAPI  C21421823   1.647   1.546   4.857  0.5162  0.0783 -0.3328
  189SAPI  H14R21824   1.638   1.557   4.966 -2.1050 -1.3612 -0.3055
  189SAPI  C21521825   1.750   1.582   4.789  0.0082  1.0969  0.2812
  189SAPI  H15R21826   1.836   1.631   4.838  0.2250 -0.0246  1.0429
  189SAPI  C21621827   1.779   1.557   4.642 -0.2842  1.2544 -0.4393
  189SAPI  H16R21828   1.824   1.636   4.577  1.6308  0.2955 -0.3582
  189SAPI  H16S21829   1.685   1.521   4.594  0.7816 -1.6070 -0.6073
  189SAPI  C21721830   1.882   1.432   4.625  0.4144  0.8697 -0.2376
  189SAPI  H17R21831   1.973   1.448   4.685 -0.3729 -0.1311  1.2886
  189SAPI  H17S21832   1.917   1.429   4.519  0.5816 -0.0810 -0.1680
  189SAPI  C21821833   1.837   1.287   4.650 -0.7620 -0.4986 -0.4939
  189SAPI  H18R21834   1.746   1.267   4.589 -2.2279  0.7850  1.1670
  189SAPI  H18S21835   1.805   1.278   4.756  2.4169 -2.5605  0.4437
  189SAPI  C21921836   1.952   1.186   4.631  0.4400 -0.4684 -0.4509
  189SAPI  H19R21837   1.985   1.178   4.525 -0.6692  1.4283 -0.9906
  189SAPI  H19S21838   1.914   1.095   4.682 -1.1110  1.9667  3.1477
  189SAPI  C22021839   2.071   1.207   4.722  0.4239  0.0743 -0.2936
  189SAPI  H20R21840   2.039   1.196   4.828  0.0072 -1.5803 -0.5550
  189SAPI  H20S21841   2.118   1.304   4.695  0.3108 -0.0046 -0.7844
  189SAPI  H20T21842   2.138   1.120   4.708 -0.1742 -0.3916 -0.3161
  189SAPI   C3321843   1.154   0.792   5.653 -0.0577  0.2274 -0.3448
  189SAPI   H3X21844   1.252   0.782   5.705  0.7815 -0.7834 -2.0118
  189SAPI   H3Y21845   1.129   0.897   5.626 -0.1311 -0.0154 -1.2722
  189SAPI   C3421846   1.163   0.709   5.518 -0.4848 -0.5727 -0.2110
  189SAPI   H4X21847   1.181   0.602   5.540 -2.2293 -0.3274  3.0882
  189SAPI   H4Y21848   1.254   0.747   5.467 -1.2406  0.3932 -0.8884
  189SAPI   C3521849   1.031   0.717   5.435 -0.3939  0.3446 -0.6156
  189SAPI   H5X21850   0.947   0.707   5.507 -0.0787  0.6981 -0.1882
  189SAPI   H5Y21851   1.032   0.627   5.371 -0.5730 -0.5754  0.6464
  189SAPI   C3621852   1.009   0.833   5.341  0.3007  0.0143  0.6206
  189SAPI   H6X21853   1.011   0.926   5.402  1.5658 -0.2660  1.0410
  189SAPI   H6Y21854   0.908   0.817   5.298  0.7301 -2.5456  0.4147
  189SAPI   C3721855   1.102   0.845   5.224  0.0705 -0.3046  0.2647
  189SAPI   H7X21856   1.159   0.750   5.210  0.3443 -0.5591  2.6890
  189SAPI   H7Y21857   1.179   0.923   5.242 -0.5093  0.2204  0.4847
  189SAPI   C3821858   1.031   0.881   5.093 -0.3373  0.4189  0.5994
  189SAPI   H8X21859   0.971   0.974   5.106  2.1375  1.9195  1.9280
  189SAPI   H8Y21860   0.957   0.803   5.064 -0.8954  0.6809  1.2937
  189SAPI   C3921861   1.132   0.893   4.982  0.1050  0.6929  0.1061
  189SAPI   H9X21862   1.211   0.817   5.000 -1.1628 -0.1643  2.3687
  189SAPI   H9Y21863   1.181   0.993   4.989  1.5397 -0.1017  2.3949
  189SAPI  C31021864   1.075   0.865   4.836 -0.4016 -0.0544  0.1662
  189SAPI  H10X21865   0.994   0.939   4.821 -1.7260 -1.5989 -0.6078
  189SAPI  H10Y21866   1.032   0.763   4.834  0.6898 -0.5742  1.4444
  189SAPI  C31121867   1.185   0.878   4.730  0.3412 -0.1259  0.6786
  189SAPI  H11X21868   1.264   0.800   4.732 -0.4345 -0.9538 -0.1450
  189SAPI  H11Y21869   1.237   0.976   4.741 -2.0607  1.1754  0.9947
  189SAPI  C31221870   1.121   0.884   4.592 -0.5736 -0.9720 -0.7258
  189SAPI  H12X21871   1.059   0.975   4.579 -0.4464 -0.9636 -1.2911
  189SAPI  H12Y21872   1.054   0.796   4.583 -3.4186  1.0180 -0.3275
  189SAPI  C31321873   1.223   0.902   4.480 -0.3406 -0.3792 -0.2008
  189SAPI  H13X21874   1.316   0.846   4.503 -0.1803 -0.3423 -0.7481
  189SAPI  H13Y21875   1.251   1.009   4.473  0.1640 -0.3565  1.6185
  189SAPI  C31421876   1.164   0.854   4.353  0.4534 -0.3493  0.4485
  189SAPI  H14X21877   1.225   0.880   4.264  0.3194 -0.1059  0.4277
  189SAPI  H14Y21878   1.068   0.907   4.336  1.0300  0.5496 -0.0741
  189SAPI  C31521879   1.141   0.700   4.358  0.1307 -0.4116  0.8489
  189SAPI  H15X21880   1.092   0.669   4.453 -2.1424 -2.1021 -0.7513
  189SAPI  H15Y21881   1.242   0.655   4.348  1.7872  3.3966 -1.4344
  189SAPI  C31621882   1.061   0.645   4.234 -0.3926  0.1530 -0.1661
  189SAPI  H16X21883   0.960   0.691   4.231 -0.4633  0.1318  1.0624
  189SAPI  H16Y21884   1.036   0.538   4.253 -0.6085 -0.3913 -3.1076
  189SAPI  C31721885   1.131   0.653   4.096 -0.8122  0.2791 -0.5460
  189SAPI  H17X21886   1.238   0.626   4.104 -0.7415  0.9559  1.3794
  189SAPI  H17Y21887   1.124   0.754   4.050 -0.7473 -0.5506 -2.4425
  189SAPI  C31821888   1.073   0.546   4.007 -0.7561  0.5779 -0.5551
  189SAPI  H18X21889   1.077   0.448   4.059 -0.1534 -0.5956 -2.6823
  189SAPI  H18Y21890   1.138   0.520   3.920 -0.8919 -0.5222 -0.3429
  189SAPI  H18Z21891   0.967   0.559   3.979 -0.5709  1.9694 -0.7045
  190SAPI   C1221892   1.052   0.513   6.779 -0.3038 -0.2915  0.0844
  190SAPI    H221893   1.059   0.561   6.679  0.8297 -0.5444  0.0381
  190SAPI    O221894   0.943   0.573   6.846 -0.5332  0.2374  0.5267
  190SAPI   HO221895   0.940   0.664   6.818 -1.9291 -0.5669 -2.2273
  190SAPI   C1321896   1.045   0.359   6.755 -0.0771 -0.3627  0.3668
  190SAPI    H321897   1.138   0.323   6.706  1.9119  2.3687  1.7803
  190SAPI    O321898   0.935   0.326   6.670 -0.4740  0.1480  0.2762
  190SAPI   HO321899   0.939   0.234   6.644  1.0269  0.3263 -0.2543
  190SAPI   C1421900   1.041   0.289   6.895 -0.6534 -0.6149 -0.2986
  190SAPI    H421901   0.953   0.332   6.948  0.1669  2.2602 -1.0928
  190SAPI    O421902   1.026   0.150   6.885  0.3881  0.0856 -0.6917
  190SAPI   HO421903   1.114   0.113   6.870  0.7197  1.7643 -3.5972
  190SAPI   C1521904   1.157   0.332   6.991  0.1149 -0.6300  0.2090
  190SAPI    H521905   1.246   0.270   6.967  0.8428  0.5259 -0.1469
  190SAPI    O521906   1.147   0.284   7.120  0.3912 -0.1927  0.3765
  190SAPI   HO521907   1.172   0.192   7.113 -0.5413 -0.3570 -1.2357
  190SAPI   C1621908   1.198   0.486   6.985 -0.0592  0.2813 -0.4262
  190SAPI    H621909   1.121   0.530   7.052 -1.2655 -1.1922 -0.7822
  190SAPI    O621910   1.325   0.510   7.041 -0.2114  0.0836  0.2842
  190SAPI   HO621911   1.354   0.602   7.041 -0.3788  0.1371 -0.3851
  190SAPI   C1121912   1.182   0.542   6.844  0.0944 -0.3543  0.4310
  190SAPI    H121913   1.257   0.492   6.779 -0.0508  0.2074 -0.1894
  190SAPI     P21914   1.308   0.760   6.733 -0.1677 -0.2426 -0.1540
  190SAPI   O1321915   1.428   0.673   6.731  0.0369  0.2125  0.5086
  190SAPI   O1421916   1.312   0.902   6.780  0.5872 -0.3362 -0.5147
  190SAPI   O1221917   1.209   0.687   6.844  0.3156 -0.4157 -0.1112
  190SAPI   O1121918   1.228   0.740   6.598 -0.1049 -0.0547 -0.3623
  190SAPI    C121919   1.202   0.845   6.504  0.0238 -0.1025 -0.0904
  190SAPI    HA21920   1.105   0.896   6.525  1.1152  1.2494  2.0424
  190SAPI    HB21921   1.268   0.931   6.531 -0.2294 -0.3283  1.3788
  190SAPI    C221922   1.235   0.793   6.364 -0.6127 -0.4145 -0.2783
  190SAPI    HS21923   1.242   0.870   6.285  0.7274 -1.0796 -0.8334
  190SAPI   O2121924   1.151   0.679   6.330 -0.2923  0.3301 -0.2291
  190SAPI   C2121925   1.028   0.718   6.333  0.5790  0.1034  0.2688
  190SAPI   O2221926   0.992   0.831   6.304  0.4276 -0.4248  0.9351
  190SAPI   C2221927   0.934   0.614   6.374  0.2148  0.1529 -0.6086
  190SAPI   H2R21928   0.937   0.530   6.302 -0.1250 -1.9233  1.6720
  190SAPI   H2S21929   0.974   0.578   6.472 -0.1083 -1.1127 -0.9248
  190SAPI    C321930   1.378   0.737   6.375 -0.5156  0.2925  0.0101
  190SAPI    HX21931   1.387   0.651   6.445  1.6474  0.4616  0.0071
  190SAPI    HY21932   1.444   0.809   6.428 -0.1775  0.4229 -0.5799
  190SAPI   O3121933   1.439   0.709   6.246 -0.1622 -0.5761  0.3383
  190SAPI   C3121934   1.448   0.583   6.211  0.5126 -0.6124  0.3691
  190SAPI   O3221935   1.420   0.486   6.284 -0.6649 -0.5725 -0.0339
  190SAPI   C3221936   1.510   0.564   6.071 -0.1116 -0.5654  0.0155
  190SAPI   H2X21937   1.612   0.532   6.099 -0.6951 -0.9251  1.8474
  190SAPI   H2Y21938   1.521   0.667   6.032 -0.4707 -0.8177 -0.7692
  190SAPI   C2321939   0.788   0.656   6.387 -0.7320  0.1482  0.0680
  190SAPI   H3R21940   0.771   0.746   6.450  0.0535  0.3609 -0.0180
  190SAPI   H3S21941   0.745   0.576   6.450  1.5085 -0.2222  1.1884
  190SAPI   C2421942   0.706   0.666   6.250  0.4389 -0.2916 -0.1892
  190SAPI   H4R21943   0.739   0.749   6.184 -0.7927  1.4232  1.2321
  190SAPI   H4S21944   0.612   0.709   6.292  2.0777  2.1863  1.2217
  190SAPI   C2521945   0.680   0.534   6.188  0.0314  0.9436  0.0273
  190SAPI   H5R21946   0.603   0.471   6.235 -0.8616  1.6021 -0.5088
  190SAPI   C2621947   0.727   0.483   6.075  0.6571 -0.5019 -0.5403
  190SAPI   H6R21948   0.707   0.379   6.047 -2.6328  0.7320 -3.4718
  190SAPI   C2721949   0.834   0.549   5.989  0.0287  0.2973 -0.7128
  190SAPI   H7R21950   0.821   0.658   6.010  2.3638  0.3174  0.9559
  190SAPI   H7S21951   0.794   0.545   5.885 -0.0006  4.2479 -1.0319
  190SAPI   C2821952   0.977   0.500   5.994  0.4650  0.5671 -0.0112
  190SAPI   H8R21953   1.050   0.547   6.061  4.3780 -2.2420 -1.9063
  190SAPI   C2921954   1.031   0.398   5.917 -0.3293  0.0306 -0.5234
  190SAPI   H9R21955   1.136   0.368   5.931 -0.7357 -0.5673  1.4396
  190SAPI  C21021956   0.960   0.326   5.807  0.9365  0.6159 -0.2998
  190SAPI  H10R21957   0.852   0.350   5.818  1.0618  0.6427  1.0283
  190SAPI  H10S21958   0.978   0.217   5.823 -1.0281 -0.0726 -2.2777
  190SAPI  C21121959   1.003   0.355   5.667  0.0711 -0.9345  0.2026
  190SAPI  H11R21960   1.112   0.346   5.658  0.5462  0.8867  2.7664
  190SAPI  C21221961   0.922   0.374   5.560 -0.1249  0.8168  0.2039
  190SAPI  H12R21962   0.961   0.393   5.459  0.2144 -2.4806 -0.4187
  190SAPI  C21321963   0.776   0.378   5.564 -0.1760 -0.4801 -0.1711
  190SAPI  H13R21964   0.717   0.317   5.636  0.1175 -1.4248 -0.7197
  190SAPI  H13S21965   0.732   0.340   5.469 -1.2710 -0.4424  0.2975
  190SAPI  C21421966   0.723   0.517   5.583 -0.5287  0.9102 -0.3354
  190SAPI  H14R21967   0.746   0.569   5.677 -1.2457  2.8614 -1.1831
  190SAPI  C21521968   0.662   0.587   5.489  0.2220  0.0664 -0.5062
  190SAPI  H15R21969   0.634   0.688   5.522 -0.3298 -1.2777  3.6046
  190SAPI  C21621970   0.614   0.545   5.348  0.2749  0.1413  0.6603
  190SAPI  H16R21971   0.520   0.595   5.319  0.1418  0.0490  0.9283
  190SAPI  H16S21972   0.586   0.438   5.335  2.3806 -0.4523  0.5442
  190SAPI  C21721973   0.726   0.556   5.226  0.1485  0.3385  0.0755
  190SAPI  H17R21974   0.781   0.460   5.229 -1.0737 -0.3697  1.4515
  190SAPI  H17S21975   0.793   0.642   5.248  1.3321  0.1380 -2.3508
  190SAPI  C21821976   0.648   0.583   5.099 -0.2420 -0.3578 -0.0734
  190SAPI  H18R21977   0.582   0.672   5.105 -0.0511 -0.2453  0.3853
  190SAPI  H18S21978   0.592   0.491   5.074 -1.2087  0.2625 -0.2470
  190SAPI  C21921979   0.731   0.602   4.966 -1.0790  0.2945 -0.3757
  190SAPI  H19R21980   0.785   0.507   4.947 -0.4188  0.7670 -0.8949
  190SAPI  H19S21981   0.806   0.681   4.983 -0.1787 -0.8512  1.1448
  190SAPI  C22021982   0.650   0.644   4.848  0.5261 -0.6177 -0.6204
  190SAPI  H20R21983   0.718   0.680   4.768  1.5470 -0.7061  0.1840
  190SAPI  H20S21984   0.591   0.735   4.869  2.4220  0.2741  1.0992
  190SAPI  H20T21985   0.578   0.563   4.819 -0.5047 -1.2414  3.0793
  190SAPI   C3321986   1.446   0.467   5.982  0.7856  0.2178  0.2596
  190SAPI   H3X21987   1.341   0.502   5.974  0.9807  0.4651 -1.5672
  190SAPI   H3Y21988   1.438   0.368   6.032 -4.1174  0.4109  0.3401
  190SAPI   C3421989   1.513   0.461   5.838  0.8876 -1.2843  1.0141
  190SAPI   H4X21990   1.605   0.401   5.820  1.1569 -0.4677 -0.5389
  190SAPI   H4Y21991   1.531   0.569   5.817 -0.5984 -1.0325  0.9583
  190SAPI   C3521992   1.416   0.402   5.729 -0.0293 -0.6392  0.1268
  190SAPI   H5X21993   1.327   0.468   5.739  1.4978  1.9258 -1.9063
  190SAPI   H5Y21994   1.386   0.299   5.757 -0.0391 -0.2324  1.6704
  190SAPI   C3621995   1.470   0.402   5.586 -0.3981  0.4808  0.5839
  190SAPI   H6X21996   1.571   0.356   5.577 -1.3251 -1.5643  0.0275
  190SAPI   H6Y21997   1.467   0.505   5.544 -1.2389 -0.7195 -2.5671
  190SAPI   C3721998   1.378   0.324   5.507 -0.0933  0.4672  0.9838
  190SAPI   H7X21999   1.275   0.345   5.543 -0.7088 -0.7895  0.0704
  190SAPI   H7Y22000   1.399   0.215   5.519 -2.1586 -0.1055 -0.0826
  190SAPI   C3822001   1.380   0.358   5.358  0.1250 -0.5389  0.5697
  190SAPI   H8X22002   1.418   0.277   5.292 -0.7023  1.5431 -2.7294
  190SAPI   H8Y22003   1.445   0.444   5.332  2.0908 -2.2561 -0.4269
  190SAPI   C3922004   1.235   0.385   5.299 -0.1426 -0.2188  0.3288
  190SAPI   H9X22005   1.197   0.474   5.352  0.8763  1.1033 -1.0790
  190SAPI   H9Y22006   1.173   0.295   5.321  0.9000 -1.5422 -1.8173
  190SAPI  C31022007   1.218   0.413   5.148 -0.9339  0.2218 -0.2389
  190SAPI  H10X22008   1.263   0.511   5.122  1.2503 -0.7142 -0.1687
  190SAPI  H10Y22009   1.112   0.433   5.122 -0.4911  3.0198 -0.1309
  190SAPI  C31122010   1.285   0.304   5.063 -0.0808  0.6556  0.0820
  190SAPI  H11X22011   1.259   0.200   5.095 -1.7013  0.9661 -0.1172
  190SAPI  H11Y22012   1.394   0.319   5.077  0.0680  0.4793 -0.7757
  190SAPI  C31222013   1.250   0.324   4.915 -0.2988 -0.2715  0.4564
  190SAPI  H12X22014   1.288   0.419   4.873  2.0187 -1.7091 -0.9190
  190SAPI  H12Y22015   1.139   0.332   4.908 -0.2197 -0.5231 -1.7769
  190SAPI  C31322016   1.306   0.212   4.828  0.0599  0.2076  0.2246
  190SAPI  H13X22017   1.256   0.210   4.729  0.2355  2.2863  0.0399
  190SAPI  H13Y22018   1.278   0.116   4.875 -1.2153  0.7338  0.5849
  190SAPI  C31422019   1.454   0.222   4.805 -0.9537  0.2076 -0.1807
  190SAPI  H14X22020   1.506   0.240   4.901 -0.6011 -0.1929 -0.2926
  190SAPI  H14Y22021   1.490   0.299   4.734  2.2109 -2.4593 -1.7282
  190SAPI  C31522022   1.528   0.092   4.755  0.2012  0.4056  0.4143
  190SAPI  H15X22023   1.507   0.077   4.647 -0.8258  0.8292  0.5498
  190SAPI  H15Y22024   1.492   0.006   4.815  1.3833 -0.0982  0.4344
  190SAPI  C31622025   1.678   0.100   4.786  0.0152  0.3817  0.1573
  190SAPI  H16X22026   1.692   0.134   4.891 -1.0624  1.0177  0.1073
  190SAPI  H16Y22027   1.726   0.164   4.710 -0.6216  1.4045  0.5973
  190SAPI  C31722028   1.734  -0.047   4.784 -0.7668  0.3509  0.8626
  190SAPI  H17X22029   1.688  -0.110   4.706  1.7589 -0.9058  0.3003
  190SAPI  H17Y22030   1.737  -0.099   4.882  1.2944 -0.2584  0.5239
  190SAPI  C31822031   1.876  -0.031   4.741  0.1736  0.6893  0.1147
  190SAPI  H18X22032   1.894  -0.004   4.635  0.1057 -2.3209 -0.7461
  190SAPI  H18Y22033   1.931  -0.128   4.746  1.5370  1.2207 -2.7155
  190SAPI  H18Z22034   1.934   0.042   4.801  0.3062  0.4496  0.2827
  191SAPI   C1222035   0.109   0.641   1.799 -0.8454  0.6859  0.2037
  191SAPI    H222036   0.098   0.732   1.736  1.4111 -0.4171 -1.9676
  191SAPI    O222037  -0.016   0.575   1.815  0.0350 -0.8988  0.3537
  191SAPI   HO222038  -0.039   0.600   1.905 -1.1522  1.4196 -0.4872
  191SAPI   C1322039   0.207   0.548   1.727  0.1857 -0.1905 -0.5752
  191SAPI    H322040   0.306   0.594   1.706  0.3681  0.3236  1.2288
  191SAPI    O322041   0.163   0.533   1.591  0.0850  0.1707  0.1226
  191SAPI   HO322042   0.166   0.439   1.571 -1.2801  0.0372  0.4334
  191SAPI   C1422043   0.230   0.413   1.796  0.1682  0.1064  0.3256
  191SAPI    H422044   0.135   0.360   1.775 -0.9243  2.6439 -1.6337
  191SAPI    O422045   0.322   0.339   1.721  0.1547 -0.0794 -0.1584
  191SAPI   HO422046   0.408   0.362   1.758 -0.7487 -0.1535  2.1532
  191SAPI   C1522047   0.243   0.419   1.945  0.4234  0.5017  0.3421
  191SAPI    H522048   0.354   0.407   1.953  0.5204 -1.0929 -2.3054
  191SAPI    O522049   0.191   0.306   2.009  0.4041  0.6130  0.5387
  191SAPI   HO522050   0.261   0.256   2.052 -1.5349 -2.7668  0.1120
  191SAPI   C1622051   0.209   0.549   2.014  0.0345 -0.5148 -0.0429
  191SAPI    H622052   0.108   0.530   2.057 -1.7705  1.7805 -2.8950
  191SAPI    O622053   0.296   0.577   2.116 -0.2063  0.8107 -0.3093
  191SAPI   HO622054   0.383   0.606   2.087  0.3230  0.4642  0.8560
  191SAPI   C1122055   0.163   0.678   1.933  0.4478  0.0986 -0.3285
  191SAPI    H122056   0.257   0.733   1.913 -0.2332  1.4553  0.1190
  191SAPI     P22057   0.111   0.892   2.095 -0.0327  0.6003 -0.0935
  191SAPI   O1322058  -0.018   0.971   2.095  0.3451  0.2235  0.1094
  191SAPI   O1422059   0.231   0.956   2.044 -0.0673 -0.1848  0.0031
  191SAPI   O1222060   0.069   0.759   2.009  0.2367  0.3311  0.1918
  191SAPI   O1122061   0.143   0.829   2.236 -0.4295 -0.2727 -0.7441
  191SAPI    C122062   0.033   0.767   2.303  0.6119 -0.1400 -0.2629
  191SAPI    HA22063  -0.065   0.778   2.250  0.0927 -0.2082  0.6648
  191SAPI    HB22064   0.050   0.657   2.304  2.1178 -0.0019 -2.4875
  191SAPI    C222065   0.016   0.819   2.447  0.2957 -0.2744 -0.4185
  191SAPI    HS22066  -0.060   0.760   2.503  1.1028  0.3298  1.4073
  191SAPI   O2122067  -0.021   0.959   2.454 -0.1995 -0.3139  0.4050
  191SAPI   C2122068  -0.143   0.979   2.412  1.0759 -0.0986 -0.5484
  191SAPI   O2222069  -0.231   0.890   2.399  0.1211  0.3919  0.0733
  191SAPI   C2222070  -0.162   1.129   2.368  1.0827  0.7062  0.4546
  191SAPI   H2R22071  -0.098   1.183   2.441  0.2416  0.5627  1.3155
  191SAPI   H2S22072  -0.127   1.136   2.263 -1.1259 -1.1457 -0.4847
  191SAPI    C322073   0.150   0.798   2.530  0.1706  0.3522  0.4722
  191SAPI    HX22074   0.214   0.877   2.485  1.2144 -0.2368  0.8781
  191SAPI    HY22075   0.202   0.705   2.500  1.4485  0.8310  1.1114
  191SAPI   O3122076   0.128   0.805   2.674 -0.2305  0.6755  0.1988
  191SAPI   C3122077   0.193   0.889   2.754 -1.1503  0.1894  0.1841
  191SAPI   O3222078   0.278   0.967   2.716  1.0678 -0.1787 -0.0638
  191SAPI   C3222079   0.135   0.885   2.897  0.4768 -0.5178 -0.1558
  191SAPI   H2X22080   0.139   0.785   2.944  1.3382  0.3657  1.7868
  191SAPI   H2Y22081   0.030   0.917   2.879  1.1344  0.5208 -2.5706
  191SAPI   C2322082  -0.309   1.170   2.375  0.4854 -0.0632  0.7265
  191SAPI   H3R22083  -0.382   1.093   2.341  0.0895  0.9285 -0.7576
  191SAPI   H3S22084  -0.331   1.253   2.305  0.0526 -0.6262  0.1871
  191SAPI   C2422085  -0.343   1.217   2.523  0.9857 -0.9303 -0.4360
  191SAPI   H4R22086  -0.340   1.137   2.600 -0.7313 -0.7647 -0.1634
  191SAPI   H4S22087  -0.453   1.231   2.528  1.0574 -0.4783  0.0256
  191SAPI   C2522088  -0.272   1.346   2.554  0.2007 -0.3657 -0.0826
  191SAPI   H5R22089  -0.266   1.420   2.473 -0.4405  0.0288  0.2246
  191SAPI   C2622090  -0.221   1.394   2.670 -0.4407  1.0135 -0.0470
  191SAPI   H6R22091  -0.170   1.491   2.669 -1.0984  1.3706  0.3052
  191SAPI   C2722092  -0.202   1.333   2.810 -0.0745  0.7348  0.0660
  191SAPI   H7R22093  -0.300   1.344   2.860  0.6721 -3.2143  2.7999
  191SAPI   H7S22094  -0.126   1.397   2.860  0.3638 -1.0844  1.8226
  191SAPI   C2822095  -0.167   1.185   2.814 -0.4657 -1.1252 -0.6105
  191SAPI   H8R22096  -0.083   1.153   2.751 -0.2152 -2.7927  0.4981
  191SAPI   C2922097  -0.213   1.097   2.908 -0.3122 -0.4147 -0.1506
  191SAPI   H9R22098  -0.166   0.998   2.904  1.7965  0.5766 -1.9309
  191SAPI  C21022099  -0.325   1.117   3.012  0.0486 -0.0375  0.1146
  191SAPI  H10R22100  -0.334   1.015   3.056  3.1608  0.1593  1.5221
  191SAPI  H10S22101  -0.409   1.161   2.955  0.2703  2.2436  1.4136
  191SAPI  C21122102  -0.292   1.201   3.132  0.2386 -0.5163  0.0353
  191SAPI  H11R22103  -0.230   1.289   3.109 -1.1193  0.6890  0.8054
  191SAPI  C21222104  -0.352   1.191   3.255 -0.8868  0.4723 -0.5185
  191SAPI  H12R22105  -0.314   1.256   3.336 -1.1532 -0.1034  0.0789
  191SAPI  C21322106  -0.448   1.085   3.309  0.0349 -0.2635  0.8237
  191SAPI  H13R22107  -0.410   1.044   3.405 -2.5003  1.1151  2.5151
  191SAPI  H13S22108  -0.448   0.995   3.244  0.0225 -1.4572  2.4247
  191SAPI  C21422109  -0.594   1.120   3.316 -0.2783 -0.5148  0.5271
  191SAPI  H14R22110  -0.658   1.082   3.235  0.5129 -0.2180 -0.2495
  191SAPI  C21522111  -0.652   1.194   3.409 -0.2075  0.0993  0.6612
  191SAPI  H15R22112  -0.761   1.207   3.402 -0.5648 -2.9452 -1.0047
  191SAPI  C21622113  -0.591   1.265   3.528  0.0269  0.5318  0.4737
  191SAPI  H16R22114  -0.489   1.304   3.508  0.3527 -0.1968  0.6948
  191SAPI  H16S22115  -0.586   1.203   3.620 -0.8175 -0.5235 -0.1657
  191SAPI  C21722116  -0.674   1.388   3.577 -0.3343 -0.6978 -0.6103
  191SAPI  H17R22117  -0.780   1.359   3.588  0.0404 -1.3288  2.1344
  191SAPI  H17S22118  -0.684   1.468   3.501 -0.1468  1.2714  1.3177
  191SAPI  C21822119  -0.629   1.448   3.711  0.3199 -0.7334 -0.1974
  191SAPI  H18R22120  -0.623   1.372   3.791 -1.6952 -0.9570 -0.2136
  191SAPI  H18S22121  -0.704   1.519   3.752  0.7754 -0.6223  0.4567
  191SAPI  C21922122  -0.491   1.517   3.698 -0.3366  0.6115 -0.4460
  191SAPI  H19R22123  -0.404   1.447   3.699  0.3005  1.3872  0.9830
  191SAPI  H19S22124  -0.465   1.580   3.785  0.5718  1.9837 -1.6674
  191SAPI  C22022125  -0.471   1.597   3.569 -0.3553 -0.2402  0.2953
  191SAPI  H20R22126  -0.371   1.647   3.571 -0.5056  0.1045 -0.5457
  191SAPI  H20S22127  -0.547   1.677   3.563 -0.0417  0.0386 -0.0585
  191SAPI  H20T22128  -0.489   1.547   3.472 -2.5733  0.4391  0.3047
  191SAPI   C3322129   0.201   0.987   2.978 -0.3068 -0.3685  0.0160
  191SAPI   H3X22130   0.221   1.081   2.924 -0.2336  0.4996  1.4926
  191SAPI   H3Y22131   0.305   0.965   3.014  0.3243  1.0667 -0.8449
  191SAPI   C3422132   0.113   1.028   3.098 -0.4574 -0.0516 -0.0582
  191SAPI   H4X22133   0.022   1.084   3.068 -1.8505 -0.6286  2.7508
  191SAPI   H4Y22134   0.179   1.092   3.160 -0.5216  0.1787 -0.2275
  191SAPI   C3522135   0.066   0.913   3.182  0.0061  0.0781  0.6458
  191SAPI   H5X22136   0.142   0.832   3.190  0.8783  0.9518  1.4518
  191SAPI   H5Y22137  -0.013   0.858   3.126  0.2829  0.7501 -0.4483
  191SAPI   C3622138   0.023   0.954   3.319 -0.0865 -0.4314  0.5038
  191SAPI   H6X22139  -0.055   1.030   3.300  0.4059 -0.3598 -1.3543
  191SAPI   H6Y22140   0.110   0.994   3.376  1.2716  0.0468 -1.7657
  191SAPI   C3722141  -0.039   0.846   3.405  0.3827  0.0050 -0.8384
  191SAPI   H7X22142   0.031   0.761   3.392  1.8017  1.0791 -0.5615
  191SAPI   H7Y22143  -0.139   0.817   3.367  0.1331  0.5392 -0.5947
  191SAPI   C3822144  -0.061   0.881   3.558  0.2504  0.5260  0.2432
  191SAPI   H8X22145   0.036   0.923   3.593  0.2278  0.8292 -0.0524
  191SAPI   H8Y22146  -0.084   0.786   3.612 -0.8333 -0.6863 -2.2046
  191SAPI   C3922147  -0.179   0.981   3.570  0.3360 -0.0062  0.8798
  191SAPI   H9X22148  -0.273   0.927   3.545  2.3406 -1.9534 -3.5914
  191SAPI   H9Y22149  -0.161   1.060   3.495  0.7028 -0.4592  0.4811
  191SAPI  C31022150  -0.199   1.040   3.710  0.1513  0.1759 -0.3045
  191SAPI  H10X22151  -0.100   1.045   3.762  0.8087 -1.4942 -1.3149
  191SAPI  H10Y22152  -0.254   0.967   3.773 -0.0184  0.3740 -0.2222
  191SAPI  C31122153  -0.278   1.169   3.719 -0.5444 -0.1187  0.4448
  191SAPI  H11X22154  -0.386   1.145   3.718 -0.9108  1.4074 -1.4894
  191SAPI  H11Y22155  -0.253   1.233   3.632 -1.4672 -2.3486 -1.6038
  191SAPI  C31222156  -0.247   1.236   3.854 -0.2058  0.0074  0.2483
  191SAPI  H12X22157  -0.300   1.333   3.862 -0.0275  0.1272 -0.0013
  191SAPI  H12Y22158  -0.138   1.255   3.862 -0.2273  1.0211 -1.4406
  191SAPI  C31322159  -0.284   1.156   3.980  0.0769  0.2140  0.3564
  191SAPI  H13X22160  -0.251   1.050   3.974  0.8228  0.5146 -1.8138
  191SAPI  H13Y22161  -0.390   1.176   4.006 -0.0875  1.0058 -0.8445
  191SAPI  C31422162  -0.214   1.206   4.108  0.1023 -0.0716 -0.4763
  191SAPI  H14X22163  -0.245   1.307   4.141  0.1202 -0.7663  1.8798
  191SAPI  H14Y22164  -0.104   1.219   4.100 -0.2029  3.0150 -0.6661
  191SAPI  C31522165  -0.241   1.114   4.232 -1.1928 -0.8292 -0.4279
  191SAPI  H15X22166  -0.160   1.137   4.305 -1.2078 -2.0837  0.0114
  191SAPI  H15Y22167  -0.236   1.008   4.198 -1.3237 -1.3953  1.2091
  191SAPI  C31622168  -0.365   1.146   4.313  0.7582 -0.3550  0.1381
  191SAPI  H16X22169  -0.395   1.251   4.293 -0.4957 -0.8592 -0.8228
  191SAPI  H16Y22170  -0.346   1.128   4.421  0.6033 -0.5727  0.1309
  191SAPI  C31722171  -0.487   1.055   4.286  0.1815 -0.1119 -0.1474
  191SAPI  H17X22172  -0.455   0.951   4.306  0.6721  0.4588  2.4285
  191SAPI  H17Y22173  -0.510   1.058   4.178 -0.5200  0.5038  0.0070
  191SAPI  C31822174  -0.608   1.094   4.368  0.0252 -0.2039  0.1405
  191SAPI  H18X22175  -0.706   1.046   4.347  0.0365 -0.6521  1.0508
  191SAPI  H18Y22176  -0.621   1.204   4.370  0.5643 -0.1237 -0.5042
  191SAPI  H18Z22177  -0.591   1.073   4.476 -0.3879  1.6807  0.5984
  192SAPI   C1222178   3.371   2.809   2.326 -0.2287 -0.7519  0.1820
  192SAPI    H222179   3.285   2.853   2.381  0.4988 -0.5837  1.2113
  192SAPI    O222180   3.454   2.923   2.276  0.6557  0.2750  0.5062
  192SAPI   HO222181   3.400   2.937   2.198  2.5961  1.3154 -0.7582
  192SAPI   C1322182   3.450   2.729   2.426 -0.0787  0.1663  0.5563
  192SAPI    H322183   3.381   2.662   2.483  0.9655 -0.2136  1.3951
  192SAPI    O322184   3.514   2.815   2.518 -0.2658 -0.0788  0.1418
  192SAPI   HO322185   3.517   2.905   2.484 -0.0098 -1.0076 -2.5289
  192SAPI   C1422186   3.559   2.640   2.360 -0.4756  0.2346  0.1923
  192SAPI    H422187   3.639   2.711   2.334  0.8890 -1.0530  0.7429
  192SAPI    O422188   3.604   2.546   2.457  0.1326 -0.2351  0.1241
  192SAPI   HO422189   3.652   2.600   2.521 -3.5986  3.2245  0.4093
  192SAPI   C1522190   3.535   2.578   2.219 -0.1046  0.3733 -0.4936
  192SAPI    H522191   3.493   2.478   2.240  3.9049 -1.5286 -0.7002
  192SAPI    O522192   3.658   2.563   2.142 -0.1569 -0.0438  0.1968
  192SAPI   HO522193   3.643   2.490   2.081  2.3108 -1.0100  0.6192
  192SAPI   C1622194   3.426   2.646   2.134 -1.1367  0.3666 -0.4020
  192SAPI    H622195   3.491   2.717   2.078  1.9353 -1.2427  0.9237
  192SAPI    O622196   3.368   2.557   2.044 -0.1140 -0.6848  0.0336
  192SAPI   HO622197   3.398   2.577   1.954  1.9127  2.1010  1.1920
  192SAPI   C1122198   3.323   2.726   2.201 -0.0302  0.0696 -0.8516
  192SAPI    H122199   3.263   2.647   2.251  4.7652 -1.7350  2.8877
  192SAPI     P22200   3.100   2.798   2.093  0.3635  0.3100 -0.0683
  192SAPI   O1322201   3.070   2.654   2.071 -0.3003  0.1181 -0.4609
  192SAPI   O1422202   3.052   2.887   1.984 -0.5327 -0.3889  0.4167
  192SAPI   O1222203   3.258   2.815   2.108 -0.3892  0.2787  0.2524
  192SAPI   O1122204   3.041   2.837   2.232  0.1298  0.1170  0.0727
  192SAPI    C122205   3.026   2.973   2.269 -0.0513  0.3931 -0.3488
  192SAPI    HA22206   3.124   3.019   2.293  0.4571  0.7255 -2.8520
  192SAPI    HB22207   2.973   3.035   2.195 -1.0979  1.2420  1.0613
  192SAPI    C222208   2.939   2.990   2.405 -0.2070 -0.5038 -0.5126
  192SAPI    HS22209   2.962   3.087   2.454  0.0231  0.5976 -2.6390
  192SAPI   O2122210   2.972   2.888   2.501  0.7394 -0.0194 -0.3082
  192SAPI   C2122211   3.077   2.920   2.573  0.4801 -0.0932 -0.4017
  192SAPI   O2222212   3.138   3.022   2.578 -0.4145 -0.4924  0.2234
  192SAPI   C2222213   3.125   2.779   2.629 -0.0646  0.0627 -0.6270
  192SAPI   H2R22214   3.040   2.724   2.674 -0.4463  1.1085 -0.0395
  192SAPI   H2S22215   3.166   2.738   2.534 -2.1132  2.7567 -2.8577
  192SAPI    C322216   2.790   2.997   2.387  0.1233  0.3202  0.1220
  192SAPI    HX22217   2.746   2.904   2.345 -2.5460  1.6414 -0.1889
  192SAPI    HY22218   2.778   3.063   2.299 -0.2967  1.0848  0.7319
  192SAPI   O3122219   2.712   3.045   2.495  0.3509 -0.0230  0.2854
  192SAPI   C3122220   2.579   3.029   2.478  0.1615  0.0046 -0.8433
  192SAPI   O3222221   2.529   2.975   2.378 -0.4635 -0.9565  0.4939
  192SAPI   C3222222   2.502   3.069   2.596  0.6130  0.3443 -0.4980
  192SAPI   H2X22223   2.490   3.179   2.596  1.3275  0.4334  0.4667
  192SAPI   H2Y22224   2.564   3.042   2.684  1.6960 -0.3155 -1.4239
  192SAPI   C2322225   3.235   2.792   2.729  0.2699  0.4296  0.0233
  192SAPI   H3R22226   3.326   2.843   2.689 -0.5396  0.8156 -1.3831
  192SAPI   H3S22227   3.264   2.686   2.746  0.6181  0.7240  1.3648
  192SAPI   C2422228   3.218   2.867   2.863 -0.6414  0.0864 -0.0025
  192SAPI   H4R22229   3.218   2.976   2.844 -0.2044  0.5577  2.3448
  192SAPI   H4S22230   3.315   2.844   2.912  0.3552 -0.2611 -2.0450
  192SAPI   C2522231   3.104   2.824   2.948 -0.3808  0.1118 -0.3944
  192SAPI   H5R22232   3.009   2.822   2.892 -0.1125 -0.4613 -0.8430
  192SAPI   C2622233   3.108   2.814   3.083 -0.0761 -0.1949 -0.1982
  192SAPI   H6R22234   3.013   2.793   3.137 -0.6771  0.7090 -0.8783
  192SAPI   C2722235   3.233   2.842   3.165  0.2273 -0.5568  0.1884
  192SAPI   H7R22236   3.316   2.896   3.114 -0.2997  0.1282  0.0443
  192SAPI   H7S22237   3.281   2.742   3.180  1.2921 -0.0938 -0.0093
  192SAPI   C2822238   3.195   2.916   3.291  0.4986  0.4546  0.8536
  192SAPI   H8R22239   3.224   3.022   3.289  3.7115 -0.3274  0.7718
  192SAPI   C2922240   3.157   2.861   3.404 -0.0670 -0.8023 -0.3107
  192SAPI   H9R22241   3.147   2.923   3.494 -1.8707  0.8240 -1.5234
  192SAPI  C21022242   3.150   2.709   3.427  0.2408  0.2755 -0.5584
  192SAPI  H10R22243   3.247   2.661   3.406 -0.0234 -0.6883  0.3587
  192SAPI  H10S22244   3.065   2.668   3.368  0.9755  0.6779 -1.9506
  192SAPI  C21122245   3.119   2.679   3.572 -0.0855 -0.4080  0.1775
  192SAPI  H11R22246   3.018   2.639   3.586 -0.1886  0.0904  0.8975
  192SAPI  C21222247   3.189   2.699   3.684 -0.1230  0.0950  0.0186
  192SAPI  H12R22248   3.143   2.659   3.776 -1.5211 -0.1023 -0.7294
  192SAPI  C21322249   3.331   2.760   3.695  0.2834  0.2664  0.0393
  192SAPI  H13R22250   3.313   2.866   3.721 -2.4208 -0.1936  0.3160
  192SAPI  H13S22251   3.377   2.759   3.594 -1.4807 -1.7701 -0.8290
  192SAPI  C21422252   3.419   2.697   3.809 -0.6561  0.4617  0.2443
  192SAPI  H14R22253   3.473   2.606   3.779 -2.4799 -0.3304 -0.8513
  192SAPI  C21522254   3.414   2.724   3.938 -0.3340 -0.1286  0.3870
  192SAPI  H15R22255   3.479   2.679   4.015 -0.1449 -3.2605 -1.4495
  192SAPI  C21622256   3.325   2.832   3.993  0.1454  0.2230  0.3318
  192SAPI  H16R22257   3.237   2.842   3.926  1.0114 -0.2079 -0.9010
  192SAPI  H16S22258   3.373   2.930   4.013  1.1947 -0.3053  0.4835
  192SAPI  C21722259   3.272   2.773   4.124  0.3052  0.2804 -0.6833
  192SAPI  H17R22260   3.343   2.709   4.181  1.0744 -1.2454 -3.2156
  192SAPI  H17S22261   3.199   2.695   4.094 -0.3528  0.7471 -0.3120
  192SAPI  C21822262   3.203   2.887   4.204  0.1432 -0.5938 -0.1783
  192SAPI  H18R22263   3.164   2.839   4.296  2.1915  0.1962  1.1848
  192SAPI  H18S22264   3.123   2.932   4.142  1.7268  0.5978 -1.4548
  192SAPI  C21922265   3.306   2.992   4.256 -0.1466  0.0900 -0.2555
  192SAPI  H19R22266   3.351   3.056   4.177 -1.5468  0.5942 -0.6803
  192SAPI  H19S22267   3.385   2.936   4.311  0.6247  2.3460  1.0895
  192SAPI  C22022268   3.237   3.098   4.346  0.2135  0.5258  0.5743
  192SAPI  H20R22269   3.178   3.159   4.273  2.9196  0.0229 -2.2554
  192SAPI  H20S22270   3.315   3.169   4.381 -0.1968 -0.0176  2.7030
  192SAPI  H20T22271   3.184   3.056   4.434 -1.0466 -2.2957 -1.3949
  192SAPI   C3322272   2.365   2.991   2.608 -0.0792  0.0588 -0.0916
  192SAPI   H3X22273   2.378   2.881   2.601 -2.4691 -0.2685 -0.0336
  192SAPI   H3Y22274   2.299   3.018   2.523 -1.4537  1.4071  1.3436
  192SAPI   C3422275   2.291   3.018   2.744 -0.5353 -0.1554  0.0596
  192SAPI   H4X22276   2.203   2.951   2.754 -0.2532 -0.5333  0.0566
  192SAPI   H4Y22277   2.253   3.122   2.739  1.6276  0.6843 -0.2185
  192SAPI   C3522278   2.373   2.999   2.867 -0.5615  0.2686 -0.1944
  192SAPI   H5X22279   2.469   3.052   2.852 -1.1653  1.1781 -0.9924
  192SAPI   H5Y22280   2.382   2.890   2.887  1.4983  0.2415 -1.0585
  192SAPI   C3622281   2.299   3.067   2.994  0.7055  0.1443  0.2786
  192SAPI   H6X22282   2.208   3.008   3.019  1.0141 -0.6415 -0.3956
  192SAPI   H6Y22283   2.281   3.173   2.966 -0.6943 -0.0495  0.4026
  192SAPI   C3722284   2.395   3.063   3.118  0.0990  0.2842  0.2504
  192SAPI   H7X22285   2.486   3.121   3.095  0.2114  0.3235  0.7809
  192SAPI   H7Y22286   2.437   2.963   3.145  0.3743  0.4836  0.5601
  192SAPI   C3822287   2.327   3.125   3.242 -0.3129  0.4302 -0.3518
  192SAPI   H8X22288   2.253   3.045   3.264 -1.1103  1.7488  2.0407
  192SAPI   H8Y22289   2.264   3.215   3.223  0.6375  1.0263 -0.7435
  192SAPI   C3922290   2.428   3.148   3.359 -0.5557 -0.0380 -0.0591
  192SAPI   H9X22291   2.493   3.235   3.340  1.9771 -2.1734 -2.0879
  192SAPI   H9Y22292   2.492   3.058   3.371 -0.3797  0.2410  1.2842
  192SAPI  C31022293   2.359   3.173   3.484 -0.0377  0.9257 -1.0067
  192SAPI  H10X22294   2.279   3.099   3.503  1.2427 -0.0190  1.2206
  192SAPI  H10Y22295   2.317   3.276   3.487  1.1329  1.4023  0.0236
  192SAPI  C31122296   2.460   3.170   3.604 -0.2082 -1.0147  0.7119
  192SAPI  H11X22297   2.525   3.259   3.591 -0.1900 -1.1737 -0.4475
  192SAPI  H11Y22298   2.527   3.081   3.602  0.7988 -0.3205 -2.4099
  192SAPI  C31222299   2.382   3.175   3.729  0.0373  0.3401 -0.3053
  192SAPI  H12X22300   2.315   3.086   3.725  1.0246 -0.3900 -0.8826
  192SAPI  H12Y22301   2.328   3.272   3.724  0.2191  0.4318 -0.4784
  192SAPI  C31322302   2.473   3.162   3.855 -0.1303  0.3166  0.1735
  192SAPI  H13X22303   2.558   3.232   3.845 -1.4072  2.1049  1.2891
  192SAPI  H13Y22304   2.509   3.057   3.858  0.8574  0.5432 -1.9591
  192SAPI  C31422305   2.408   3.193   3.995 -0.0057  0.2845 -0.4273
  192SAPI  H14X22306   2.322   3.124   4.011  0.1169 -0.1653 -1.5829
  192SAPI  H14Y22307   2.367   3.296   3.994  0.3095  0.4151 -2.1209
  192SAPI  C31522308   2.508   3.168   4.114  0.2659  0.8303  0.0150
  192SAPI  H15X22309   2.584   3.249   4.125 -0.2170  1.0901  1.9790
  192SAPI  H15Y22310   2.547   3.065   4.102 -1.1054  0.1774  0.9086
  192SAPI  C31622311   2.428   3.156   4.243  1.4860  0.6318  0.1062
  192SAPI  H16X22312   2.317   3.154   4.237  1.3316  3.3546  0.7584
  192SAPI  H16Y22313   2.449   3.250   4.299  2.3405  0.6412 -0.2075
  192SAPI  C31722314   2.473   3.034   4.322  0.5505 -0.5978 -0.4531
  192SAPI  H17X22315   2.573   3.071   4.352 -0.4839  3.7468 -1.7122
  192SAPI  H17Y22316   2.473   2.944   4.255  2.8494 -2.5086  1.9050
  192SAPI  C31822317   2.378   3.016   4.438  0.3527  0.5367  0.2527
  192SAPI  H18X22318   2.402   2.915   4.479  0.5366 -0.0090 -1.1575
  192SAPI  H18Y22319   2.276   3.029   4.397  1.0013 -0.2675 -1.7092
  192SAPI  H18Z22320   2.389   3.101   4.509 -0.6653  1.0269 -0.1684
  193SOD    SOD22321   5.370   6.828   0.780  0.3845 -0.2631  0.4179
  194SOD    SOD22322   2.262   1.407   2.373 -0.3490  0.0927  0.1834
  195SOD    SOD22323   6.362   5.197   6.959 -0.2426  0.0582 -0.1537
  196SOD    SOD22324   5.697   3.099   6.232 -0.1503  0.0068 -0.1241
  197SOD    SOD22325   3.091   6.784   0.661 -0.1309 -0.1413  0.0076
  198SOD    SOD22326   3.180   3.940   0.600 -0.0301 -0.5157 -0.1253
  199SOD    SOD22327   0.018   6.097   1.958 -0.2773  0.5456  0.4653
  200SOD    SOD22328   6.030   4.146   8.540 -0.5899 -0.0117  0.2158
  201SOD    SOD22329   1.125   0.303   1.319 -0.0084  0.1123 -0.3102
  202SOD    SOD22330   4.659   4.978   2.555  0.0266  0.6211  0.3498
  203SOD    SOD22331   5.733   4.252   7.155  0.6045  0.0645 -0.2872
  204SOD    SOD22332   2.071   2.257   1.356 -0.3163  0.0211 -0.6909
  205SOD    SOD22333   4.156   5.122   8.236  0.1831 -0.2680 -0.0300
  206SOD    SOD22334   1.520   0.062   8.125  0.0143 -0.2539  0.0740
  207SOD    SOD22335   4.393   6.037   7.709  0.4434 -0.4185 -0.4648
  208SOD    SOD22336   6.146   1.947   0.009  0.0618 -0.0050  0.0753
  209SOD    SOD22337   3.392   4.808   8.134  0.1867 -0.2359 -0.0106
  210SOD    SOD22338   5.697   6.237   0.298 -0.1019  0.2601  0.4016
  211SOD    SOD22339   5.470   0.412   0.686 -0.3272  0.6067 -0.4704
  212SOD    SOD22340   4.096   2.986   2.012  0.0130  0.1268 -0.4289
  213SOD    SOD22341   3.709   4.423   7.350  0.1510  0.4288  0.2476
  214SOD    SOD22342   2.103   0.079   0.374  0.3487  0.0549 -0.0836
  215SOD    SOD22343   4.337   4.628   0.696  0.0251 -0.1549  0.0111
  216SOD    SOD22344   5.268   4.982   0.366 -0.7052  0.0612 -0.1448
  217SOD    SOD22345   5.731   5.641   1.232 -0.5987 -0.3556 -0.4302
  218SOD    SOD22346   1.307   5.680   7.073  0.0887 -0.2725  0.1794
  219SOD    SOD22347   4.261   2.626   6.452 -0.0625 -0.6414  0.3765
  220SOD    SOD22348   3.179   2.443   2.115  0.2885  0.2867 -0.1467
  221SOD    SOD22349   6.802   3.122   7.122 -0.1074 -0.0189 -0.2614
  222SOD    SOD22350   4.096   3.731   7.510  0.1885  0.2618 -0.1716
  223SOD    SOD22351   2.266   0.437   7.159  0.2028 -0.2468  0.5903
  224SOD    SOD22352   0.918   2.290   6.901 -0.2359 -0.0704  0.4862
  225SOD    SOD22353   6.603   1.474   6.599 -0.2074  0.3761  0.2304
  226SOD    SOD22354   2.616   5.951   0.128 -0.0245 -0.4038 -0.3486
  227SOD    SOD22355   6.605   4.388   1.641  0.2243  0.0610 -0.0241
  228SOD    SOD22356   3.596   2.972   0.395 -0.2076 -0.1820  0.1240
  229SOD    SOD22357   1.891   1.421   7.291 -0.0204  0.2388  0.1608
  230CLA    CLA22358   0.186   2.198   6.747  0.3031  0.1025  0.3530
  231CLA    CLA22359   3.792   5.384   7.993 -0.3470  0.2436 -0.0769
  232CLA    CLA22360   4.266   4.525   8.487 -0.2868  0.1088  0.3144
  233CLA    CLA22361   1.678   5.863   0.929 -0.2260  0.2781 -0.0333
  234CLA    CLA22362   1.513   0.920   8.526  0.1675 -0.0495 -0.0210
  235CLA    CLA22363   3.374   4.843   7.575 -0.0118 -0.0666  0.1302
  236CLA    CLA22364   5.372   6.790   8.618  0.0192 -0.0051 -0.2703
  237CLA    CLA22365   6.247   4.051   8.086 -0.2462  0.1313  0.2062
  238CLA    CLA22366   1.572   4.370   0.174  0.0400  0.2795 -0.1314
  239CLA    CLA22367   2.841   5.129   6.621 -0.2074 -0.2423 -0.1228
  240CLA    CLA22368   4.658   5.649   1.619  0.3254  0.1745 -0.1762
  241CLA    CLA22369   2.532   3.853   1.570  0.4084 -0.4742  0.2843
  242CLA    CLA22370   0.470   1.955   0.907  0.1613 -0.2274 -0.0691
  243CLA    CLA22371   6.037   1.228   7.719  0.3753  0.0549 -0.0854
  244CLA    CLA22372   3.046   2.547   0.273 -0.5276  0.0468  0.0457
  245CLA    CLA22373   5.430   4.003   7.502  0.3959  0.0477  0.2728
  246CLA    CLA22374   5.281   5.887   7.551 -0.0133 -0.2600 -0.2151
  247TIP3   OH222375   1.852   4.368   0.848  0.4080 -0.0568  0.0399
  247TIP3    H122376   1.765   4.333   0.869 -0.1676  1.7437  0.8355
  247TIP3    H222377   1.867   4.436   0.914  1.9386  0.4309 -0.7746
  248TIP3   OH222378   1.702   6.498   8.281 -0.2544  0.3636  0.2630
  248TIP3    H122379   1.754   6.429   8.240  3.5181 -0.3402  5.1881
  248TIP3    H222380   1.611   6.473   8.266  0.8003 -1.9427 -3.5973
  249TIP3   OH222381   3.666   4.776   0.610 -0.2274  0.3035  0.0579
  249TIP3    H122382   3.751   4.738   0.631 -0.2912  0.6409  0.9653
  249TIP3    H222383   3.685   4.850   0.553  0.0556  0.1569 -0.0360
  250TIP3   OH222384   0.325   1.252   8.370 -0.3981  0.0235 -0.3695
  250TIP3    H122385   0.346   1.214   8.284  0.1652  0.1535 -0.2939
  250TIP3    H222386   0.357   1.342   8.364 -2.3499  0.7516 -0.7983
  251TIP3   OH222387   6.243   3.272   2.177 -0.6299  0.2994 -0.0872
  251TIP3    H122388   6.255   3.180   2.155 -0.6881  0.7709 -2.2977
  251TIP3    H222389   6.312   3.290   2.241 -0.8836 -1.3460  0.7120
  252TIP3   OH222390   5.688   4.290   8.118 -0.4146 -0.9756 -0.6328
  252TIP3    H122391   5.731   4.235   8.053  0.1749 -1.6387  0.2807
  252TIP3    H222392   5.644   4.229   8.177 -0.0442 -0.4710  0.1992
  253TIP3   OH222393   2.529   3.865   0.503 -0.3746 -0.5720  0.2905
  253TIP3    H122394   2.529   3.788   0.560 -0.3086 -0.3196  0.6381
  253TIP3    H222395   2.617   3.866   0.465 -0.3028 -0.5482  0.4542
  254TIP3   OH222396   2.844   6.379   7.152  0.3299  0.4506  0.5893
  254TIP3    H122397   2.793   6.315   7.202  1.5933 -0.1630  1.1434
  254TIP3    H222398   2.895   6.325   7.091 -1.0534  1.1668 -1.3000
  255TIP3   OH222399   4.578   5.057   5.988 -0.7382 -0.2965  0.4550
  255TIP3    H122400   4.528   5.132   5.958 -0.8209 -1.8297 -3.9037
  255TIP3    H222401   4.665   5.091   6.007 -1.3961  1.1942  0.9769
  256TIP3   OH222402   3.409   5.713   7.421  0.8427  0.0707  0.3252
  256TIP3    H122403   3.315   5.730   7.421  1.0673  1.4649  1.0444
  256TIP3    H222404   3.449   5.797   7.398  1.9459 -0.2280  1.0734
  257TIP3   OH222405   5.978   6.211   1.330  0.5184 -0.1607 -0.0673
  257TIP3    H122406   6.015   6.280   1.385 -1.6830  1.5258 -0.5222
  257TIP3    H222407   6.001   6.237   1.241  1.0629 -0.9227 -0.1497
  258TIP3   OH222408   3.800   6.013   1.294  0.6130  0.3162  0.2022
  258TIP3    H122409   3.844   6.090   1.330 -1.0749  1.4766 -0.0986
  258TIP3    H222410   3.826   5.942   1.353  0.8857  1.4279  1.5039
  259TIP3   OH222411   0.420   3.059   0.162  0.6561  0.6312 -0.8014
  259TIP3    H122412   0.347   3.120   0.162 -1.6502 -1.9158 -1.8451
  259TIP3    H222413   0.399   2.995   0.230  2.5116  0.4227 -0.3584
  260TIP3   OH222414   5.923   1.350   0.839 -0.2591  0.1444  0.0206
  260TIP3    H122415   5.921   1.418   0.771  0.2135 -1.4657 -1.7035
  260TIP3    H222416   5.853   1.290   0.815  0.5606 -0.9788  0.3630
  261TIP3   OH222417   5.611   2.031   8.398  0.3661  0.2057  0.0281
  261TIP3    H122418   5.595   1.978   8.320  0.2796 -0.0560  0.2237
  261TIP3    H222419   5.666   1.976   8.454  1.6648  0.9307 -0.4674
  262TIP3   OH222420   6.264   4.335   0.797  0.1733  0.0684 -0.2477
  262TIP3    H122421   6.217   4.273   0.853 -0.9219  0.8971 -0.2356
  262TIP3    H222422   6.198   4.372   0.739  0.6865  1.6328  0.1050
  263TIP3   OH222423   1.365   5.318   8.310 -0.5843 -0.0750 -0.7862
  263TIP3    H122424   1.457   5.304   8.288 -0.0818 -0.3468  1.2664
  263TIP3    H222425   1.336   5.234   8.345 -0.9421  0.6236  0.6783
  264TIP3   OH222426   2.842   1.379   6.333  0.6310 -0.0970  0.2391
  264TIP3    H122427   2.914   1.436   6.305  0.9156 -0.4688  0.2153
  264TIP3    H222428   2.771   1.399   6.271  0.9182 -0.1726 -0.1199
  265TIP3   OH222429   0.192   1.517   8.580 -0.3024  0.0833 -0.1762
  265TIP3    H122430   0.168   1.563   8.500  1.8446  0.7624 -0.4831
  265TIP3    H222431   0.158   1.572   8.650 -1.7887 -0.2815 -0.5769
  266TIP3   OH222432   1.928   4.767   2.303 -0.6652 -0.1914  0.1851
  266TIP3    H122433   2.022   4.786   2.301 -0.9858  1.8706  1.5449
  266TIP3    H222434   1.897   4.797   2.217 -0.3252  0.7999  0.3867
  267TIP3   OH222435   2.953   1.686   0.756 -0.0370 -0.0866 -0.8487
  267TIP3    H122436   2.899   1.608   0.771 -0.9029  0.6412 -0.0390
  267TIP3    H222437   2.980   1.714   0.844  0.1612  0.5969 -1.1215
  268TIP3   OH222438   0.741   1.112   7.656 -0.1277  0.1822 -0.0417
  268TIP3    H122439   0.738   1.203   7.627 -1.8912  0.2162  0.1079
  268TIP3    H222440   0.673   1.069   7.605  0.0152 -0.8286  0.6062
  269TIP3   OH222441   2.188   5.266   7.838  0.4841 -0.6482  0.5256
  269TIP3    H122442   2.184   5.325   7.762  0.2192  1.8789  2.3902
  269TIP3    H222443   2.281   5.252   7.852  0.5321 -2.1407 -0.9112
  270TIP3   OH222444   2.544   4.167   1.728  0.1509 -0.4893 -0.0365
  270TIP3    H122445   2.557   4.076   1.702 -2.6768 -0.5020 -1.8916
  270TIP3    H222446   2.604   4.217   1.672  0.3701 -1.0812 -0.3355
  271TIP3   OH222447   5.343   5.026   0.854  0.4614 -0.2792  0.4919
  271TIP3    H122448   5.314   5.065   0.771  0.5726 -0.5081  0.3439
  271TIP3    H222449   5.300   4.940   0.855  0.3418 -0.2165  0.7420
  272TIP3   OH222450   0.584   5.207   0.272  0.3084 -0.2660 -0.3605
  272TIP3    H122451   0.563   5.140   0.338 -0.5318 -1.1411 -1.4719
  272TIP3    H222452   0.597   5.287   0.322  0.0737 -0.9918  0.9011
  273TIP3   OH222453   0.255   4.500   0.585 -0.3239 -0.2130  0.2723
  273TIP3    H122454   0.348   4.508   0.603 -0.0491 -0.3145 -0.9973
  273TIP3    H222455   0.223   4.590   0.580 -0.5509 -0.1819  1.8457
  274TIP3   OH222456   5.360   1.039   7.591 -0.0198 -0.7121 -0.4002
  274TIP3    H122457   5.411   1.053   7.512 -0.2239 -0.4072 -0.4823
  274TIP3    H222458   5.275   1.079   7.572  0.5546  1.1752  0.6806
  275TIP3   OH222459   1.062   3.163   7.846 -0.4920  0.2330  0.0989
  275TIP3    H122460   1.040   3.151   7.754  0.6517 -0.0448 -0.1492
  275TIP3    H222461   0.984   3.203   7.884 -0.7311  0.9652 -1.1252
  276TIP3   OH222462   2.101   2.401   7.880  0.6488  0.2385  0.5165
  276TIP3    H122463   2.085   2.468   7.946  1.2710 -1.4357  2.4610
  276TIP3    H222464   2.166   2.440   7.821  0.5890  1.5248  1.2625
  277TIP3   OH222465   5.446   5.746   6.804 -0.4052  0.1732  0.1383
  277TIP3    H122466   5.391   5.669   6.793  1.9203 -1.6580  0.4734
  277TIP3    H222467   5.480   5.765   6.716  1.1434 -0.9582  0.4386
  278TIP3   OH222468   6.535   3.589   7.427  0.2540  0.2088 -0.4519
  278TIP3    H122469   6.533   3.530   7.351 -1.4214 -0.7626  0.3048
  278TIP3    H222470   6.445   3.620   7.436  0.5991  0.9516  0.6662
  279TIP3   OH222471   3.666   6.282   8.030  0.1034  0.3462 -0.1005
  279TIP3    H122472   3.734   6.324   8.082  0.1675 -0.0210  0.1189
  279TIP3    H222473   3.704   6.197   8.005 -0.2258  0.1908 -0.0795
  280TIP3   OH222474   3.587   0.813   1.376  0.0596 -0.9023 -0.0888
  280TIP3    H122475   3.617   0.773   1.457  0.1392  1.1818  0.9602
  280TIP3    H222476   3.664   0.811   1.319 -0.0450 -2.5373 -0.2367
  281TIP3   OH222477   6.771   0.088   7.185 -0.1367  0.2216  0.3652
  281TIP3    H122478   6.822   0.158   7.225 -1.9429  0.9986  1.4926
  281TIP3    H222479   6.800   0.084   7.094  0.8912  1.5754  0.6114
  282TIP3   OH222480   4.775   1.026   2.155 -0.4776 -0.3618 -0.3016
  282TIP3    H122481   4.866   0.997   2.162 -0.7658 -1.4354 -0.7571
  282TIP3    H222482   4.740   1.019   2.244 -0.1373 -0.0177 -0.1410
  283TIP3   OH222483   1.931   0.299   8.412  0.0497  0.0379  0.2834
  283TIP3    H122484   1.936   0.205   8.429 -3.6503 -0.5502 -1.0861
  283TIP3    H222485   1.920   0.306   8.317 -0.7834  1.7614  0.4648
  284TIP3   OH222486   5.035   5.522   7.122 -0.1608  0.0180 -0.6375
  284TIP3    H122487   5.093   5.445   7.126 -0.1465  0.0275 -0.6632
  284TIP3    H222488   5.092   5.594   7.097 -0.3547 -0.1549 -1.6485
  285TIP3   OH222489   5.299   0.244   1.274  0.6724  0.0278  0.1877
  285TIP3    H122490   5.293   0.222   1.367 -1.5247 -0.1311  0.0696
  285TIP3    H222491   5.319   0.161   1.231  1.3134  0.0296  0.4678
  286TIP3   OH222492   0.536   6.625   0.102 -0.3412  0.0649 -0.2054
  286TIP3    H122493   0.483   6.546   0.112 -0.3259 -0.0103 -0.6857
  286TIP3    H222494   0.501   6.668   0.025  0.6859 -0.3125 -0.9153
  287TIP3   OH222495   3.063   2.441   0.565 -0.8274  0.5100 -0.1296
  287TIP3    H122496   3.066   2.491   0.483  0.3591 -0.6007 -0.7997
  287TIP3    H222497   3.152   2.408   0.577 -1.7506 -2.3305 -0.3326
  288TIP3   OH222498   5.035   6.039   1.603 -0.6089  0.1665 -0.3112
  288TIP3    H122499   4.989   6.023   1.686  0.1894  0.5885  0.2222
  288TIP3    H222500   5.128   6.036   1.626 -0.3197 -1.2512 -1.4706
  289TIP3   OH222501   4.780   3.831   7.000  0.2407 -0.0772 -0.1836
  289TIP3    H122502   4.798   3.738   7.013 -0.6375 -0.0660  1.4119
  289TIP3    H222503   4.690   3.834   6.968  0.1092  0.2168  0.1929
  290TIP3   OH222504   1.379   5.550   6.320  0.1484 -0.6448 -0.5976
  290TIP3    H122505   1.300   5.525   6.272  1.1034 -2.0014 -1.5258
  290TIP3    H222506   1.415   5.467   6.352  1.2119 -0.0611 -0.2252
  291TIP3   OH222507   2.629   3.704   8.393 -0.5141 -0.3601 -0.2260
  291TIP3    H122508   2.715   3.741   8.414  0.5675 -1.9769 -1.4757
  291TIP3    H222509   2.591   3.681   8.478  0.3467  0.2751  0.3441
  292TIP3   OH222510   3.021   5.146   0.733 -0.4541  0.2054  0.1485
  292TIP3    H122511   3.009   5.059   0.770  0.5487 -0.2816 -0.6279
  292TIP3    H222512   3.081   5.190   0.794 -1.0503  0.4022  0.6004
  293TIP3   OH222513   0.516   4.237   8.517 -0.4481 -0.2255  0.6029
  293TIP3    H122514   0.534   4.330   8.507 -0.6010 -0.2678 -0.0922
  293TIP3    H222515   0.478   4.229   8.605  0.5576  0.2109  1.0884
  294TIP3   OH222516   6.047   4.625   8.270 -0.4354  0.2335  0.3166
  294TIP3    H122517   5.967   4.578   8.246 -0.5566 -0.0471  1.2243
  294TIP3    H222518   6.017   4.697   8.324 -0.0194 -0.3977  1.4220
  295TIP3   OH222519   0.540   1.394   1.329  0.5817  0.1710  0.0366
  295TIP3    H122520   0.609   1.430   1.272 -1.0150  0.1334 -2.0280
  295TIP3    H222521   0.500   1.471   1.368  1.0461  0.2570  0.3562
  296TIP3   OH222522   2.808   2.761   8.161 -0.3710  0.7304 -0.0718
  296TIP3    H122523   2.767   2.762   8.075  1.3076 -0.1259 -0.9153
  296TIP3    H222524   2.898   2.734   8.145 -0.0086  0.5757  1.9597
  297TIP3   OH222525   1.404   2.235   0.565  0.0367 -0.1313 -0.3966
  297TIP3    H122526   1.384   2.323   0.533  1.3487  0.6053  0.6681
  297TIP3    H222527   1.335   2.179   0.530 -2.0480  1.6806  0.6180
  298TIP3   OH222528   3.412   6.817   7.429  0.2636  0.1581 -0.1912
  298TIP3    H122529   3.384   6.751   7.365 -0.0522 -0.2471  0.3559
  298TIP3    H222530   3.412   6.899   7.380 -0.2694 -0.0963 -0.6374
  299TIP3   OH222531   6.757   6.334   7.199 -0.0654  0.2263  0.1326
  299TIP3    H122532   6.695   6.388   7.247  1.5137  1.7846  0.5518
  299TIP3    H222533   6.710   6.305   7.121 -1.3489  1.1799  0.5318
  300TIP3   OH222534   0.942   1.375   7.575  0.2857 -0.3823 -0.0470
  300TIP3    H122535   0.852   1.363   7.544 -0.1125  0.4934  0.7093
  300TIP3    H222536   0.988   1.409   7.499 -0.1263 -0.4268 -0.3235
  301TIP3   OH222537   2.552   1.225   8.257 -0.0857 -0.3125 -0.7854
  301TIP3    H122538   2.610   1.281   8.308 -0.0860 -1.3911  0.4817
  301TIP3    H222539   2.569   1.247   8.166  1.8143 -0.1114 -0.4073
  302TIP3   OH222540   6.085   6.815   7.638 -0.0973  0.1940 -0.0489
  302TIP3    H122541   6.119   6.730   7.609  0.5685  0.4400 -0.0157
  302TIP3    H222542   5.993   6.814   7.614  0.4310  0.4213 -2.2883
  303TIP3   OH222543   3.103   6.403   7.692  0.3220  0.1366  0.2018
  303TIP3    H122544   3.147   6.334   7.644  0.0961 -0.1391  0.3909
  303TIP3    H222545   3.150   6.408   7.776 -1.0734 -1.3488  1.1231
  304TIP3   OH222546   5.716   1.719   0.602 -0.2234 -0.4413 -0.5937
  304TIP3    H122547   5.650   1.712   0.672 -1.5206 -0.4070 -1.7804
  304TIP3    H222548   5.689   1.653   0.538  1.8185 -1.5324 -0.4097
  305TIP3   OH222549   3.533   3.915   0.852  0.3265 -0.2269  0.4497
  305TIP3    H122550   3.519   3.876   0.939 -0.0283  0.5979  0.7795
  305TIP3    H222551   3.520   4.009   0.867 -0.9977 -0.1843 -0.7498
  306TIP3   OH222552   3.761   6.236   0.015 -0.0298 -0.2978  0.1891
  306TIP3    H122553   3.752   6.231  -0.080  1.9665  1.4722 -0.1929
  306TIP3    H222554   3.855   6.250   0.029 -0.1427 -1.4108  2.4914
  307TIP3   OH222555   2.829   6.246   0.792  0.5548 -0.3893  0.4857
  307TIP3    H122556   2.739   6.215   0.798  0.3783 -0.1596 -0.7999
  307TIP3    H222557   2.848   6.247   0.698  1.6901  0.1546  0.7081
  308TIP3   OH222558   4.713   4.817   1.257 -0.0243  0.7758 -0.2754
  308TIP3    H122559   4.797   4.771   1.258  0.6463  1.9792  0.8805
  308TIP3    H222560   4.671   4.792   1.339  0.7032  2.7905  0.7651
  309TIP3   OH222561   0.815   3.485   0.745  0.1462 -0.7512  0.1010
  309TIP3    H122562   0.832   3.547   0.816 -0.2238 -0.8708  0.2928
  309TIP3    H222563   0.902   3.454   0.719  0.5318  1.2679 -1.2932
  310TIP3   OH222564   0.936   1.846   6.518  0.9563 -0.0278  0.6119
  310TIP3    H122565   0.998   1.777   6.545  0.4344 -0.4373  0.7739
  310TIP3    H222566   0.865   1.798   6.474  0.3023  0.3510  1.2456
  311TIP3   OH222567   0.237   3.211   8.278 -0.4940 -0.0855  0.2776
  311TIP3    H122568   0.158   3.180   8.322 -0.6754 -0.3774 -0.2488
  311TIP3    H222569   0.205   3.260   8.202 -0.1690 -1.2047 -0.6167
  312TIP3   OH222570   0.849   4.790   0.247  0.8995 -0.1196  0.4396
  312TIP3    H122571   0.809   4.744   0.174 -0.9141 -0.6550  1.6953
  312TIP3    H222572   0.867   4.878   0.213  0.3147 -0.4265 -0.7075
  313TIP3   OH222573   0.917   2.475   0.125 -0.1141 -0.2821  0.7137
  313TIP3    H122574   0.963   2.537   0.068  0.2965 -0.7087  0.5761
  313TIP3    H222575   0.889   2.527   0.201 -0.6434  0.2846  0.1394
  314TIP3   OH222576   1.180   2.390   8.267  0.4144  0.0632  0.0104
  314TIP3    H122577   1.154   2.355   8.182  0.3421 -2.0153  0.8349
  314TIP3    H222578   1.268   2.427   8.252 -0.7542  2.5051 -1.5949
  315TIP3   OH222579   2.923   3.142   7.743  0.1959 -0.1488  0.5464
  315TIP3    H122580   2.943   3.235   7.755  0.0373 -0.1941  1.2327
  315TIP3    H222581   2.893   3.135   7.653 -0.4321  0.5870  0.6829
  316TIP3   OH222582   5.934   2.712   6.575 -1.2387 -0.3996 -0.0788
  316TIP3    H122583   5.990   2.638   6.551  0.4599  0.9568 -0.4936
  316TIP3    H222584   5.873   2.721   6.501 -1.9203 -1.7705  0.2885
  317TIP3   OH222585   2.397   6.312   0.189 -0.3356 -0.4627 -0.2432
  317TIP3    H122586   2.312   6.342   0.218 -0.0602 -1.0752  1.3068
  317TIP3    H222587   2.460   6.358   0.245  0.2304 -1.5396  0.0376
  318TIP3   OH222588   3.034   6.792   0.431 -0.4166  0.5139  0.0130
  318TIP3    H122589   3.029   6.739   0.352 -0.5285  1.7666 -0.8443
  318TIP3    H222590   3.053   6.880   0.400  2.0579  0.6023  1.5426
  319TIP3   OH222591   6.021   3.357   7.949 -0.6594  0.8316 -0.1076
  319TIP3    H122592   5.974   3.433   7.983 -1.6644  0.3948 -0.4779
  319TIP3    H222593   5.963   3.321   7.882 -0.5039 -0.6461  0.5160
  320TIP3   OH222594   4.118   5.620   6.126  0.4580 -0.4106 -0.3787
  320TIP3    H122595   4.030   5.649   6.152 -0.7411 -2.1477 -2.1375
  320TIP3    H222596   4.153   5.693   6.075 -1.0381 -0.5865 -1.7623
  321TIP3   OH222597   1.256   5.629   7.306 -0.1433 -0.0998  0.0143
  321TIP3    H122598   1.322   5.567   7.336  1.0305  1.1527  0.1411
  321TIP3    H222599   1.185   5.621   7.369 -0.9787 -2.7872 -1.1377
  322TIP3   OH222600   0.394   0.696   8.587 -0.3128 -0.1490 -0.2405
  322TIP3    H122601   0.463   0.634   8.613 -0.6548 -0.1673  0.6583
  322TIP3    H222602   0.429   0.782   8.609 -0.8330 -0.2038  0.8334
  323TIP3   OH222603   0.878   5.223   7.346 -0.5894 -0.3665  0.3547
  323TIP3    H122604   0.957   5.197   7.300 -0.2522 -0.6261  1.0733
  323TIP3    H222605   0.909   5.267   7.425 -1.1588 -0.1852  0.4811
  324TIP3   OH222606   1.720   6.540   0.738  0.1376 -0.1830 -0.2728
  324TIP3    H122607   1.812   6.533   0.715  0.5430 -0.8140  1.3907
  324TIP3    H222608   1.719   6.580   0.825 -1.2538  1.2829 -0.9010
  325TIP3   OH222609   3.548   2.063   7.719 -0.0451  0.0977 -0.2698
  325TIP3    H122610   3.491   1.986   7.716 -0.3929  0.2832  0.8336
  325TIP3    H222611   3.637   2.028   7.716 -0.1732 -0.4598  1.4180
  326TIP3   OH222612   3.808   1.318   1.179 -0.2953  0.6886  0.1100
  326TIP3    H122613   3.787   1.375   1.105 -2.5931  0.3524  0.4400
  326TIP3    H222614   3.761   1.357   1.253  1.3848  0.6069  1.2708
  327TIP3   OH222615   3.860   3.782   0.061  0.2576  0.1843 -0.2566
  327TIP3    H122616   3.799   3.797   0.133  0.1283  1.7683 -0.6784
  327TIP3    H222617   3.920   3.716   0.095  0.4749  1.2218  1.4826
  328TIP3   OH222618   2.416   2.977   1.842 -0.2762  0.3563 -0.3927
  328TIP3    H122619   2.456   2.999   1.926 -1.2405  0.7267 -0.0206
  328TIP3    H222620   2.480   3.004   1.776  1.0652 -1.1181  0.2310
  329TIP3   OH222621   1.173   0.415   6.268 -0.6368 -0.2262 -0.3601
  329TIP3    H122622   1.265   0.439   6.257 -0.5839  0.1364  0.7450
  329TIP3    H222623   1.124   0.493   6.243 -0.5666  0.1573  0.6515
  330TIP3   OH222624   6.730   4.468   7.533  0.2016 -0.3672  0.1389
  330TIP3    H122625   6.654   4.487   7.478  0.2201 -0.1604  0.1839
  330TIP3    H222626   6.710   4.384   7.574  0.2559 -0.6038 -0.3052
  331TIP3   OH222627   3.611   4.814   0.220  0.1056  0.1224  0.2033
  331TIP3    H122628   3.662   4.844   0.295 -0.6272  0.2341  0.6707
  331TIP3    H222629   3.520   4.837   0.242 -0.2802 -0.9902 -0.1483
  332TIP3   OH222630   3.976   2.443   1.451  0.1368  0.6891 -0.1120
  332TIP3    H122631   4.045   2.460   1.387 -0.8380  1.9245 -0.8831
  332TIP3    H222632   3.984   2.515   1.514 -2.2287  2.6056 -1.8250
  333TIP3   OH222633   3.412   3.307   8.212  0.1870  0.1875 -0.4249
  333TIP3    H122634   3.334   3.294   8.266  0.5383  1.7234  0.4871
  333TIP3    H222635   3.389   3.380   8.154 -0.2226 -1.4765 -2.4932
  334TIP3   OH222636   3.146   0.175   8.249  0.1434  0.4959 -0.2823
  334TIP3    H122637   3.131   0.101   8.190  2.7811  0.7061 -1.3184
  334TIP3    H222638   3.102   0.150   8.330  0.7737 -2.1091 -0.6707
  335TIP3   OH222639   6.189   0.211   8.015  0.4227  0.1609 -0.1646
  335TIP3    H122640   6.265   0.184   8.068  0.8982  0.1341 -0.8428
  335TIP3    H222641   6.143   0.274   8.069  1.0070  0.2749  0.2065
  336TIP3   OH222642   4.175   1.859   0.080  0.2218  0.1360 -0.0144
  336TIP3    H122643   4.105   1.833   0.020 -0.5003  0.1916  0.7694
  336TIP3    H222644   4.151   1.948   0.107  2.2721  1.4142 -2.1163
  337TIP3   OH222645   3.704   0.907   0.364  0.0681  0.5244 -0.0772
  337TIP3    H122646   3.657   0.824   0.378  1.0887  0.3999  3.7041
  337TIP3    H222647   3.634   0.973   0.360 -0.6532 -0.1439  0.8777
  338TIP3   OH222648   6.171   0.601   7.899 -0.0130  0.1734 -0.0440
  338TIP3    H122649   6.249   0.600   7.953 -0.2457 -0.7323  0.2894
  338TIP3    H222650   6.199   0.642   7.817  0.4096  1.2838  0.6470
  339TIP3   OH222651   5.715   3.230   0.860  0.1940  0.3413 -0.4595
  339TIP3    H122652   5.664   3.230   0.941 -1.2285 -0.1021 -1.3078
  339TIP3    H222653   5.752   3.318   0.855 -0.8999  0.8460 -0.0202
  340TIP3   OH222654   5.042   5.130   6.954 -0.0184 -0.0839 -0.5569
  340TIP3    H122655   4.992   5.205   6.923  0.3179  0.1795 -0.4683
  340TIP3    H222656   5.100   5.166   7.021 -0.5816 -0.6028  0.2268
  341TIP3   OH222657   0.998   4.824   8.467  0.0416 -0.2499 -0.1636
  341TIP3    H122658   1.053   4.903   8.470  2.9973 -2.1901  1.1101
  341TIP3    H222659   1.060   4.752   8.479 -2.9576 -2.5898  3.0236
  342TIP3   OH222660   4.388   0.526   7.446  0.3715 -0.5490  0.2021
  342TIP3    H122661   4.341   0.443   7.438 -1.0272  0.3637 -1.8024
  342TIP3    H222662   4.321   0.590   7.470  1.0792  0.3424 -0.1486
  343TIP3   OH222663   6.290   6.673   8.149  0.6944 -0.0122 -0.3078
  343TIP3    H122664   6.278   6.758   8.193 -0.1352  0.1459 -0.8034
  343TIP3    H222665   6.254   6.687   8.062  1.2105 -0.6756 -0.6336
  344TIP3   OH222666   4.835   6.767   7.135  0.1901 -0.0353 -1.2228
  344TIP3    H122667   4.855   6.758   7.228 -1.6781  0.9862 -0.6726
  344TIP3    H222668   4.916   6.800   7.096  0.2745  2.0607  0.5267
  345TIP3   OH222669   5.835   6.500   7.863  0.0846  0.5524 -0.7631
  345TIP3    H122670   5.762   6.546   7.903  0.6973  1.4876 -0.6976
  345TIP3    H222671   5.797   6.456   7.786 -0.7327  0.1964 -0.1694
  346TIP3   OH222672   2.107   3.330   6.970  0.0412  0.1050  0.3333
  346TIP3    H122673   2.115   3.348   6.876 -1.3310 -1.8477 -0.2079
  346TIP3    H222674   2.128   3.237   6.979  2.0866  0.6463  2.2953
  347TIP3   OH222675   6.293   5.142   1.453 -0.1941 -0.0797 -0.1328
  347TIP3    H122676   6.332   5.057   1.434  2.1492  1.1898 -1.5496
  347TIP3    H222677   6.326   5.165   1.540  1.3169  0.4321 -0.8018
  348TIP3   OH222678   6.664   2.343   7.199 -0.0053 -0.2669  0.1287
  348TIP3    H122679   6.694   2.402   7.268  1.6449 -1.6695  0.6845
  348TIP3    H222680   6.733   2.347   7.133 -0.7126 -0.2881 -0.6195
  349TIP3   OH222681   5.993   4.885   7.947 -0.7065 -0.1751  0.8209
  349TIP3    H122682   6.056   4.920   8.010 -0.3789 -1.6903  1.3805
  349TIP3    H222683   5.933   4.833   8.000 -0.6194 -1.2164 -0.0629
  350TIP3   OH222684   3.642   2.790   0.775 -0.6652 -0.2888  0.4217
  350TIP3    H122685   3.555   2.781   0.737 -0.0754  0.9136 -1.3174
  350TIP3    H222686   3.702   2.760   0.706  0.3787  0.2837  1.0488
  351TIP3   OH222687   2.393   6.813   1.657 -0.3618  0.3610 -0.9915
  351TIP3    H122688   2.330   6.856   1.716 -2.7183 -1.0586 -2.3020
  351TIP3    H222689   2.457   6.772   1.715 -1.7215  0.3050  0.5395
  352TIP3   OH222690   4.141   2.088   0.649  0.0862 -0.1183 -0.3167
  352TIP3    H122691   4.210   2.033   0.685 -0.3477 -0.4716 -0.0063
  352TIP3    H222692   4.145   2.074   0.555  0.4623 -0.1061 -0.3030
  353TIP3   OH222693   4.577   6.189   1.393 -0.7817  0.1982  0.4497
  353TIP3    H122694   4.500   6.245   1.410 -0.3966  1.3354 -1.3415
  353TIP3    H222695   4.551   6.103   1.427 -1.7332  1.2004  2.5076
  354TIP3   OH222696   5.790   6.047   8.283 -0.3972 -0.1904  0.2488
  354TIP3    H122697   5.763   6.025   8.194  2.1954 -1.3137 -0.3553
  354TIP3    H222698   5.855   6.117   8.273  2.1059 -2.2447  0.8556
  355TIP3   OH222699   1.399   1.851   6.348 -0.4090  0.7040  0.2197
  355TIP3    H122700   1.381   1.945   6.344  1.0315  1.1151  2.1545
  355TIP3    H222701   1.312   1.810   6.352 -1.1269  2.2386  3.5132
  356TIP3   OH222702   1.095   2.631   8.382 -0.2199  0.3844 -0.2503
  356TIP3    H122703   1.014   2.651   8.334 -0.4559 -0.3879 -0.1869
  356TIP3    H222704   1.116   2.541   8.356  0.8681  0.7329 -0.6079
  357TIP3   OH222705   3.812   2.285   6.572 -0.2900 -0.2072  0.5944
  357TIP3    H122706   3.899   2.249   6.593  1.1173  2.6277  0.0719
  357TIP3    H222707   3.756   2.208   6.566  2.4536 -2.3131 -0.4334
  358TIP3   OH222708   3.645   3.851   1.144 -0.0746 -0.3959 -0.1878
  358TIP3    H122709   3.657   3.761   1.116  1.0067 -0.4117  0.2856
  358TIP3    H222710   3.731   3.892   1.134 -0.6219  0.6713 -0.6883
  359TIP3   OH222711   1.544   4.354   2.686 -0.1994 -0.5030 -0.2726
  359TIP3    H122712   1.461   4.339   2.641 -0.2008 -1.1271 -0.0575
  359TIP3    H222713   1.575   4.267   2.711  0.1394 -0.2166  0.3317
  360TIP3   OH222714   3.729   3.189   1.381 -0.0067  0.4633  0.1633
  360TIP3    H122715   3.785   3.222   1.451  0.9040  1.9537 -1.1954
  360TIP3    H222716   3.758   3.098   1.368  1.2370  0.8092  0.3697
  361TIP3   OH222717   1.340   5.330   0.426 -0.6469  0.1065 -0.0200
  361TIP3    H122718   1.327   5.243   0.388 -0.5786 -0.2747  0.7980
  361TIP3    H222719   1.336   5.315   0.521  1.0680  0.7151  0.1767
  362TIP3   OH222720   3.786   2.022   7.452 -0.2520  0.3922  0.3774
  362TIP3    H122721   3.695   1.998   7.434 -1.1068  1.9091  2.3269
  362TIP3    H222722   3.804   1.987   7.539  0.5943  1.2264  0.5549
  363TIP3   OH222723   0.962   2.305   1.491  0.5083  0.1732 -0.8809
  363TIP3    H122724   0.960   2.399   1.478  2.3654  0.4394  0.3216
  363TIP3    H222725   1.016   2.272   1.419 -1.0852 -0.1679 -1.9786
  364TIP3   OH222726   3.469   4.479   7.871  0.1178  0.0363 -0.7365
  364TIP3    H122727   3.422   4.543   7.818 -0.8674 -2.0966 -2.5845
  364TIP3    H222728   3.426   4.482   7.957  0.0054  1.6843 -0.8121
  365TIP3   OH222729   4.086   4.210   0.703 -0.2625 -0.3926 -0.8057
  365TIP3    H122730   4.094   4.116   0.720  1.2114 -0.0693  0.5262
  365TIP3    H222731   4.009   4.237   0.753  1.1254 -0.3722  1.4560
  366TIP3   OH222732   4.970   1.992   0.682 -0.3781  0.3147 -0.0255
  366TIP3    H122733   4.889   1.945   0.662 -0.2508  0.4066 -0.7721
  366TIP3    H222734   4.966   2.006   0.777  0.1964 -2.3223  0.4513
  367TIP3   OH222735   2.394   4.367   8.084 -0.4566  0.4660  0.3052
  367TIP3    H122736   2.458   4.370   8.155  0.0999 -0.0146 -0.1711
  367TIP3    H222737   2.389   4.457   8.052  1.3271  0.2063 -0.8255
  368TIP3   OH222738   5.471   4.440   8.169 -0.0353  0.6927  0.0296
  368TIP3    H122739   5.555   4.413   8.133 -0.4605  1.3003 -1.5175
  368TIP3    H222740   5.491   4.476   8.255  1.2259  0.4716 -0.1630
  369TIP3   OH222741   2.763   2.780   1.941  0.0203 -0.4088 -0.0499
  369TIP3    H122742   2.795   2.692   1.959  0.5797 -1.1592 -3.7601
  369TIP3    H222743   2.829   2.838   1.981  0.7397 -1.7139  0.7187
  370TIP3   OH222744   4.713   1.295   0.700  0.5626 -0.1487 -0.3364
  370TIP3    H122745   4.697   1.389   0.709  1.1422 -0.0081 -0.7114
  370TIP3    H222746   4.770   1.274   0.775  0.7246 -0.1267 -0.4525
  371TIP3   OH222747   1.551   4.489   2.094  0.0122 -0.2454 -0.0289
  371TIP3    H122748   1.548   4.467   2.187  1.3463  0.2990  0.1686
  371TIP3    H222749   1.459   4.502   2.069 -0.3773 -0.6193  1.1506
  372TIP3   OH222750   3.959   4.105   1.557 -0.2646  0.2064 -0.1162
  372TIP3    H122751   4.038   4.052   1.545  0.5205  0.4925  3.1358
  372TIP3    H222752   3.895   4.044   1.593 -0.2297  0.8512  1.0589
  373TIP3   OH222753   5.182   6.559   7.692  0.4728 -0.6500  0.0621
  373TIP3    H122754   5.096   6.547   7.652  0.4856 -1.9864  0.3936
  373TIP3    H222755   5.192   6.654   7.698  0.8930 -0.2866 -3.9603
  374TIP3   OH222756   6.399   2.088   1.418 -0.0407  0.0970  0.1358
  374TIP3    H122757   6.428   2.143   1.491 -1.2406 -1.6706  2.0534
  374TIP3    H222758   6.332   2.031   1.456 -1.3346 -0.3402 -2.5851
  375TIP3   OH222759   4.267   3.846   7.388  0.1696 -0.2464  0.1242
  375TIP3    H122760   4.360   3.830   7.374 -0.4624 -2.7864 -2.1802
  375TIP3    H222761   4.258   3.941   7.392  2.6642  0.1127 -1.1626
  376TIP3   OH222762   3.683   1.270   8.582  0.4525 -0.3013 -0.4348
  376TIP3    H122763   3.672   1.190   8.634 -1.4537 -0.1458 -0.5229
  376TIP3    H222764   3.734   1.242   8.506  1.0205 -1.1182  0.2241
  377TIP3   OH222765   3.645   6.742   2.024  0.2602 -0.3773 -0.0854
  377TIP3    H122766   3.617   6.712   2.111  0.9360 -0.3087  0.1661
  377TIP3    H222767   3.644   6.663   1.970  1.2058 -0.7126  0.3579
  378TIP3   OH222768   5.396   5.697   0.924  0.0429 -0.3429 -0.6463
  378TIP3    H122769   5.410   5.759   0.996 -4.2245 -0.1165  0.2791
  378TIP3    H222770   5.412   5.611   0.964  2.3308 -0.0518 -0.8598
  379TIP3   OH222771   6.886   0.852   8.573  0.3245 -0.0126 -0.4901
  379TIP3    H122772   6.940   0.775   8.589  1.2704  0.7629  0.1987
  379TIP3    H222773   6.851   0.840   8.485 -0.4780 -1.7594  0.0287
  380TIP3   OH222774   5.258   0.452   8.375 -0.0777 -0.8795  0.1154
  380TIP3    H122775   5.352   0.437   8.365  0.3812  0.7510  1.5108
  380TIP3    H222776   5.250   0.509   8.452 -2.0775  0.4440 -0.9711
  381TIP3   OH222777   3.510   6.381   1.893 -0.1443 -0.3684  0.1660
  381TIP3    H122778   3.454   6.455   1.866 -1.4089 -1.0182  0.9036
  381TIP3    H222779   3.460   6.303   1.866  1.7361 -1.0025 -1.7463
  382TIP3   OH222780   4.119   3.039   8.275 -0.4034  0.0198  0.3638
  382TIP3    H122781   4.210   3.041   8.307 -0.1818  0.5740 -0.2784
  382TIP3    H222782   4.078   2.968   8.324  0.3054 -0.0545  0.8641
  383TIP3   OH222783   1.207   4.701   7.148 -0.6529  0.1414  0.0191
  383TIP3    H122784   1.200   4.609   7.174 -1.3869  0.2335  0.1627
  383TIP3    H222785   1.156   4.748   7.214  1.1112  0.8466  0.9727
  384TIP3   OH222786   5.350   3.017   6.093  0.1693 -0.0921 -0.5619
  384TIP3    H122787   5.413   3.075   6.051 -0.8187  0.6353 -1.0856
  384TIP3    H222788   5.393   2.990   6.174  1.8825 -1.0575 -1.7265
  385TIP3   OH222789   4.482   5.450   7.235  0.2800 -0.1504 -0.1742
  385TIP3    H122790   4.555   5.490   7.187  0.3946  0.4363  0.4703
  385TIP3    H222791   4.416   5.519   7.238  0.2478 -0.2027  0.4364
  386TIP3   OH222792   1.798   2.043   8.081 -0.3623  0.3211  0.0153
  386TIP3    H122793   1.807   2.104   8.154  1.4602 -0.3127  0.3829
  386TIP3    H222794   1.841   1.963   8.111 -1.4990 -0.7094 -0.9638
  387TIP3   OH222795   1.290   4.370   0.035  0.2821 -0.4639  0.5251
  387TIP3    H122796   1.250   4.319   0.105  0.5432  2.5234  3.0904
  387TIP3    H222797   1.385   4.358   0.046  0.3293  0.1165  0.7973
  388TIP3   OH222798   4.422   5.962   1.491 -0.1098 -0.6002 -0.1246
  388TIP3    H122799   4.447   5.877   1.455 -0.4135 -0.6752 -0.1668
  388TIP3    H222800   4.342   5.985   1.444 -0.1290 -0.3751  0.0157
  389TIP3   OH222801   6.205   0.212   6.618 -0.3100 -0.1437 -0.1059
  389TIP3    H122802   6.170   0.285   6.568  0.8589  0.8846  0.5303
  389TIP3    H222803   6.265   0.168   6.558  0.1486  0.3400 -0.0009
  390TIP3   OH222804   6.577   6.394   6.178 -0.3345 -0.2126 -0.5825
  390TIP3    H122805   6.589   6.464   6.114 -0.7812  0.7264  0.3302
  390TIP3    H222806   6.655   6.397   6.232 -0.5586 -0.1140 -0.2613
  391TIP3   OH222807   0.680   3.789   0.634 -0.5915 -0.3628  0.5605
  391TIP3    H122808   0.695   3.712   0.580  1.0915  0.0578  0.3868
  391TIP3    H222809   0.764   3.835   0.636 -0.8987  0.2447  2.5799
  392TIP3   OH222810   4.817   6.342   0.248  0.4517  0.1618  0.0509
  392TIP3    H122811   4.793   6.396   0.173  0.8243  1.5008  0.8514
  392TIP3    H222812   4.747   6.357   0.312  1.9078  1.9666  1.3497
  393TIP3   OH222813   2.007   5.320   7.353 -0.2516  0.6956 -0.1331
  393TIP3    H122814   1.983   5.390   7.413 -0.2547  2.6245 -2.2271
  393TIP3    H222815   2.102   5.328   7.342 -0.0975 -0.2829  0.3214
  394TIP3   OH222816   2.106   0.519   8.102  0.1595  0.2634 -0.1454
  394TIP3    H122817   2.177   0.540   8.042 -0.5666  1.1280 -0.7385
  394TIP3    H222818   2.140   0.544   8.189  1.6388 -2.0776  0.0161
  395TIP3   OH222819   1.095   6.621   1.605  0.0647  0.0577  0.5156
  395TIP3    H122820   1.069   6.578   1.687  0.3163 -0.7239  0.1995
  395TIP3    H222821   1.061   6.564   1.536 -0.6094  0.9842  0.0586
  396TIP3   OH222822   4.537   1.939   7.568  0.0917 -0.5286  0.4463
  396TIP3    H122823   4.464   1.877   7.559  0.2459 -0.8291  1.1517
  396TIP3    H222824   4.607   1.900   7.516 -0.8109  0.7369 -1.8696
  397TIP3   OH222825   4.279   4.526   1.462  0.1164 -0.3392  0.1712
  397TIP3    H122826   4.304   4.467   1.391  0.0788 -0.1971  0.0392
  397TIP3    H222827   4.193   4.559   1.436 -0.1317 -0.6861  0.5344
  398TIP3   OH222828   2.480   3.551   2.345 -0.6671  0.0069  0.3873
  398TIP3    H122829   2.524   3.500   2.412 -0.1954  1.0476  0.8995
  398TIP3    H222830   2.387   3.541   2.363 -0.5595 -0.2583  0.7888
  399TIP3   OH222831   6.853   1.221   1.980 -0.6406  0.3852  0.1475
  399TIP3    H122832   6.859   1.135   2.021  1.3573  1.1129  1.5481
  399TIP3    H222833   6.836   1.202   1.888  1.8203 -1.6574 -0.0189
  400TIP3   OH222834   5.065   0.066   2.138 -0.0919  0.1420 -0.3463
  400TIP3    H122835   5.030   0.032   2.221  1.0795  2.0206  1.0201
  400TIP3    H222836   5.154   0.031   2.134 -0.1160  0.1273 -0.7468
  401TIP3   OH222837   2.549   0.156   8.413 -0.2704  0.1130 -0.6215
  401TIP3    H122838   2.493   0.172   8.489  0.9772  0.0668  0.3542
  401TIP3    H222839   2.636   0.185   8.442  0.3922 -0.6914 -1.7503
  402TIP3   OH222840   3.158   6.179   7.494 -0.6140  0.1625 -0.3969
  402TIP3    H122841   3.237   6.220   7.530 -0.5522 -1.0598  0.9416
  402TIP3    H222842   3.166   6.189   7.399  0.7136  0.8294 -0.2253
  403TIP3   OH222843   6.868   3.814   7.395  0.2751 -0.5050 -0.1567
  403TIP3    H122844   6.790   3.825   7.448 -0.2920 -0.2723 -1.0282
  403TIP3    H222845   6.941   3.827   7.456 -0.3534 -0.8230  0.6789
  404TIP3   OH222846   3.402   5.558   0.629 -0.0848 -0.8086 -0.0376
  404TIP3    H122847   3.314   5.553   0.665  0.0082 -0.5204  0.2383
  404TIP3    H222848   3.456   5.589   0.702  0.2651 -1.1075 -0.1668
  405TIP3   OH222849   3.817   4.616   7.506  0.2271  0.5275 -0.4040
  405TIP3    H122850   3.814   4.703   7.466 -1.5148  1.9150  2.4161
  405TIP3    H222851   3.726   4.595   7.524  0.7558 -1.1677  0.4736
  406TIP3   OH222852   5.984   6.775   6.579 -0.1751  0.6783  0.2393
  406TIP3    H122853   5.909   6.751   6.523 -0.1853  2.0857 -0.3981
  406TIP3    H222854   6.053   6.799   6.517  0.4052  0.5694  0.8369
  407TIP3   OH222855   1.882   6.190   0.982  0.3176 -0.5770 -0.8363
  407TIP3    H122856   1.805   6.132   0.977  1.1094 -1.5725 -1.9903
  407TIP3    H222857   1.905   6.191   1.075  0.2128 -2.0493 -0.7763
  408TIP3   OH222858   0.217   0.861   7.863 -0.0762 -0.5796  0.0270
  408TIP3    H122859   0.204   0.874   7.957 -3.3102 -0.7028 -0.2820
  408TIP3    H222860   0.129   0.843   7.829  1.0058 -0.7062 -3.0124
  409TIP3   OH222861   1.652   2.958   6.262  0.0868 -0.2086 -0.2144
  409TIP3    H122862   1.564   2.919   6.261  0.9191 -2.2004  0.0129
  409TIP3    H222863   1.637   3.050   6.287 -1.7673 -0.8950  1.4624
  410TIP3   OH222864   4.737   6.799   0.114 -0.3583  0.0486 -0.0276
  410TIP3    H122865   4.722   6.753   0.032 -0.7441 -1.7983  1.0213
  410TIP3    H222866   4.831   6.796   0.127 -0.4801 -1.7735  0.7088
  411TIP3   OH222867   2.038   2.759   7.340 -0.2742  0.3513 -0.4882
  411TIP3    H122868   2.028   2.715   7.424 -0.6285  1.5420  0.1091
  411TIP3    H222869   1.970   2.721   7.284  0.6959 -1.2800 -0.6271
  412TIP3   OH222870   6.326   0.646   7.375  0.0372  0.1014  0.2779
  412TIP3    H122871   6.297   0.641   7.284 -1.5945 -1.3133  0.7962
  412TIP3    H222872   6.292   0.565   7.415  0.7531  0.6511  2.1174
  413TIP3   OH222873   6.440   3.606   1.729  0.1800  0.5536  0.2569
  413TIP3    H122874   6.509   3.561   1.777 -0.1278  1.1952  1.3342
  413TIP3    H222875   6.404   3.539   1.671  1.5648  0.1553 -0.1846
  414TIP3   OH222876   2.378   0.818   1.361  0.3135 -0.1375  0.2450
  414TIP3    H122877   2.320   0.845   1.290  1.5757  0.2817 -0.6575
  414TIP3    H222878   2.354   0.874   1.434 -3.1141 -2.6025  1.2470
  415TIP3   OH222879   5.130   3.030   0.108  1.0435  0.5753 -0.4632
  415TIP3    H122880   5.077   2.989   0.176 -0.0628 -0.0419 -1.6584
  415TIP3    H222881   5.116   3.124   0.118 -0.7887  0.4046 -1.1304
  416TIP3   OH222882   5.066   3.149   7.094  0.1787  0.0240 -0.6337
  416TIP3    H122883   5.040   3.201   7.170  0.1665 -0.4106 -0.3423
  416TIP3    H222884   5.097   3.214   7.031 -1.8367  0.5959 -1.1106
  417TIP3   OH222885   3.924   2.328   7.127 -0.0305 -0.4621 -0.2881
  417TIP3    H122886   3.900   2.253   7.182  0.6519 -1.3335 -1.1353
  417TIP3    H222887   4.020   2.326   7.126 -0.0208  0.1053 -0.7694
  418TIP3   OH222888   2.649   3.134   1.080 -0.4798 -0.6669  0.2121
  418TIP3    H122889   2.639   3.212   1.134 -0.0584 -0.5432  0.1145
  418TIP3    H222890   2.649   3.167   0.990  2.4665 -0.4149  0.1953
  419TIP3   OH222891   0.775   4.197   6.976  0.1751  0.8928 -0.8307
  419TIP3    H122892   0.706   4.134   6.998 -0.6858  2.2276  0.4817
  419TIP3    H222893   0.786   4.249   7.056  2.0305  1.3561 -1.3311
  420TIP3   OH222894   5.330   3.605   8.426  0.2505 -0.1486  0.0431
  420TIP3    H122895   5.311   3.524   8.378  0.4993  0.1368 -0.5603
  420TIP3    H222896   5.411   3.586   8.473  1.6847  0.4975 -2.0181
  421TIP3   OH222897   5.069   0.290   1.806 -0.1213 -0.2011 -0.0555
  421TIP3    H122898   4.993   0.241   1.835  0.5276 -1.4109 -0.3480
  421TIP3    H222899   5.034   0.377   1.784 -1.0700 -0.0904  1.6913
  422TIP3   OH222900   3.301   3.863   1.531 -0.3572  0.7021  0.1560
  422TIP3    H122901   3.355   3.937   1.557  0.6396 -0.5139  1.7052
  422TIP3    H222902   3.224   3.903   1.490 -0.4673  2.6461  2.0700
  423TIP3   OH222903   6.079   1.268   1.065 -0.2850  0.3812 -0.1630
  423TIP3    H122904   6.062   1.340   1.125 -0.4174  0.5451 -0.3931
  423TIP3    H222905   6.025   1.288   0.988  0.3173  0.4672 -0.5681
  424TIP3   OH222906   0.900   3.059   8.659  0.3597  0.0668  0.2144
  424TIP3    H122907   0.883   2.992   8.726 -0.7498  0.9609  0.8553
  424TIP3    H222908   0.865   3.140   8.696 -3.9852 -0.0027 -2.8817
  425TIP3   OH222909   4.311   1.747   7.447  0.0838 -0.0426 -0.4686
  425TIP3    H122910   4.230   1.753   7.396 -0.0716  0.6618 -0.1594
  425TIP3    H222911   4.381   1.755   7.383 -0.1078  0.3507 -0.6333
  426TIP3   OH222912   4.855   3.655   2.293  0.1010 -0.4219 -0.0353
  426TIP3    H122913   4.887   3.570   2.323 -2.3432 -1.7353 -0.7935
  426TIP3    H222914   4.816   3.695   2.371  1.0939 -0.0678  0.2842
  427TIP3   OH222915   1.606   5.176   8.543 -0.6582 -0.3405  0.3513
  427TIP3    H122916   1.550   5.226   8.603 -0.5751 -2.2931  2.1890
  427TIP3    H222917   1.651   5.243   8.491 -1.0188  1.4859  2.2257
  428TIP3   OH222918   1.613   4.689   0.794 -0.6854  0.3003 -0.1586
  428TIP3    H122919   1.608   4.612   0.851 -0.9941  0.4225 -0.0191
  428TIP3    H222920   1.612   4.763   0.854 -2.7360  0.4965 -0.3684
  429TIP3   OH222921   5.938   5.301   7.146  0.1663  0.2260  0.4654
  429TIP3    H122922   5.849   5.311   7.113 -0.0458  1.5075  1.3619
  429TIP3    H222923   5.933   5.330   7.237  1.2580 -0.8195  0.8804
  430TIP3   OH222924   3.924   2.949   7.974 -0.0629 -0.3659  0.0163
  430TIP3    H122925   4.018   2.967   7.969  0.1482 -0.9771  1.3577
  430TIP3    H222926   3.918   2.854   7.983 -0.9618 -0.6501 -2.6177
  431TIP3   OH222927   0.890   1.641   7.142 -0.1036  0.5332  0.2571
  431TIP3    H122928   0.816   1.698   7.124  0.8980  2.4012  1.7037
  431TIP3    H222929   0.951   1.657   7.069 -0.7507 -0.4367 -0.5279
  432TIP3   OH222930   5.257   2.612   8.117  0.4928 -0.3653 -0.3417
  432TIP3    H122931   5.302   2.530   8.138  0.2321 -0.1055  1.3751
  432TIP3    H222932   5.224   2.644   8.201  0.2960  1.3420 -1.0185
  433TIP3   OH222933   6.560   5.162   2.207  0.3422  0.7091 -0.3394
  433TIP3    H122934   6.577   5.076   2.244  0.1565  1.3620  1.3590
  433TIP3    H222935   6.465   5.174   2.215  0.4989  1.5063  0.4933
  434TIP3   OH222936   5.907   2.799   8.623 -0.9237  0.4466  0.1680
  434TIP3    H122937   5.864   2.781   8.707  0.1961  1.3405  0.9624
  434TIP3    H222938   5.956   2.720   8.603 -0.8573  0.3804  0.5788
  435TIP3   OH222939   0.771   4.921   8.576  0.2115 -0.1616 -0.1901
  435TIP3    H122940   0.814   4.980   8.638  1.4824 -0.7804 -0.4518
  435TIP3    H222941   0.843   4.884   8.525 -0.5193 -2.2001  0.1929
  436TIP3   OH222942   1.570   4.406   1.291  0.5877  0.4725 -0.0490
  436TIP3    H122943   1.572   4.440   1.380 -0.5202 -0.8291  0.5021
  436TIP3    H222944   1.610   4.320   1.297  3.0384  1.3905 -1.3629
  437TIP3   OH222945   6.729   3.709   1.680 -0.2401 -0.2368  0.6556
  437TIP3    H122946   6.714   3.622   1.716  1.1240 -1.0801 -0.7008
  437TIP3    H222947   6.642   3.748   1.674 -0.7891 -1.1775  2.0379
  438TIP3   OH222948   3.385   4.576   0.006  0.5613  0.5251  0.4547
  438TIP3    H122949   3.417   4.563  -0.083 -1.2986 -1.4937 -0.0044
  438TIP3    H222950   3.449   4.532   0.062  0.8401  0.3077 -0.0364
  439TIP3   OH222951   5.607   3.865   1.812 -0.0728  0.0859  0.7136
  439TIP3    H122952   5.657   3.787   1.790  1.2722  1.1613 -0.2876
  439TIP3    H222953   5.518   3.846   1.783  0.0492 -1.3494  1.2315
  440TIP3   OH222954   3.901   4.337   7.233  0.1069 -0.1766 -0.3173
  440TIP3    H122955   3.911   4.390   7.153  0.8248  0.4564  0.1772
  440TIP3    H222956   3.958   4.262   7.219  0.8905  0.3611 -0.0555
  441TIP3   OH222957   1.484   1.316   7.904 -0.0259  0.2729 -0.6747
  441TIP3    H122958   1.476   1.224   7.928  1.2377  0.5110  0.7943
  441TIP3    H222959   1.447   1.364   7.977 -1.1761  0.9474 -1.6700
  442TIP3   OH222960   6.325   1.966   8.126  0.1084  0.9212 -0.0970
  442TIP3    H122961   6.296   1.916   8.050 -0.4294  1.8025 -0.4891
  442TIP3    H222962   6.418   1.944   8.136  0.4800  1.6704 -1.7163
  443TIP3   OH222963   6.348   3.208   7.380  0.3305 -0.1623  0.4779
  443TIP3    H122964   6.360   3.290   7.332  0.4122 -0.2996  0.2646
  443TIP3    H222965   6.436   3.185   7.410  0.0360  1.0042  2.4884
  444TIP3   OH222966   4.122   5.754   0.878  0.4488  0.3035  0.3683
  444TIP3    H122967   4.056   5.717   0.819  1.1618 -0.3959 -0.0066
  444TIP3    H222968   4.172   5.815   0.824  0.7080  0.1257  0.4040
  445TIP3   OH222969   1.433   1.241   2.465  0.4360 -0.2073  0.1265
  445TIP3    H122970   1.383   1.199   2.536 -1.0930 -0.3336 -0.9621
  445TIP3    H222971   1.366   1.276   2.407  1.6674  0.4777 -0.9232
  446TIP3   OH222972   0.495   0.978   8.598  0.1961  0.8869 -0.2276
  446TIP3    H122973   0.506   1.031   8.520 -0.1414  0.4882 -0.5493
  446TIP3    H222974   0.441   1.032   8.656 -4.2216 -0.7763 -2.3326
  447TIP3   OH222975   2.078   6.508   8.441 -0.7089  0.4072 -0.3636
  447TIP3    H122976   2.087   6.416   8.417 -1.7928  0.2722 -0.2855
  447TIP3    H222977   2.167   6.543   8.434 -0.3850 -0.4965 -0.9921
  448TIP3   OH222978   6.725   4.124   8.083  0.1807  0.2942  0.4364
  448TIP3    H122979   6.756   4.214   8.071 -0.2810  0.6503  1.8047
  448TIP3    H222980   6.756   4.099   8.170  2.7549 -1.9251 -0.9591
  449TIP3   OH222981   4.983   6.892   0.148  0.0960  0.0982  0.4494
  449TIP3    H122982   5.019   6.922   0.065 -1.9444  2.7372  0.3868
  449TIP3    H222983   5.054   6.905   0.211  1.1962 -0.6052 -0.5855
  450TIP3   OH222984   1.047   6.594   0.354  0.0713 -0.5263 -0.8822
  450TIP3    H122985   0.976   6.589   0.291  0.8240 -1.6947 -1.6710
  450TIP3    H222986   1.059   6.688   0.369 -1.4542 -0.2969 -0.9070
  451TIP3   OH222987   4.827   6.052   8.178  0.1115 -0.5877 -0.0887
  451TIP3    H122988   4.765   5.979   8.187 -1.9933  1.3440  3.4865
  451TIP3    H222989   4.886   6.042   8.253  1.6408 -0.1629 -1.1974
  452TIP3   OH222990   2.516   4.182   0.847 -0.0828  0.9223  0.0950
  452TIP3    H122991   2.484   4.265   0.812 -0.6898  0.5905 -0.1582
  452TIP3    H222992   2.459   4.163   0.922  1.1107  1.5460  1.1874
  453TIP3   OH222993   0.628   1.130   1.371 -0.8802  0.0026  0.6735
  453TIP3    H122994   0.571   1.206   1.358 -2.0321 -0.9657 -0.1598
  453TIP3    H222995   0.682   1.127   1.292  0.1469  0.7321  1.3202
  454TIP3   OH222996   6.441   0.851   1.454 -0.1153 -0.1975 -0.5936
  454TIP3    H122997   6.386   0.928   1.467  0.2995  0.1163 -0.6630
  454TIP3    H222998   6.383   0.787   1.412 -1.0483 -0.6953  1.3467
  455TIP3   OH222999   1.245   1.091   1.482 -0.1265 -0.1907  0.6147
  455TIP3    H123000   1.198   1.090   1.566 -0.5703 -1.3273  0.3684
  455TIP3    H223001   1.267   1.000   1.466 -0.0574  0.0122 -0.5231
  456TIP3   OH223002   6.296   1.491   8.414 -0.4449 -0.0932  0.2526
  456TIP3    H123003   6.297   1.511   8.320  0.6202  0.9134  0.4398
  456TIP3    H223004   6.209   1.517   8.444 -0.5318  0.3095 -0.3290
  457TIP3   OH223005   0.568   4.822   1.280 -0.2712 -0.1295 -0.0841
  457TIP3    H123006   0.553   4.899   1.225 -0.2228 -0.4333 -0.5234
  457TIP3    H223007   0.503   4.759   1.251  1.6673 -1.4257 -1.9282
  458TIP3   OH223008   0.237   0.983   8.436 -0.8557  0.8137 -0.1886
  458TIP3    H123009   0.298   0.944   8.499  0.7182  0.6515 -1.7517
  458TIP3    H223010   0.264   1.074   8.430  0.7950  0.2504 -2.5572
  459TIP3   OH223011   2.504   4.412   1.460  0.8306 -0.5870 -0.5009
  459TIP3    H123012   2.461   4.335   1.421  0.2388 -0.1812 -0.6733
  459TIP3    H223013   2.529   4.465   1.385 -1.0508  0.5953 -0.3557
  460TIP3   OH223014   1.550   6.845   0.631 -0.1216 -0.1077 -0.2789
  460TIP3    H123015   1.529   6.877   0.719  0.2821  1.0057 -0.5695
  460TIP3    H223016   1.572   6.753   0.643 -2.1212 -0.5366  0.4845
  461TIP3   OH223017   3.317   4.838   8.619  0.1342 -0.4508 -0.2033
  461TIP3    H123018   3.263   4.876   8.688  1.0010 -0.6188  0.5895
  461TIP3    H223019   3.339   4.751   8.651  2.3668  0.2506  0.3715
  462TIP3   OH223020   0.198   6.252   0.447 -0.4539  0.0632  0.3416
  462TIP3    H123021   0.166   6.228   0.360  2.0565  1.8772 -1.2272
  462TIP3    H223022   0.137   6.319   0.478 -1.5215 -0.7887  0.1220
  463TIP3   OH223023   0.872   3.661   1.546 -0.1480 -0.3396 -0.1139
  463TIP3    H123024   0.948   3.684   1.600  1.2509 -1.6937 -1.3914
  463TIP3    H223025   0.897   3.579   1.504 -2.2907 -0.7461 -0.7011
  464TIP3   OH223026   0.867   5.453   6.413 -0.0446  0.3727 -0.1775
  464TIP3    H123027   0.828   5.506   6.343 -0.4816 -1.5716 -1.4729
  464TIP3    H223028   0.947   5.417   6.374  0.5884  0.5528  0.8958
  465TIP3   OH223029   5.159   3.611   1.850  0.0110  0.8839  0.3379
  465TIP3    H123030   5.205   3.529   1.832 -0.6515  0.3725  0.8975
  465TIP3    H223031   5.135   3.646   1.764 -0.0298  0.2951  0.1106
  466TIP3   OH223032   3.525   3.510   0.866 -0.0514  0.4993 -0.6083
  466TIP3    H123033   3.496   3.421   0.887  2.9458 -0.5453 -0.5055
  466TIP3    H223034   3.549   3.548   0.951  2.0712  0.0449 -0.9471
  467TIP3   OH223035   6.777   0.450   7.871  0.1718  0.4795  0.6264
  467TIP3    H123036   6.829   0.451   7.791  0.8910  0.0621  1.0885
  467TIP3    H223037   6.690   0.422   7.842 -0.0795  2.0673 -0.2991
  468TIP3   OH223038   0.820   2.639   0.905 -0.3648 -0.4841  0.7233
  468TIP3    H123039   0.826   2.665   0.998 -0.2242 -1.4124  0.9816
  468TIP3    H223040   0.812   2.722   0.858 -1.2824 -0.0326  1.6291
  469TIP3   OH223041   1.785   2.730   7.144 -0.6536  0.2040 -0.2627
  469TIP3    H123042   1.711   2.703   7.197  0.5233 -0.4002  1.1314
  469TIP3    H223043   1.781   2.673   7.067 -0.6979 -0.9874  0.5872
  470TIP3   OH223044   3.848   0.859   7.245  0.0692 -0.0897 -0.5650
  470TIP3    H123045   3.911   0.787   7.247 -0.4948 -0.5920  1.2706
  470TIP3    H223046   3.805   0.850   7.160  0.0858 -1.8965 -0.4337
  471TIP3   OH223047   6.352   5.420   6.886 -1.0202  0.3563 -0.0650
  471TIP3    H123048   6.385   5.435   6.797  2.2469  0.5949  1.0331
  471TIP3    H223049   6.408   5.474   6.941 -0.8316 -2.1404  2.4183
  472TIP3   OH223050   1.092   0.788   2.024 -0.5988 -0.2542 -0.2713
  472TIP3    H123051   1.031   0.804   2.097  0.0424  0.0980  0.2051
  472TIP3    H223052   1.177   0.816   2.059 -0.2680 -0.1867 -1.1271
  473TIP3   OH223053   4.128   2.674   1.273 -0.2662  0.3377  0.3902
  473TIP3    H123054   4.084   2.693   1.356 -0.2105  0.4299  0.3987
  473TIP3    H223055   4.114   2.752   1.220 -2.1136 -0.5221 -0.4674
  474TIP3   OH223056   2.589   1.053   7.071  0.6179 -0.4533 -0.2037
  474TIP3    H123057   2.641   0.995   7.016  0.9350  0.3254 -0.7385
  474TIP3    H223058   2.652   1.116   7.106  0.1619  0.0055 -0.2018
  475TIP3   OH223059   6.412   0.021   0.274  0.6698  0.0901  0.0919
  475TIP3    H123060   6.404   0.101   0.221 -0.0155  0.2817  0.4691
  475TIP3    H223061   6.487   0.038   0.331  0.6841  0.3632 -0.0061
  476TIP3   OH223062   4.458   6.421   7.208 -0.3069 -0.1939 -0.1041
  476TIP3    H123063   4.366   6.440   7.225 -0.3257 -0.5694  0.2396
  476TIP3    H223064   4.499   6.507   7.199 -0.5912 -0.0118  0.3022
  477TIP3   OH223065   5.866   4.030   0.237  0.5443 -0.6274  0.5142
  477TIP3    H123066   5.822   4.114   0.222 -1.2925 -1.7647 -1.0132
  477TIP3    H223067   5.799   3.974   0.276  1.9239 -1.2512  2.1319
  478TIP3   OH223068   4.505   0.189   7.407 -0.6414  0.0409  0.6452
  478TIP3    H123069   4.585   0.221   7.448 -0.4689  0.8201 -0.2703
  478TIP3    H223070   4.477   0.115   7.462  0.4022  0.1029  1.2716
  479TIP3   OH223071   3.427   2.064   8.217 -0.2766  0.2603 -0.1512
  479TIP3    H123072   3.380   2.024   8.144  0.2515  0.4392 -0.5995
  479TIP3    H223073   3.514   2.082   8.183  0.4324 -0.9349  0.9359
  480TIP3   OH223074   0.420   6.205   0.087  0.1408 -0.0731  0.7368
  480TIP3    H123075   0.385   6.291   0.107  0.3236  0.4816 -1.1051
  480TIP3    H223076   0.417   6.200  -0.009  2.3313 -1.1507  0.6623
  481TIP3   OH223077   1.019   1.046   1.236  0.3195 -0.3434 -0.5375
  481TIP3    H123078   1.110   1.015   1.243  0.5915  0.1127 -1.8191
  481TIP3    H223079   1.000   1.044   1.143 -0.0959  2.0374 -0.5670
  482TIP3   OH223080   0.575   5.656   8.415  0.0256  0.4574 -0.3195
  482TIP3    H123081   0.598   5.722   8.481 -0.7359  1.4731 -1.0324
  482TIP3    H223082   0.589   5.701   8.331 -2.7020  0.5459 -0.8131
  483TIP3   OH223083   3.763   2.061   1.017  0.1388  0.1260  0.4511
  483TIP3    H123084   3.813   2.064   0.936  1.0925 -1.3668  0.9235
  483TIP3    H223085   3.672   2.065   0.989  0.4329 -0.7383 -0.7530
  484TIP3   OH223086   2.038   4.240   8.616 -0.5187 -0.2996  0.2059
  484TIP3    H123087   1.978   4.254   8.689  0.0678 -0.1329  0.6734
  484TIP3    H223088   2.022   4.313   8.556 -0.7047 -0.1948  0.3838
  485TIP3   OH223089   3.186   4.780   8.376 -0.2301  0.2611  0.2870
  485TIP3    H123090   3.209   4.687   8.380  0.0985  0.3794  3.0898
  485TIP3    H223091   3.227   4.818   8.454  0.8354  3.0671 -1.4885
  486TIP3   OH223092   1.814   0.713   7.760 -0.4083 -0.2271  0.4874
  486TIP3    H123093   1.826   0.636   7.815  0.5584 -0.3944  0.0672
  486TIP3    H223094   1.902   0.748   7.748 -1.0732  2.9099  3.4176
  487TIP3   OH223095   4.994   2.087   7.227 -0.1021 -0.4351  0.3682
  487TIP3    H123096   4.994   2.110   7.134  0.1995  0.3020  0.5433
  487TIP3    H223097   5.051   2.010   7.233  0.6652  0.0921  0.0694
  488TIP3   OH223098   6.346   1.114   0.085  0.7032 -0.0638  0.3057
  488TIP3    H123099   6.338   1.020   0.100 -1.6794  0.2503  1.3132
  488TIP3    H223100   6.309   1.128  -0.002 -0.8441  0.1684  0.9820
  489TIP3   OH223101   3.737   2.192   0.206 -0.2229 -0.2017  0.0335
  489TIP3    H123102   3.785   2.214   0.126 -0.4735  3.0953  0.6638
  489TIP3    H223103   3.647   2.176   0.177  0.1579 -1.4038 -0.5622
  490TIP3   OH223104   1.615   5.709   0.373  0.3632  0.1370 -0.2979
  490TIP3    H123105   1.616   5.747   0.462 -0.8571 -0.4128 -0.0327
  490TIP3    H223106   1.601   5.615   0.387  1.3304 -0.1289 -1.0370
  491TIP3   OH223107   6.420   1.564   0.041  0.0881  0.8837  1.0094
  491TIP3    H123108   6.476   1.610   0.104  0.0868  0.3635  1.3956
  491TIP3    H223109   6.365   1.507   0.095  1.1208 -0.6996  0.4636
  492TIP3   OH223110   4.890   2.729   6.349  0.5038 -0.0715  0.4913
  492TIP3    H123111   4.837   2.808   6.358 -2.0661 -1.6818  0.6514
  492TIP3    H223112   4.930   2.736   6.263  0.6423  1.5445  0.6592
  493TIP3   OH223113   0.176   4.193   0.342 -0.1016 -0.3813  0.1591
  493TIP3    H123114   0.198   4.101   0.356  0.9717  0.0212  1.3874
  493TIP3    H223115   0.085   4.200   0.369 -0.0108 -0.9723  0.6409
  494TIP3   OH223116   5.346   4.145   1.328  0.0401 -0.3724  0.0720
  494TIP3    H123117   5.286   4.081   1.366  0.2401 -1.5915 -1.5902
  494TIP3    H223118   5.323   4.149   1.236  2.4870 -0.9272 -0.6451
  495TIP3   OH223119   6.275   3.223   2.494  0.1574  0.0522 -0.0956
  495TIP3    H123120   6.214   3.180   2.434  0.7784 -0.0732 -0.6501
  495TIP3    H223121   6.358   3.177   2.481  0.6179  0.8628 -0.0781
  496TIP3   OH223122   3.403   0.842   8.163  0.0962  0.0934  0.0567
  496TIP3    H123123   3.356   0.795   8.232 -0.7907  0.2323 -0.4341
  496TIP3    H223124   3.344   0.839   8.088  1.2860 -0.5637 -0.8909
  497TIP3   OH223125   2.243   3.631   7.446 -0.5871 -0.5728 -0.3931
  497TIP3    H123126   2.299   3.670   7.379 -0.6899  0.4068  0.0703
  497TIP3    H223127   2.301   3.574   7.496  0.0950  0.6566  0.2743
  498TIP3   OH223128   4.506   4.665   6.717  0.0158 -0.3879 -0.0211
  498TIP3    H123129   4.439   4.649   6.784  0.1742 -1.2073 -0.0491
  498TIP3    H223130   4.458   4.706   6.645 -0.1680  0.4377  0.5494
  499TIP3   OH223131   2.357   1.590   8.267  0.5266 -0.3338 -0.3214
  499TIP3    H123132   2.335   1.500   8.288  2.1525 -1.1699 -1.9578
  499TIP3    H223133   2.316   1.605   8.182  0.1299  0.5581  0.0089
  500TIP3   OH223134   6.885   0.119   6.945 -0.3357 -0.0984  0.0821
  500TIP3    H123135   6.974   0.098   6.975  0.1628  0.3851 -1.0305
  500TIP3    H223136   6.884   0.214   6.938 -0.2066 -0.2049 -2.0559
  501TIP3   OH223137   2.783   3.196   8.261 -0.1332  0.0531  0.2452
  501TIP3    H123138   2.774   3.109   8.221 -1.6268  1.4763 -2.7948
  501TIP3    H223139   2.696   3.214   8.297 -0.4360  1.0885 -0.9667
  502TIP3   OH223140   2.336   0.582   6.988 -0.5803 -0.0461 -0.1869
  502TIP3    H123141   2.420   0.614   7.022  0.3423 -1.2005 -1.2578
  502TIP3    H223142   2.289   0.661   6.962 -0.6066  0.7451  2.0864
  503TIP3   OH223143   4.846   2.718   8.657  0.8136  0.7919  0.1378
  503TIP3    H123144   4.876   2.709   8.566  0.8597  1.1504  0.1159
  503TIP3    H223145   4.864   2.633   8.697 -2.0576 -0.4834 -1.0047
  504TIP3   OH223146   4.223   3.510   7.518  0.1429 -0.2089 -1.0074
  504TIP3    H123147   4.212   3.426   7.474 -0.0617  0.6727 -2.7066
  504TIP3    H223148   4.205   3.491   7.610  1.8544 -2.3696 -1.0464
  505TIP3   OH223149   6.493   1.071   8.467 -0.3100 -0.7035  0.0413
  505TIP3    H123150   6.552   1.138   8.502  0.1275 -0.3764 -1.2602
  505TIP3    H223151   6.419   1.120   8.433 -0.2435 -0.9235 -0.4240
  506TIP3   OH223152   6.578   0.133   8.630 -0.2011  0.0452 -0.6503
  506TIP3    H123153   6.650   0.195   8.641 -1.6504  1.9053 -1.1498
  506TIP3    H223154   6.558   0.134   8.537  1.0875 -2.8502 -1.0519
  507TIP3   OH223155   2.036   4.957   6.254  0.3237  0.2166 -0.5405
  507TIP3    H123156   2.108   4.895   6.240  0.9368  0.5201  1.0609
  507TIP3    H223157   1.981   4.915   6.320  1.2487  1.7143  1.2737
  508TIP3   OH223158   5.584   5.970   7.476  0.3963  0.0237 -0.4988
  508TIP3    H123159   5.600   6.064   7.491  1.1923 -0.0287 -0.9842
  508TIP3    H223160   5.489   5.962   7.480  0.4117  0.3194  2.6712
  509TIP3   OH223161   4.608   3.416   1.995 -0.0736 -0.0591 -0.3251
  509TIP3    H123162   4.692   3.458   1.977 -0.2534  0.1572 -0.6925
  509TIP3    H223163   4.554   3.487   2.031  0.0472 -0.3110  0.3547
  510TIP3   OH223164   5.510   6.883   7.178 -0.0655 -0.1042 -0.3410
  510TIP3    H123165   5.598   6.894   7.211 -0.3156  1.7853 -0.2325
  510TIP3    H223166   5.489   6.791   7.197  1.7509 -0.5195 -0.1541
  511TIP3   OH223167   0.736   1.211   1.112 -0.3893 -0.4766  0.7597
  511TIP3    H123168   0.825   1.186   1.086 -0.3111  0.3232  0.2396
  511TIP3    H223169   0.743   1.304   1.133 -1.4106 -0.0313 -0.7465
  512TIP3   OH223170   6.888   4.482   0.353  0.2060 -0.6357  0.4512
  512TIP3    H123171   6.963   4.539   0.332  0.2541 -1.0642 -0.6124
  512TIP3    H223172   6.921   4.424   0.421  0.7841 -0.6719  0.1515
  513TIP3   OH223173   4.253   5.440   1.265  0.6138  0.1106  0.1295
  513TIP3    H123174   4.331   5.399   1.228  0.5179  1.6810 -2.0241
  513TIP3    H223175   4.217   5.493   1.193 -1.5383  0.7021  1.5291
  514TIP3   OH223176   2.816   0.323   1.070  0.0677 -0.4940 -0.1199
  514TIP3    H123177   2.796   0.231   1.083  1.0259 -0.6630  0.1931
  514TIP3    H223178   2.744   0.370   1.113  0.8609 -1.0705  1.9281
  515TIP3   OH223179   6.626   3.852   8.519 -0.4187 -0.0373  0.1307
  515TIP3    H123180   6.564   3.873   8.449  0.1104  1.3865  0.0564
  515TIP3    H223181   6.647   3.760   8.506 -0.8013  0.0454 -1.2174
  516TIP3   OH223182   3.176   0.963   7.229 -0.4215  0.5637  0.5594
  516TIP3    H123183   3.266   0.974   7.200 -0.6045 -1.2977 -0.8552
  516TIP3    H223184   3.183   0.944   7.322  0.4278  2.9210  1.0592
  517TIP3   OH223185   2.381   0.396   0.557 -0.0399 -0.3781  0.2530
  517TIP3    H123186   2.408   0.445   0.480  0.5662 -0.5484  0.3507
  517TIP3    H223187   2.321   0.455   0.604 -1.0605 -0.5749 -0.7461
  518TIP3   OH223188   1.208   4.070   1.304 -0.1139 -0.2013  0.4950
  518TIP3    H123189   1.241   4.157   1.279  1.0325 -0.5075  0.9076
  518TIP3    H223190   1.156   4.086   1.382 -2.0771  0.4694 -0.8528
  519TIP3   OH223191   3.257   4.528   8.391 -0.2591  0.5308  0.3653
  519TIP3    H123192   3.224   4.445   8.426 -0.6431  0.5342  0.0118
  519TIP3    H223193   3.352   4.516   8.388 -0.2935  0.1961  0.5442
  520TIP3   OH223194   3.033   0.132   8.531  0.1469  0.4956 -0.1092
  520TIP3    H123195   2.943   0.164   8.541 -0.0587  1.0552 -2.8406
  520TIP3    H223196   3.084   0.187   8.589 -1.0127  1.7076 -0.1810
  521TIP3   OH223197   4.113   0.367   0.443  0.1715 -0.1104  0.4847
  521TIP3    H123198   4.202   0.370   0.479  0.4758 -1.5710 -0.0517
  521TIP3    H223199   4.083   0.458   0.444  1.4099  0.3130  1.3152
  522TIP3   OH223200   4.001   4.502   1.845 -0.0876 -0.4795  0.2314
  522TIP3    H123201   3.929   4.439   1.852 -0.6521  0.1628  0.2938
  522TIP3    H223202   3.959   4.583   1.816  0.7371 -0.3215 -0.5573
  523TIP3   OH223203   4.903   5.474   1.518 -0.2011  0.0121  0.1957
  523TIP3    H123204   4.822   5.513   1.552 -0.2026  0.1448  0.0390
  523TIP3    H223205   4.921   5.401   1.577 -0.2458  0.1963  0.4383
  524TIP3   OH223206   4.670   2.201   6.783 -0.3672  0.7719 -0.0619
  524TIP3    H123207   4.599   2.233   6.728 -1.0374 -2.1525 -1.0760
  524TIP3    H223208   4.627   2.148   6.850  0.6670  1.7837  1.4716
  525TIP3   OH223209   3.104   6.525   7.302  0.1751  0.4882 -0.4054
  525TIP3    H123210   3.036   6.536   7.369 -0.4421 -2.4281 -0.4300
  525TIP3    H223211   3.056   6.526   7.219  0.3993  0.1213 -0.5402
  526TIP3   OH223212   0.010   5.534   8.367 -0.2704  0.1239  0.0673
  526TIP3    H123213   0.023   5.496   8.454  0.0263  0.5573  0.2192
  526TIP3    H223214   0.062   5.615   8.369 -1.0694  0.6521 -0.1598
  527TIP3   OH223215   0.278   2.521   0.762  0.0720 -0.0078  0.2725
  527TIP3    H123216   0.189   2.502   0.791 -0.1828  1.8759  0.8842
  527TIP3    H223217   0.311   2.583   0.827  0.6769  1.7663 -1.6290
  528TIP3   OH223218   3.250   3.645   7.297  0.0075 -0.1624  0.1450
  528TIP3    H123219   3.180   3.639   7.362  0.6718  1.9035  1.1375
  528TIP3    H223220   3.330   3.656   7.349  0.5391  1.7423 -0.9822
  529TIP3   OH223221   6.408   3.200   1.359 -0.0237  0.1452  0.1451
  529TIP3    H123222   6.480   3.147   1.395  0.4526  1.5234  1.3502
  529TIP3    H223223   6.440   3.228   1.274  0.4651 -0.0361  0.2615
  530TIP3   OH223224   3.258   2.159   1.226  0.1206  0.0021 -0.0198
  530TIP3    H123225   3.280   2.081   1.278 -0.3842  0.2116  0.5200
  530TIP3    H223226   3.317   2.227   1.258 -0.6149  0.3006  0.7387
  531TIP3   OH223227   0.603   0.742   7.072 -0.9965 -0.3117  0.0123
  531TIP3    H123228   0.538   0.688   7.026 -1.2260  1.1432 -1.5024
  531TIP3    H223229   0.681   0.688   7.075 -1.7842 -1.4773  0.3779
  532TIP3   OH223230   5.917   0.513   2.019  0.0380  0.5742  0.0809
  532TIP3    H123231   5.992   0.568   2.041  0.7813 -0.2272 -0.4013
  532TIP3    H223232   5.952   0.425   2.013 -0.7022  0.3358 -1.2686
  533TIP3   OH223233   2.333   0.720   7.988 -0.1802 -0.2115 -0.3891
  533TIP3    H123234   2.370   0.796   8.033 -2.1698  1.4709 -1.4104
  533TIP3    H223235   2.348   0.737   7.895  0.0410 -1.4811 -0.6018
  534TIP3   OH223236   3.319   0.310   8.092  0.9129 -0.6096 -0.3149
  534TIP3    H123237   3.384   0.281   8.156 -0.2342 -1.1809  0.6546
  534TIP3    H223238   3.235   0.287   8.132  0.1068  0.2131 -1.4623
  535TIP3   OH223239   3.989   4.970   8.153  0.7946  0.0817  0.1013
  535TIP3    H123240   3.953   4.922   8.228 -0.2900 -1.2017 -1.1837
  535TIP3    H223241   3.922   5.034   8.131  1.7377  1.4572  1.0830
  536TIP3   OH223242   5.732   5.970   1.851 -0.5548  0.5077 -0.0323
  536TIP3    H123243   5.675   6.044   1.873 -0.5939  0.7790 -1.0011
  536TIP3    H223244   5.780   5.952   1.932 -2.4285 -0.1259  1.0156
  537TIP3   OH223245   5.300   3.083   1.569  0.3302 -0.3043  0.3548
  537TIP3    H123246   5.388   3.102   1.603  0.9513 -0.9703 -0.8220
  537TIP3    H223247   5.290   3.141   1.494  0.0970 -0.8113 -0.0103
  538TIP3   OH223248   0.316   4.767   7.258  0.1102  0.1485  0.1997
  538TIP3    H123249   0.314   4.672   7.248  0.9297  0.1314  0.1026
  538TIP3    H223250   0.301   4.782   7.352 -0.9504 -0.0185  0.0715
  539TIP3   OH223251   4.595   4.677   7.040 -0.0616  0.8953 -0.1040
  539TIP3    H123252   4.638   4.757   7.071  0.1037  0.6024  0.4326
  539TIP3    H223253   4.512   4.707   7.002 -0.9463  1.1366  1.9050
  540TIP3   OH223254   4.060   1.526   8.023 -0.3632 -0.1054 -0.0176
  540TIP3    H123255   4.143   1.491   7.989 -1.3042 -1.6186 -0.8785
  540TIP3    H223256   4.058   1.501   8.115  0.5812  0.8428  0.2754
  541TIP3   OH223257   6.375   3.672   0.010 -0.0166  0.1330  0.2437
  541TIP3    H123258   6.424   3.622  -0.055  0.8102  2.2992 -0.8974
  541TIP3    H223259   6.375   3.616   0.088 -0.5073 -2.2639 -1.3741
  542TIP3   OH223260   6.133   4.252   0.311 -0.3001  0.5308 -0.6954
  542TIP3    H123261   6.120   4.346   0.324 -1.0684  0.1754  1.5092
  542TIP3    H223262   6.045   4.215   0.310  0.0305 -0.3269  0.0889
  543TIP3   OH223263   1.599   4.859   8.170 -0.1662 -0.2937  0.3832
  543TIP3    H123264   1.568   4.892   8.255 -1.3740 -1.4937  0.4389
  543TIP3    H223265   1.574   4.767   8.170 -0.7866 -0.1525 -1.5658
  544TIP3   OH223266   3.951   1.247   0.569  0.1357 -0.4278  0.2531
  544TIP3    H123267   3.982   1.256   0.659  1.7838  1.8027 -0.4328
  544TIP3    H223268   3.859   1.272   0.573  0.6527  1.5934  1.1174
  545TIP3   OH223269   0.060   4.494   1.154  0.2306  0.4853 -0.2971
  545TIP3    H123270  -0.031   4.507   1.127 -0.7290 -2.9855  0.6603
  545TIP3    H223271   0.111   4.503   1.074 -0.8381  2.8621 -0.7905
  546TIP3   OH223272   2.155   4.575   8.244  0.1343 -0.6655  0.2970
  546TIP3    H123273   2.070   4.556   8.285 -0.4993  3.3390  1.2245
  546TIP3    H223274   2.133   4.600   8.155  0.4048 -0.1147  0.3865
  547TIP3   OH223275   4.295   3.345   2.249 -0.4776  0.4884 -0.0791
  547TIP3    H123276   4.340   3.261   2.252  0.1311  0.7681 -1.1611
  547TIP3    H223277   4.224   3.336   2.313  0.0628 -0.5571  0.3976
  548TIP3   OH223278   2.501   5.375   0.893  0.0983 -0.5360  0.3437
  548TIP3    H123279   2.435   5.328   0.841 -1.6253  1.0098  1.0468
  548TIP3    H223280   2.499   5.333   0.979  0.2551 -0.6775  0.2794
  549TIP3   OH223281   2.714   2.397   6.887  0.4962  0.2869 -0.2449
  549TIP3    H123282   2.798   2.443   6.891  1.0411 -0.6637 -0.2530
  549TIP3    H223283   2.655   2.458   6.844  0.7255  1.6308  1.2707
  550TIP3   OH223284   5.299   0.549   2.145 -0.0744 -0.1353  0.0659
  550TIP3    H123285   5.279   0.589   2.230 -1.0417  0.2107 -0.3072
  550TIP3    H223286   5.214   0.519   2.112 -0.0948  1.5856 -1.6903
  551TIP3   OH223287   2.245   3.272   7.840  0.2327 -0.6397  0.2080
  551TIP3    H123288   2.180   3.246   7.906 -1.0818 -1.3442 -1.2812
  551TIP3    H223289   2.218   3.360   7.813  0.5445 -0.5009  0.3455
  552TIP3   OH223290   2.871   1.576   1.915 -0.3354  0.6238 -0.2798
  552TIP3    H123291   2.872   1.660   1.963 -1.6627  0.1621  0.6338
  552TIP3    H223292   2.960   1.542   1.924  0.3283  2.0952 -0.9817
  553TIP3   OH223293   1.755   2.441   1.830 -0.2160 -0.2395 -0.0867
  553TIP3    H123294   1.676   2.455   1.883  0.0487  0.5215  0.1220
  553TIP3    H223295   1.801   2.525   1.833  0.3339 -0.5120 -0.6558
  554TIP3   OH223296   6.068   1.577   8.505  0.5169 -0.2352 -0.6477
  554TIP3    H123297   6.010   1.539   8.439  1.4592 -0.5022 -1.3377
  554TIP3    H223298   6.018   1.573   8.587 -0.2282 -0.9371 -1.1319
  555TIP3   OH223299   3.079   0.394   7.674  0.5073  0.1867 -0.4107
  555TIP3    H123300   3.134   0.470   7.692  0.6020  0.2563 -0.9684
  555TIP3    H223301   3.140   0.324   7.653  0.3852  0.4299 -1.6638
  556TIP3   OH223302   1.363   2.099   1.399 -0.0602  0.1611  0.5595
  556TIP3    H123303   1.281   2.081   1.354  0.1947 -0.2068  0.2387
  556TIP3    H223304   1.409   2.015   1.401  1.3372  0.8073 -1.3357
  557TIP3   OH223305   6.849   0.624   1.460  0.3923  0.1266 -0.2190
  557TIP3    H123306   6.918   0.586   1.516  0.5649  2.1702  1.0383
  557TIP3    H223307   6.801   0.683   1.518  0.3257  2.0572 -2.1197
  558TIP3   OH223308   3.299   1.143   7.000  0.9770  0.2715 -0.5509
  558TIP3    H123309   3.339   1.097   7.074 -0.8233  0.2547  0.4542
  558TIP3    H223310   3.368   1.145   6.934  3.6159  2.6034  1.9998
  559TIP3   OH223311   1.987   4.523   6.699 -0.1729 -1.2339 -0.4524
  559TIP3    H123312   2.081   4.510   6.686 -0.3889 -1.6711 -1.7058
  559TIP3    H223313   1.946   4.464   6.636 -1.2649  0.1173 -1.0530
  560TIP3   OH223314   1.691   0.200   2.745  0.5031  0.3886 -0.5442
  560TIP3    H123315   1.767   0.210   2.687  0.0495  0.6965 -1.0984
  560TIP3    H223316   1.724   0.224   2.832  0.5063  2.7773 -1.1297
  561TIP3   OH223317   6.118   5.489   7.433 -0.1355  0.1092  0.0171
  561TIP3    H123318   6.165   5.444   7.503  1.1162 -0.6534 -1.2632
  561TIP3    H223319   6.047   5.430   7.410 -0.8377  0.5717  0.9231
  562TIP3   OH223320   1.388   1.518   8.091  0.2445 -0.2559  0.2383
  562TIP3    H123321   1.397   1.539   8.184 -1.5733 -3.0853  1.1927
  562TIP3    H223322   1.331   1.586   8.056  1.1856  1.0074  1.0981
  563TIP3   OH223323   0.210   0.592   6.479  0.7635 -0.8537  0.2259
  563TIP3    H123324   0.280   0.540   6.518  0.4896 -0.3238  1.4609
  563TIP3    H223325   0.152   0.613   6.552  0.8511  1.1824 -0.2255
  564TIP3   OH223326   5.595   0.307   1.393  0.3423  0.4634 -0.6311
  564TIP3    H123327   5.509   0.337   1.363 -0.6358 -1.8037 -0.2910
  564TIP3    H223328   5.602   0.217   1.362  2.4156  0.4333 -0.2341
  565TIP3   OH223329   0.703   2.886   0.817  0.0553  0.3012 -0.1231
  565TIP3    H123330   0.749   2.874   0.734  0.5316 -0.7261  0.2663
  565TIP3    H223331   0.693   2.980   0.826  0.6338  0.4591 -1.0045
  566TIP3   OH223332   3.523   5.640   7.176 -0.4802  0.0904  0.0958
  566TIP3    H123333   3.464   5.639   7.252 -1.0502  0.9431 -0.3212
  566TIP3    H223334   3.578   5.717   7.190 -0.2038 -0.0725 -0.0819
  567TIP3   OH223335   4.135   6.435   7.611  0.2116 -0.5173 -0.1542
  567TIP3    H123336   4.126   6.447   7.706 -0.6821 -1.1670 -0.1375
  567TIP3    H223337   4.185   6.354   7.602  2.1806  0.6502 -0.2608
  568TIP3   OH223338   3.164   0.923   2.254 -0.1492 -0.4423 -0.5224
  568TIP3    H123339   3.087   0.948   2.304  0.1870  1.5354 -0.9020
  568TIP3    H223340   3.180   0.832   2.278 -0.8890 -0.0240  1.7806
  569TIP3   OH223341   2.051   3.409   0.826  0.3649  0.5294  0.4191
  569TIP3    H123342   1.956   3.398   0.821  0.2516  0.7776  1.8087
  569TIP3    H223343   2.063   3.484   0.884  1.4512 -0.7045  1.8532
  570TIP3   OH223344   3.454   0.623   2.008  0.1359  0.0804  0.2177
  570TIP3    H123345   3.434   0.573   2.087  0.1617  0.4653  0.4694
  570TIP3    H223346   3.439   0.561   1.936  1.8580 -0.8637  0.5944
  571TIP3   OH223347   6.024   4.391   7.653  0.8012 -0.0943 -0.5728
  571TIP3    H123348   5.950   4.330   7.647  1.1720 -0.7919  1.3069
  571TIP3    H223349   6.090   4.344   7.704  0.5200  2.3956  2.3367
  572TIP3   OH223350   1.353   3.011   1.369 -0.0616  0.2874  0.6100
  572TIP3    H123351   1.437   3.023   1.413  0.0332  1.0073  0.2400
  572TIP3    H223352   1.356   2.922   1.335  0.7980  0.5051  0.0856
  573TIP3   OH223353   3.646   0.641   8.392  0.1793  0.0674 -0.2095
  573TIP3    H123354   3.696   0.680   8.464  0.0877 -1.2457  0.5928
  573TIP3    H223355   3.647   0.708   8.324  3.3201  0.0095 -0.3744
  574TIP3   OH223356   5.910   2.773   6.983  0.2858  0.2983  0.0518
  574TIP3    H123357   5.987   2.805   7.032  1.1159 -1.8466  0.2408
  574TIP3    H223358   5.851   2.740   7.051  0.6724 -1.0773 -0.2507
  575TIP3   OH223359   3.451   1.996   1.053 -0.5969  0.1432 -0.1230
  575TIP3    H123360   3.508   1.991   1.130 -0.1673 -0.7053 -0.4874
  575TIP3    H223361   3.369   1.956   1.081  0.0444 -1.5225 -0.5227
  576TIP3   OH223362   0.996   5.278   0.138  0.0087 -0.1555  0.3956
  576TIP3    H123363   1.037   5.320   0.062  0.1336 -0.2361  0.4179
  576TIP3    H223364   0.932   5.342   0.169  0.1838  0.0111  0.4172
  577TIP3   OH223365   3.969   2.631   7.728  0.3568  0.0270 -0.0798
  577TIP3    H123366   3.958   2.568   7.800  1.5061 -0.5406 -0.3764
  577TIP3    H223367   4.012   2.581   7.659  0.1819  0.8370 -0.7930
  578TIP3   OH223368   4.246   5.442   0.006 -0.1385 -0.6934  0.1365
  578TIP3    H123369   4.310   5.415   0.073  0.5109 -1.2820 -0.6965
  578TIP3    H223370   4.242   5.537   0.014  2.6297 -0.3242 -1.2765
  579TIP3   OH223371   5.265   2.542   0.882  0.0267  0.5505  0.1584
  579TIP3    H123372   5.318   2.535   0.961  0.2447  1.5346  0.1061
  579TIP3    H223373   5.328   2.537   0.810 -0.1672 -0.3065  0.0349
  580TIP3   OH223374   6.676   0.155   0.907 -0.4999 -0.2781 -0.1895
  580TIP3    H123375   6.609   0.205   0.861 -0.5826  0.2301  0.4625
  580TIP3    H223376   6.723   0.220   0.960 -0.1282 -0.7758  0.1039
  581TIP3   OH223377   3.377   4.870   6.660  0.2059 -0.1113 -0.5270
  581TIP3    H123378   3.437   4.931   6.701  2.0011 -2.1975  0.1707
  581TIP3    H223379   3.338   4.919   6.587 -0.3802  2.5604  1.4363
  582TIP3   OH223380   2.428   3.358   0.737  0.2748 -0.2615  0.4926
  582TIP3    H123381   2.522   3.339   0.740  0.9653  2.2580 -1.7453
  582TIP3    H223382   2.398   3.340   0.826  3.1067 -0.1476  1.5985
  583TIP3   OH223383   1.566   4.059   0.088  1.3098 -0.1475  0.0477
  583TIP3    H123384   1.474   4.049   0.063  1.0617  1.5097  0.1425
  583TIP3    H223385   1.570   4.146   0.128  3.3742  0.9111 -2.2102
  584TIP3   OH223386   1.322   3.104   8.142 -0.5605  0.1399 -0.7034
  584TIP3    H123387   1.294   3.193   8.165 -0.4225 -0.1407  0.6306
  584TIP3    H223388   1.261   3.047   8.188  1.1052 -0.4649  0.8907
  585TIP3   OH223389   2.257   2.529   7.689 -0.0616 -0.2084  0.8059
  585TIP3    H123390   2.315   2.605   7.693  0.8700 -0.5881 -2.2831
  585TIP3    H223391   2.204   2.543   7.610 -0.1152 -2.5521  0.3286
  586TIP3   OH223392   5.239   5.911   6.509 -0.2257  0.0096  0.4067
  586TIP3    H123393   5.185   5.921   6.431  0.5081 -1.2779 -0.3069
  586TIP3    H223394   5.305   5.846   6.484  2.4063  2.3496  0.8226
  587TIP3   OH223395   1.604   1.898   7.911 -0.8462 -0.4226 -0.0750
  587TIP3    H123396   1.655   1.916   7.990 -1.1719 -0.1264  0.0696
  587TIP3    H223397   1.513   1.895   7.940 -1.0806  0.8647 -0.6198
  588TIP3   OH223398   4.336   2.603   7.482 -0.3432  0.3341  0.0335
  588TIP3    H123399   4.368   2.691   7.467 -0.9317  0.8820  1.6833
  588TIP3    H223400   4.357   2.585   7.574  0.0049 -1.3510 -0.3330
  589TIP3   OH223401   5.633   0.962   1.896  0.1688  0.5412 -0.0102
  589TIP3    H123402   5.714   0.996   1.934 -1.2280  3.1662  0.9301
  589TIP3    H223403   5.651   0.870   1.877  2.9593  0.7408  1.2327
  590TIP3   OH223404   4.362   3.378   1.862 -1.2237  0.1529 -0.4054
  590TIP3    H123405   4.353   3.441   1.790 -0.8146  0.0352 -0.5582
  590TIP3    H223406   4.456   3.372   1.877 -1.0415 -2.1800 -1.9679
  591TIP3   OH223407   1.327   2.120   6.266 -0.0647 -0.2739  0.2139
  591TIP3    H123408   1.388   2.158   6.202  1.0160  0.2357  1.4950
  591TIP3    H223409   1.305   2.192   6.324 -0.6136 -0.8476  0.7364
  592TIP3   OH223410   1.412   5.900   0.224  0.2585 -0.2074  0.0692
  592TIP3    H123411   1.468   5.893   0.302 -0.2857 -1.8053  0.3461
  592TIP3    H223412   1.450   5.838   0.161 -0.4186 -0.3334 -0.2231
  593TIP3   OH223413   5.017   6.265   1.438  0.1882  0.0868 -0.1031
  593TIP3    H123414   5.011   6.220   1.354 -4.2526  1.2956 -0.6524
  593TIP3    H223415   5.016   6.194   1.503 -1.3347 -0.7776 -1.0182
  594TIP3   OH223416   5.900   6.184   7.603 -0.1729  0.6510  0.7029
  594TIP3    H123417   5.972   6.200   7.541 -0.2306  2.4494  1.0432
  594TIP3    H223418   5.898   6.089   7.613  0.1036  0.3115 -1.7415
  595TIP3   OH223419   5.308   4.917   0.147 -0.0458  0.0348  0.4296
  595TIP3    H123420   5.357   4.834   0.140  0.3662  0.1829  1.4320
  595TIP3    H223421   5.252   4.917   0.070 -4.0257 -3.7253  2.8616
  596TIP3   OH223422   0.188   5.947   2.043  0.6154 -0.2767 -0.4609
  596TIP3    H123423   0.174   5.866   2.093 -1.4476  0.4440  0.2433
  596TIP3    H223424   0.233   6.005   2.105 -2.9158  1.0074  1.1710
  597TIP3   OH223425   6.408   3.537   2.373  0.0027 -0.2468  0.4015
  597TIP3    H123426   6.323   3.580   2.383  1.5331  3.3650 -0.5339
  597TIP3    H223427   6.454   3.555   2.454  0.8422  0.3911 -0.1939
  598TIP3   OH223428   3.890   4.914   0.878 -0.1376  0.2717 -0.0269
  598TIP3    H123429   3.980   4.935   0.904 -0.2952  0.3144  0.4920
  598TIP3    H223430   3.860   4.992   0.831 -0.4172  0.8836  1.1268
  599TIP3   OH223431   3.556   0.522   7.037 -0.1597 -0.6215 -0.4929
  599TIP3    H123432   3.603   0.537   6.955 -0.7784 -0.1050 -0.7596
  599TIP3    H223433   3.574   0.430   7.058  2.0838 -0.1005  0.1390
  600TIP3   OH223434   6.439   6.837   7.729 -0.6843 -0.1634  0.4598
  600TIP3    H123435   6.439   6.787   7.811 -2.7267 -0.8542  0.0907
  600TIP3    H223436   6.410   6.924   7.755  1.5420  0.5348  0.8777
  601TIP3   OH223437   1.005   0.762   1.054  0.2722  0.6878  0.4428
  601TIP3    H123438   1.000   0.710   0.974 -1.1961  0.4344  0.6733
  601TIP3    H223439   1.098   0.758   1.079  1.3094  2.6897 -2.4564
  602TIP3   OH223440   0.583   2.423   0.087  0.1782 -0.0083  0.3141
  602TIP3    H123441   0.552   2.514   0.088  0.4655  0.0931 -0.1329
  602TIP3    H223442   0.548   2.386   0.169 -1.4821 -0.0271 -0.3528
  603TIP3   OH223443   5.317   0.025   8.323 -0.4941  0.0511  0.0459
  603TIP3    H123444   5.316   0.005   8.416 -0.0248  0.0411  0.0497
  603TIP3    H223445   5.248  -0.031   8.286  0.2791 -1.0081  0.1768
  604TIP3   OH223446   1.972   6.391   2.075  0.4745  0.6731 -0.2775
  604TIP3    H123447   1.885   6.355   2.059  0.1661  2.0845 -2.1243
  604TIP3    H223448   1.994   6.364   2.164 -0.6338 -2.1036 -0.7727
  605TIP3   OH223449   3.444   1.148   6.790  0.4394 -0.4359  0.1170
  605TIP3    H123450   3.499   1.076   6.757  1.1528  1.6661 -3.8235
  605TIP3    H223451   3.503   1.223   6.793 -1.2090  0.8923  0.2800
  606TIP3   OH223452   0.102   1.196   8.106  0.3401  0.4915 -0.6859
  606TIP3    H123453   0.071   1.270   8.054  2.3432  2.6184  0.9741
  606TIP3    H223454   0.074   1.215   8.195  2.1430  0.0355  0.0209
  607TIP3   OH223455   3.338   1.995   7.966 -0.4593  0.4038  0.3924
  607TIP3    H123456   3.358   1.929   7.901  0.8727 -2.0941  3.0951
  607TIP3    H223457   3.329   2.076   7.916  4.1709 -0.5211 -2.6029
  608TIP3   OH223458   3.487   3.681   0.508  0.1119 -0.0970  0.4993
  608TIP3    H123459   3.441   3.761   0.535 -0.7083 -0.4248  0.1246
  608TIP3    H223460   3.539   3.707   0.432 -2.4330 -0.4952 -1.5363
  609TIP3   OH223461   5.501   5.400   7.827  0.4835  0.1338 -0.0464
  609TIP3    H123462   5.446   5.325   7.806 -0.5174  0.5055  1.1132
  609TIP3    H223463   5.457   5.475   7.788 -0.1677  0.5072  1.3326
  610TIP3   OH223464   5.756   0.000   0.979 -0.2630  0.1916  0.0946
  610TIP3    H123465   5.688   0.009   0.913 -0.4604 -2.9225 -0.2803
  610TIP3    H223466   5.712  -0.043   1.052  0.8001  0.2018  0.7528
  611TIP3   OH223467   4.758   2.138   0.543 -0.0966  0.0520 -0.2288
  611TIP3    H123468   4.778   2.152   0.451 -0.5629  2.1395 -0.0540
  611TIP3    H223469   4.834   2.090   0.577  0.0878 -0.7330 -1.6573
  612TIP3   OH223470   2.151   5.532   0.209 -0.1331  0.6325 -0.2326
  612TIP3    H123471   2.221   5.473   0.179 -0.0842  1.3734 -1.6856
  612TIP3    H223472   2.072   5.494   0.172 -0.1308  1.3338 -0.9687
  613TIP3   OH223473   2.177   1.793   7.412 -0.0419 -0.3233  0.4213
  613TIP3    H123474   2.091   1.831   7.432  0.0043 -0.0791  0.1621
  613TIP3    H223475   2.156   1.709   7.371 -0.2388  0.6875 -1.6978
  614TIP3   OH223476   4.749   5.151   0.287  0.3331 -0.3857  0.3895
  614TIP3    H123477   4.807   5.189   0.353  2.4807 -0.8091 -1.1680
  614TIP3    H223478   4.799   5.154   0.206 -1.3796 -1.9060 -0.8085
  615TIP3   OH223479   6.430   6.304   1.933  0.5452 -0.5762 -0.0823
  615TIP3    H123480   6.429   6.391   1.894  2.6548 -1.1833 -1.7161
  615TIP3    H223481   6.466   6.317   2.021  1.4636  0.1679 -0.5449
  616TIP3   OH223482   6.714   2.989   7.654 -0.8129  0.3154  0.5493
  616TIP3    H123483   6.796   2.941   7.648 -0.9974  0.0652 -0.0540
  616TIP3    H223484   6.649   2.923   7.680 -0.8817  0.4481  0.7196
  617TIP3   OH223485   4.843   2.017   8.623 -0.1975 -0.1659 -0.0642
  617TIP3    H123486   4.875   2.012   8.533  1.3114  0.6066  0.3979
  617TIP3    H223487   4.859   1.931   8.660  0.2561 -0.1430 -0.2044
  618TIP3   OH223488   0.924   1.145   7.949  0.1453 -0.4055  0.1363
  618TIP3    H123489   0.838   1.120   7.917  0.8771 -0.7437 -1.7016
  618TIP3    H223490   0.980   1.140   7.872  1.6410  0.6206  1.1163
  619TIP3   OH223491   1.785   3.674   0.035  0.1799 -0.1418 -0.8048
  619TIP3    H123492   1.693   3.690   0.057  0.4184  0.3707 -0.1554
  619TIP3    H223493   1.828   3.664   0.120  0.7704 -0.1235 -1.1008
  620TIP3   OH223494   2.359   2.605   1.961 -0.1886  0.2922  0.5201
  620TIP3    H123495   2.433   2.650   2.002 -0.2060  0.3349  0.5047
  620TIP3    H223496   2.354   2.521   2.006  1.4730 -0.8017 -1.1741
  621TIP3   OH223497   6.411   2.874   1.694  0.1228  0.0743 -0.3140
  621TIP3    H123498   6.500   2.838   1.692  0.7775  1.6071 -1.8487
  621TIP3    H223499   6.357   2.804   1.657  0.7058 -0.7823  0.3987
  622TIP3   OH223500   4.417   0.689   0.384  0.2537  0.6112  0.0179
  622TIP3    H123501   4.477   0.633   0.335  0.2011  1.6451 -1.3055
  622TIP3    H223502   4.382   0.749   0.318 -0.0082  1.9214  1.3020
  623TIP3   OH223503   5.210   6.844   7.821  0.4860 -0.4519 -0.1448
  623TIP3    H123504   5.160   6.923   7.800  1.2334 -0.0852 -0.5842
  623TIP3    H223505   5.301   6.868   7.805  0.8192 -1.0848  0.7303
  624TIP3   OH223506   4.460   1.475   2.535  0.5839 -0.1415 -0.0817
  624TIP3    H123507   4.426   1.562   2.516  1.8739 -0.0108 -2.1448
  624TIP3    H223508   4.398   1.415   2.493 -0.0555 -0.2335  0.9490
  625TIP3   OH223509   0.514   1.164   7.403 -0.0669  0.1880  0.1312
  625TIP3    H123510   0.568   1.136   7.329 -0.2689 -0.7997  0.3486
  625TIP3    H223511   0.448   1.095   7.412 -2.4710  2.1227 -1.1857
  626TIP3   OH223512   1.289   1.540   7.234 -0.2927 -0.2404  0.8760
  626TIP3    H123513   1.336   1.584   7.163 -1.2690 -0.1256  0.2679
  626TIP3    H223514   1.343   1.555   7.312  1.9805 -2.2935 -0.1782
  627TIP3   OH223515   2.231   4.928   2.092  0.0914  0.3886  0.2525
  627TIP3    H123516   2.318   4.966   2.103  0.2758 -0.2982  1.3142
  627TIP3    H223517   2.214   4.883   2.174 -0.7303 -0.5910 -0.4300
  628TIP3   OH223518   4.001   5.091   8.413  0.0040 -0.3449  0.1328
  628TIP3    H123519   3.978   5.052   8.497  0.8592  0.5311  0.7981
  628TIP3    H223520   3.952   5.173   8.410  1.2225  0.4217  0.5352
  629TIP3   OH223521   0.002   2.654   6.715  0.1489 -0.4434 -0.3048
  629TIP3    H123522   0.074   2.594   6.696  0.5089  0.6006 -2.6153
  629TIP3    H223523   0.032   2.739   6.683 -2.3272 -0.0959 -2.0379
  630TIP3   OH223524   6.740   4.533   1.480  0.0809 -0.3722 -0.2196
  630TIP3    H123525   6.815   4.583   1.513  1.0510 -2.5130  1.0546
  630TIP3    H223526   6.770   4.498   1.396  0.3466 -0.7960  0.0449
  631TIP3   OH223527   1.966   3.181   6.562 -0.4184  0.0996  0.2657
  631TIP3    H123528   1.926   3.218   6.483 -0.2397  0.5640  0.3878
  631TIP3    H223529   2.055   3.159   6.536 -0.6957 -0.7840  0.0386
  632TIP3   OH223530   1.297   0.214   1.187  0.1345  0.8577 -0.2950
  632TIP3    H123531   1.308   0.225   1.093  0.6849 -0.9141 -0.4745
  632TIP3    H223532   1.385   0.224   1.223  0.3964 -1.0997 -0.3041
  633TIP3   OH223533   4.908   2.213   8.212  0.0566 -0.1736  0.2094
  633TIP3    H123534   4.950   2.159   8.278 -1.7148  0.2737  1.7736
  633TIP3    H223535   4.897   2.155   8.137  3.2209 -0.3547 -0.2596
  634TIP3   OH223536   3.777   6.027   0.488 -0.0162  0.9126  0.1193
  634TIP3    H123537   3.783   5.959   0.555 -1.1986 -0.6611 -1.2791
  634TIP3    H223538   3.860   6.021   0.441 -0.4957 -0.3010 -0.6187
  635TIP3   OH223539   0.406   5.925   8.056 -0.0616 -0.2072 -0.3091
  635TIP3    H123540   0.374   5.835   8.051  0.1092 -0.2451 -0.7052
  635TIP3    H223541   0.480   5.921   8.117 -0.1062 -0.3192 -0.2634
  636TIP3   OH223542   4.199   4.629   6.706  0.5531  0.0889  0.4574
  636TIP3    H123543   4.240   4.685   6.641  2.2960 -1.3935  0.1881
  636TIP3    H223544   4.105   4.643   6.695  0.9023  2.7914  0.3332
  637TIP3   OH223545   1.551   6.232   0.927  0.0846 -0.0054 -0.4152
  637TIP3    H123546   1.493   6.164   0.891 -0.4210 -0.4681  1.2093
  637TIP3    H223547   1.524   6.312   0.881 -4.7619  0.7092  2.9138
  638TIP3   OH223548   5.700   3.788   0.279  0.1616  0.0671 -0.9063
  638TIP3    H123549   5.649   3.737   0.216 -0.5337  0.8291 -0.9752
  638TIP3    H223550   5.637   3.812   0.347 -0.1301  2.7255 -1.9935
  639TIP3   OH223551   1.993   3.461   7.666 -0.2743 -0.0548 -0.8578
  639TIP3    H123552   1.999   3.366   7.657  0.5905 -0.0347 -0.6515
  639TIP3    H223553   2.036   3.480   7.749 -0.9263  0.4719 -0.6368
  640TIP3   OH223554   3.039   6.190   6.597  0.0439  0.0365 -0.3780
  640TIP3    H123555   3.096   6.129   6.644 -1.0932 -0.4783  0.3807
  640TIP3    H223556   2.970   6.211   6.660 -0.3343  1.0428 -1.1032
  641TIP3   OH223557   6.361   3.862   0.597 -0.0116 -0.3594 -0.1396
  641TIP3    H123558   6.392   3.863   0.688 -2.4078  1.2904  0.7752
  641TIP3    H223559   6.306   3.940   0.590 -1.3956 -1.4261 -2.4747
  642TIP3   OH223560   3.623   6.145   7.652 -0.1618 -0.7167  0.3487
  642TIP3    H123561   3.665   6.106   7.729 -1.2788 -2.6899  0.0396
  642TIP3    H223562   3.683   6.125   7.580  0.5395  0.5144  0.5570
  643TIP3   OH223563   3.169   3.909   8.675 -0.0302 -0.0800 -0.6964
  643TIP3    H123564   3.205   3.970   8.611  0.2975  0.1377 -0.3048
  643TIP3    H223565   3.138   3.835   8.623 -2.1634  1.1980 -1.4071
  644TIP3   OH223566   2.385   2.761   7.392  0.2058  0.2361  0.4830
  644TIP3    H123567   2.302   2.716   7.380  0.5344  0.1432 -2.2531
  644TIP3    H223568   2.450   2.700   7.355  1.2627  1.0203  0.9969
  645TIP3   OH223569   2.170   2.941   1.958  0.0469 -0.3974 -0.0107
  645TIP3    H123570   2.241   2.968   1.898 -0.4080  0.5193 -0.1532
  645TIP3    H223571   2.196   2.977   2.043 -0.7878  0.9061 -0.2959
  646TIP3   OH223572   0.765   2.409   8.290 -0.4521 -0.0194  0.0843
  646TIP3    H123573   0.820   2.352   8.344 -0.9156  0.6434  1.3027
  646TIP3    H223574   0.689   2.355   8.267  0.4411 -0.7825 -1.2013
  647TIP3   OH223575   2.452   6.314   0.860 -0.4470  0.6447 -0.0595
  647TIP3    H123576   2.405   6.286   0.938  0.1475  1.6548  0.6834
  647TIP3    H223577   2.486   6.232   0.822 -0.9132  0.1253  0.6220
  648TIP3   OH223578   1.373   2.873   8.315  0.3862  0.1209 -0.2884
  648TIP3    H123579   1.353   2.855   8.407  2.0429  2.1322  0.5526
  648TIP3    H223580   1.288   2.878   8.272 -0.3868 -2.8038  0.6394
  649TIP3   OH223581   4.222   1.270   0.441 -0.1038 -0.4935  0.2617
  649TIP3    H123582   4.136   1.229   0.454 -1.1344  0.8305 -1.9178
  649TIP3    H223583   4.272   1.206   0.390  0.6198 -1.6552  2.2874
  650TIP3   OH223584   5.520   3.272   1.649  0.4496 -0.1092  0.0920
  650TIP3    H123585   5.613   3.250   1.649  0.4958  0.0211  1.4505
  650TIP3    H223586   5.516   3.361   1.614  0.7736 -0.2917 -0.4235
  651TIP3   OH223587   0.817   0.676   1.861  0.1867  0.0266 -0.1982
  651TIP3    H123588   0.816   0.617   1.937 -0.3705 -1.2416 -1.1470
  651TIP3    H223589   0.852   0.758   1.895  0.8223 -0.7897  1.2230
  652TIP3   OH223590   0.756   2.110   6.898 -0.4202 -0.2163 -0.2117
  652TIP3    H123591   0.735   2.131   6.989  0.9203  2.6671 -0.4526
  652TIP3    H223592   0.671   2.093   6.857 -1.1170 -0.7393  1.3717
  653TIP3   OH223593   1.074   2.519   7.952 -0.0431 -0.2586  0.4246
  653TIP3    H123594   1.029   2.436   7.966 -0.6670 -0.1324 -0.7138
  653TIP3    H223595   1.165   2.495   7.936 -0.5954 -0.9225 -2.0172
  654TIP3   OH223596   1.497   5.452   1.234  0.0693  0.5997  0.1505
  654TIP3    H123597   1.459   5.502   1.306  2.3577  1.2335  1.0086
  654TIP3    H223598   1.496   5.511   1.160 -3.1473 -0.3539 -0.7337
  655TIP3   OH223599   6.714   4.988   0.703  0.1802  0.6937  0.1297
  655TIP3    H123600   6.638   4.989   0.761 -0.5779 -0.7337 -0.7765
  655TIP3    H223601   6.790   4.981   0.762 -0.4500  1.1226  1.0033
  656TIP3   OH223602   1.427   1.222   8.554 -0.5301  0.1890 -0.8809
  656TIP3    H123603   1.361   1.246   8.487  0.3375 -1.8084 -2.5616
  656TIP3    H223604   1.436   1.127   8.546  2.2582  0.3334 -0.4320
  657TIP3   OH223605   0.369   0.278   7.350 -0.3004  0.0170 -0.1522
  657TIP3    H123606   0.401   0.277   7.440 -0.3160  1.0398 -0.1230
  657TIP3    H223607   0.310   0.354   7.346  0.7595  0.8341 -1.3609
  658TIP3   OH223608   0.772   6.110   1.117 -0.0811 -0.2341 -0.2186
  658TIP3    H123609   0.693   6.068   1.083 -1.6666  1.8173  0.7307
  658TIP3    H223610   0.774   6.196   1.076  0.4521  0.5610  1.3680
  659TIP3   OH223611   4.493   4.167   1.929  0.1376 -0.1665 -0.4074
  659TIP3    H123612   4.501   4.073   1.945  0.8687 -0.1476 -0.6645
  659TIP3    H223613   4.401   4.187   1.949 -0.1400 -1.0223 -0.8082
  660TIP3   OH223614   4.430   4.327   7.622 -0.0263 -0.0675 -0.0986
  660TIP3    H123615   4.483   4.367   7.553 -2.2614 -2.5064 -3.5749
  660TIP3    H223616   4.358   4.387   7.635  0.1610  0.1943 -0.2585
  661TIP3   OH223617   5.459   5.761   6.523 -0.1214  0.3507  0.2807
  661TIP3    H123618   5.444   5.669   6.502 -0.9793  0.5862 -0.1567
  661TIP3    H223619   5.520   5.792   6.456 -0.1758  0.2186  0.1714
  662TIP3   OH223620   2.310   1.832   6.846  0.1764  0.4665  0.2068
  662TIP3    H123621   2.216   1.813   6.848 -0.5630  3.3529 -1.5727
  662TIP3    H223622   2.333   1.831   6.753  1.6657  0.8757  0.5451
  663TIP3   OH223623   0.701   4.174   8.317  0.5192  0.0538 -0.7547
  663TIP3    H123624   0.634   4.205   8.378 -0.0310 -1.4178 -0.5772
  663TIP3    H223625   0.783   4.210   8.351 -0.0587  1.1711 -0.4885
  664TIP3   OH223626   3.436   2.430   1.184  0.0469  0.5650  0.2527
  664TIP3    H123627   3.493   2.441   1.109  0.3305  1.2342  0.5558
  664TIP3    H223628   3.482   2.370   1.242  1.1697  2.2290  1.1726
  665TIP3   OH223629   3.915   0.979   2.386  0.0419  0.4408  0.0908
  665TIP3    H123630   3.991   0.985   2.444  0.7806 -1.5382 -0.5779
  665TIP3    H223631   3.912   1.064   2.342  0.4178  1.4111  1.8248
  666TIP3   OH223632   2.518   6.364   7.997 -0.1699  0.6059  0.5420
  666TIP3    H123633   2.549   6.404   7.915  1.2094 -1.0217  0.2096
  666TIP3    H223634   2.450   6.302   7.969  0.8560 -0.5318  0.4978
  667TIP3   OH223635   2.380   6.400   0.569 -0.1172  0.0137  0.1301
  667TIP3    H123636   2.411   6.349   0.644 -0.9963  0.4255  0.7876
  667TIP3    H223637   2.341   6.478   0.607 -0.7989  0.1201 -0.7500
  668TIP3   OH223638   5.755   5.057   7.275 -0.0192 -0.1829  0.1509
  668TIP3    H123639   5.756   5.057   7.180 -0.0294 -1.9152  0.1089
  668TIP3    H223640   5.663   5.046   7.299  0.1594 -1.7241  0.2738
  669TIP3   OH223641   3.761   6.426   8.474 -0.3135  0.2568  0.0394
  669TIP3    H123642   3.808   6.473   8.543  1.9876  1.6834 -2.3031
  669TIP3    H223643   3.707   6.494   8.432  0.9188  0.2747 -1.6289
  670TIP3   OH223644   6.382   4.880   1.469  0.5644  0.5020  0.2312
  670TIP3    H123645   6.332   4.847   1.544 -1.4720  1.1799 -0.7341
  670TIP3    H223646   6.347   4.833   1.394  0.8341  1.5465 -0.5822
  671TIP3   OH223647   0.190   3.267   2.595  1.0498 -0.6300  0.3804
  671TIP3    H123648   0.208   3.357   2.623  2.0770 -0.4514 -0.7348
  671TIP3    H223649   0.244   3.212   2.652  2.0010 -0.3753 -0.2475
  672TIP3   OH223650   3.227   3.661   8.422  0.5907 -0.2049 -0.1437
  672TIP3    H123651   3.241   3.698   8.335  0.7293 -1.1244 -0.5130
  672TIP3    H223652   3.305   3.609   8.439  0.1472 -0.7833  0.1466
  673TIP3   OH223653   6.423   1.612   7.008  0.6309  0.3296 -0.5550
  673TIP3    H123654   6.366   1.645   6.939 -0.9700 -1.9745 -0.4537
  673TIP3    H223655   6.362   1.583   7.077  2.1457  2.1259  1.6877
  674TIP3   OH223656   3.642   5.993   6.403 -0.6144  0.1262 -0.6805
  674TIP3    H123657   3.643   5.931   6.475 -0.0181  0.7685 -0.1241
  674TIP3    H223658   3.549   6.004   6.381 -0.6748 -2.0006 -1.7137
  675TIP3   OH223659   3.898   6.062   8.485 -0.6593 -0.1800 -0.2775
  675TIP3    H123660   3.826   6.007   8.455 -0.4023 -1.1604  0.7958
  675TIP3    H223661   3.971   6.001   8.496 -0.1114  0.5256  0.1098
  676TIP3   OH223662   2.514   4.406   8.577  0.6866  0.2191 -0.1492
  676TIP3    H123663   2.528   4.493   8.539 -0.4780 -0.3269 -1.8935
  676TIP3    H223664   2.430   4.377   8.542  0.7872 -1.3989  0.8486
  677TIP3   OH223665   5.602   4.391   0.167  0.5459  0.7338  0.0876
  677TIP3    H123666   5.563   4.320   0.118  1.1920 -0.1305  0.7934
  677TIP3    H223667   5.529   4.428   0.218  0.3090  0.2561  0.0955
  678TIP3   OH223668   0.623   2.192   8.201  0.5306 -0.2827 -0.5066
  678TIP3    H123669   0.603   2.170   8.110  0.0822 -2.1498  0.0085
  678TIP3    H223670   0.596   2.115   8.251  1.4762  0.4035  1.1335
  679TIP3   OH223671   5.213   1.667   7.772  0.2480 -0.4777  0.1645
  679TIP3    H123672   5.187   1.651   7.681  1.8743 -0.3809 -0.3541
  679TIP3    H223673   5.280   1.601   7.790  1.9409  1.1868  0.3464
  680TIP3   OH223674   2.918   6.166   1.509 -0.0919 -0.1227  0.0846
  680TIP3    H123675   2.962   6.168   1.594  1.4002 -0.1144 -0.6630
  680TIP3    H223676   2.843   6.109   1.522 -0.5802  0.8322  1.7273
  681TIP3   OH223677   5.124   3.293   0.157  0.3908 -0.5004 -0.7001
  681TIP3    H123678   5.206   3.319   0.199  0.3193 -0.3041 -0.6776
  681TIP3    H223679   5.125   3.339   0.073 -0.0090  0.0529 -0.4103
  682TIP3   OH223680   1.166   6.213   1.740  0.5216 -0.3548 -0.2956
  682TIP3    H123681   1.095   6.172   1.690 -0.2949  0.9280 -0.2275
  682TIP3    H223682   1.219   6.140   1.771 -0.5787 -1.3239 -0.6349
  683TIP3   OH223683   2.666   1.528   6.200 -0.0098  0.6845  0.2793
  683TIP3    H123684   2.598   1.501   6.137  1.3518  1.8593 -1.8124
  683TIP3    H223685   2.618   1.578   6.266 -1.1563  2.1124 -1.5190
  684TIP3   OH223686   4.340   5.411   1.793 -0.1320  0.1908 -0.3821
  684TIP3    H123687   4.267   5.471   1.781  0.5474  0.7833 -1.7512
  684TIP3    H223688   4.298   5.326   1.809 -1.1491  0.4360 -1.5450
  685TIP3   OH223689   0.799   5.104   6.803 -0.3633  0.4911 -0.2218
  685TIP3    H123690   0.762   5.024   6.766  0.5995  0.1091 -0.3669
  685TIP3    H223691   0.792   5.169   6.733 -0.4903  0.3484 -0.3417
  686TIP3   OH223692   1.728   3.329   7.547 -0.3482 -0.5628 -0.3314
  686TIP3    H123693   1.752   3.417   7.517 -1.0314  0.3218  1.5529
  686TIP3    H223694   1.751   3.272   7.474  1.0080  1.0572 -1.2548
  687TIP3   OH223695   2.339   4.165   2.059 -0.3512 -0.1893  0.2107
  687TIP3    H123696   2.355   4.239   2.118  1.1334 -0.2792 -0.0309
  687TIP3    H223697   2.330   4.089   2.117 -1.5729  0.1193  0.4415
  688TIP3   OH223698   4.930   4.594   1.834  0.4089  0.3088 -0.7856
  688TIP3    H123699   4.911   4.654   1.906  0.3292  0.5732 -1.0268
  688TIP3    H223700   5.025   4.590   1.831  0.4201  0.7345 -1.0262
  689TIP3   OH223701   0.342   5.919   0.184 -0.3162  0.2278 -0.5646
  689TIP3    H123702   0.328   6.014   0.181 -0.3462  0.2695  0.3944
  689TIP3    H223703   0.400   5.906   0.259 -1.5048 -0.6317  0.2392
  690TIP3   OH223704   3.658   0.840   2.356  0.0778  0.0085  0.5541
  690TIP3    H123705   3.588   0.905   2.347  0.3449  0.2779  0.4195
  690TIP3    H223706   3.736   0.891   2.375  0.1365 -0.3325  1.2516
  691TIP3   OH223707   4.717   6.416   6.856  0.4175  0.4205  0.1388
  691TIP3    H123708   4.703   6.323   6.874  0.9878  0.4159  0.5773
  691TIP3    H223709   4.629   6.454   6.857  0.0088 -0.3535 -1.4881
  692TIP3   OH223710   5.779   1.392   7.063  0.2155  0.3327 -0.1566
  692TIP3    H123711   5.709   1.454   7.082 -1.3671 -0.8110 -1.9058
  692TIP3    H223712   5.850   1.446   7.028  0.1641  1.4876  1.4373
  693TIP3   OH223713   3.391   6.282   7.570 -0.1729 -0.9381 -0.2682
  693TIP3    H123714   3.426   6.352   7.514 -0.7332  0.8223  1.4410
  693TIP3    H223715   3.468   6.242   7.609  0.1504 -1.0247 -0.9847
  694TIP3   OH223716   2.553   5.483   0.641 -0.3155  0.4220  0.1206
  694TIP3    H123717   2.468   5.525   0.631 -0.7529 -0.6708 -0.9090
  694TIP3    H223718   2.545   5.430   0.720 -1.8446 -2.4077 -1.7380
  695TIP3   OH223719   5.278   4.891   8.079  0.1893  0.4788  0.2096
  695TIP3    H123720   5.332   4.813   8.065 -0.3036  0.1391  0.1570
  695TIP3    H223721   5.194   4.869   8.039 -1.0722 -0.2598  3.0193
  696TIP3   OH223722   2.791   6.664   8.343  0.2026 -0.2350 -0.6112
  696TIP3    H123723   2.726   6.658   8.412  1.2057 -1.5395  0.2630
  696TIP3    H223724   2.769   6.593   8.283  0.0914  0.1005 -0.9748
  697TIP3   OH223725   2.126   1.620   0.117 -0.9365 -0.1698 -0.5248
  697TIP3    H123726   2.074   1.592   0.192  0.7099  0.6592  0.9739
  697TIP3    H223727   2.152   1.710   0.138  0.0610 -0.1325 -1.8064
  698TIP3   OH223728   3.030   1.568   8.284 -0.0662  0.7936  0.5761
  698TIP3    H123729   3.020   1.517   8.364 -0.7138 -0.1580 -0.0897
  698TIP3    H223730   2.975   1.645   8.297  0.6586  1.1877  1.4516
  699TIP3   OH223731   6.668   3.532   0.818  0.1490  0.2664 -0.1614
  699TIP3    H123732   6.720   3.452   0.807 -1.2122 -0.6314 -0.3008
  699TIP3    H223733   6.699   3.569   0.901  0.2927 -0.8226  0.2995
  700TIP3   OH223734   6.222   4.631   0.889 -0.0065  0.7434  0.0053
  700TIP3    H123735   6.277   4.658   0.963  1.0029  0.7269 -0.7267
  700TIP3    H223736   6.262   4.550   0.858 -0.6868  0.5180 -0.3041
  701TIP3   OH223737   5.851   0.551   7.511  0.5537 -0.1880  0.3613
  701TIP3    H123738   5.931   0.512   7.476  0.0030 -2.2403  1.2192
  701TIP3    H223739   5.834   0.503   7.592 -1.2303  0.5786  0.5000
  702TIP3   OH223740   5.057   1.450   2.114 -0.2082 -0.0106  0.9068
  702TIP3    H123741   5.053   1.450   2.209  0.5068 -1.8002  0.9714
  702TIP3    H223742   5.080   1.360   2.091 -1.9414 -0.0258 -1.0295
  703TIP3   OH223743   4.581   2.110   8.647 -0.1069  0.3547 -0.1225
  703TIP3    H123744   4.522   2.080   8.578  0.9330 -2.1455 -0.0519
  703TIP3    H223745   4.668   2.085   8.615  0.4262 -0.5761  1.9383
  704TIP3   OH223746   2.055   0.594   7.208  0.1946 -0.2679 -0.2200
  704TIP3    H123747   2.094   0.682   7.210 -1.3576  0.4379  0.8660
  704TIP3    H223748   2.012   0.585   7.293 -4.3644  0.1272 -2.2128
  705TIP3   OH223749   1.799   2.468   7.010 -0.4997  0.1378 -0.2912
  705TIP3    H123750   1.850   2.388   7.003 -0.0096  0.1118  2.5029
  705TIP3    H223751   1.713   2.446   6.973 -0.4207 -1.7431  0.5545
  706TIP3   OH223752   2.000   5.850   8.641 -0.0376 -0.1932 -0.1099
  706TIP3    H123753   2.077   5.795   8.651 -0.7089 -1.0500  0.4294
  706TIP3    H223754   1.948   5.836   8.720 -0.4649  0.8388 -0.1759
  707TIP3   OH223755   2.632   6.177   0.036  0.6902 -0.0078 -0.2272
  707TIP3    H123756   2.698   6.239   0.064  0.8461  0.4222 -1.4782
  707TIP3    H223757   2.622   6.193  -0.058 -1.8680  0.6153  0.0719
  708TIP3   OH223758   6.562   2.981   1.402 -0.3269 -0.1294 -0.2876
  708TIP3    H123759   6.645   2.960   1.360 -0.5523  1.4715 -1.6455
  708TIP3    H223760   6.501   2.915   1.370  0.2247 -0.8309  0.0833
  709TIP3   OH223761   1.284   3.789   7.525  0.6341  0.5203  0.9459
  709TIP3    H123762   1.242   3.770   7.441  0.6260  0.3063  0.9983
  709TIP3    H223763   1.231   3.860   7.562 -0.4697 -0.6012  1.5959
  710TIP3   OH223764   5.772   5.455   1.401 -0.7050 -0.4401 -0.2944
  710TIP3    H123765   5.784   5.366   1.436 -2.6906 -1.4913 -2.0535
  710TIP3    H223766   5.811   5.512   1.467 -1.6494 -2.4456  2.1536
  711TIP3   OH223767   3.551   6.660   0.149 -0.0708 -0.2639 -0.4943
  711TIP3    H123768   3.501   6.626   0.075 -1.2435  1.0254 -0.3451
  711TIP3    H223769   3.490   6.657   0.223  0.2988  0.6833 -0.1376
  712TIP3   OH223770   2.878   4.118   1.748  0.1596  0.6672 -0.1376
  712TIP3    H123771   2.922   4.192   1.706  1.6519 -0.7354 -1.1879
  712TIP3    H223772   2.867   4.144   1.839  0.6867  2.1569 -0.4753
  713TIP3   OH223773   5.819   2.596   7.494  0.2879  0.0380  0.0612
  713TIP3    H123774   5.781   2.679   7.523 -0.9504 -0.0505 -1.1800
  713TIP3    H223775   5.828   2.545   7.574  1.0146  1.3335  0.8404
  714TIP3   OH223776   2.652   1.327   1.352 -0.2691  0.3887  0.3181
  714TIP3    H123777   2.711   1.377   1.295 -0.3774 -0.4551 -0.5499
  714TIP3    H223778   2.709   1.291   1.420  0.1223  0.0577 -0.1809
  715TIP3   OH223779   1.984   2.580   6.850 -0.2249  0.2917 -0.2604
  715TIP3    H123780   1.961   2.518   6.780  1.3995  0.2352 -0.7816
  715TIP3    H223781   1.907   2.580   6.908 -0.5588 -1.6640 -0.6347
  716TIP3   OH223782   0.453   4.257   1.423  0.4372 -0.1497  0.0252
  716TIP3    H123783   0.442   4.209   1.340  0.3697 -0.8594  0.4342
  716TIP3    H223784   0.405   4.205   1.487  0.5005  0.3898  0.5139
  717TIP3   OH223785   3.846   1.480   8.399 -0.3348 -0.1967 -0.2525
  717TIP3    H123786   3.897   1.467   8.479  0.9315 -2.1131 -1.3051
  717TIP3    H223787   3.814   1.393   8.377 -0.4370  0.2542 -1.9687
  718TIP3   OH223788   2.162   1.898   0.146 -0.3169 -0.0360 -0.1895
  718TIP3    H123789   2.233   1.957   0.122 -0.3521 -0.2008 -0.7080
  718TIP3    H223790   2.121   1.939   0.222 -0.1001  0.4089 -0.3106
  719TIP3   OH223791   1.028   0.534   0.908  0.3069  0.5478  0.0400
  719TIP3    H123792   1.106   0.530   0.853  1.7493  0.2487  1.9921
  719TIP3    H223793   0.974   0.461   0.878  1.6059 -0.3601 -0.1755
  720TIP3   OH223794   4.531   5.565   0.945 -0.1859 -0.3167  0.0517
  720TIP3    H123795   4.501   5.513   1.019 -0.2157  0.4755  0.6107
  720TIP3    H223796   4.546   5.652   0.982 -2.3628  0.7072 -1.2956
  721TIP3   OH223797   5.456   5.949   7.796 -0.2599  0.2874  0.4834
  721TIP3    H123798   5.417   5.937   7.710 -0.5586 -0.9841  0.7715
  721TIP3    H223799   5.510   6.028   7.788 -1.2013  0.8437 -0.5192
  722TIP3   OH223800   4.636   1.380   1.499  0.0738  0.1294 -0.0764
  722TIP3    H123801   4.590   1.462   1.516  0.2703  0.2591 -0.1643
  722TIP3    H223802   4.726   1.406   1.480  0.2079 -0.1302  0.1961
  723TIP3   OH223803   6.536   0.825   7.695 -0.4195  0.2889 -0.6270
  723TIP3    H123804   6.444   0.805   7.707 -0.4148  1.2424  1.2571
  723TIP3    H223805   6.578   0.740   7.685 -1.2905 -0.2551  0.2100
  724TIP3   OH223806   1.913   3.381   1.125 -0.1033 -0.0941  0.4952
  724TIP3    H123807   1.987   3.439   1.106 -1.1220  0.9443 -0.3863
  724TIP3    H223808   1.889   3.402   1.216 -0.1025  0.4573  0.3701
  725TIP3   OH223809   0.855   0.554   7.092  0.5884  0.0322 -0.2374
  725TIP3    H123810   0.921   0.599   7.146  1.7032 -1.0046 -0.6897
  725TIP3    H223811   0.904   0.520   7.018 -0.1555 -2.1685  0.2212
  726TIP3   OH223812   5.631   1.502   6.840 -0.0412  0.2659 -0.1329
  726TIP3    H123813   5.611   1.556   6.764 -0.2222  0.5076  0.0853
  726TIP3    H223814   5.722   1.521   6.861  0.7166 -1.4196 -1.6102
  727TIP3   OH223815   4.933   6.563   1.995  0.1004 -0.3314 -0.8169
  727TIP3    H123816   4.916   6.486   1.940 -0.5377 -1.6436  1.1000
  727TIP3    H223817   5.026   6.582   1.981  0.0052 -0.7630 -2.1548
  728TIP3   OH223818   3.063   1.293   2.414  1.1762  0.2386 -0.3234
  728TIP3    H123819   3.013   1.225   2.368  1.1720  0.7616 -1.1055
  728TIP3    H223820   3.027   1.292   2.503  0.0870  0.2931 -0.7429
  729TIP3   OH223821   2.645   0.493   1.199  0.2948  0.2058  0.2615
  729TIP3    H123822   2.692   0.513   1.280 -0.7525 -1.6329  1.4231
  729TIP3    H223823   2.554   0.483   1.227 -0.1830  0.1109 -1.2624
  730TIP3   OH223824   4.364   2.067   1.191 -0.3943  0.0780  0.2749
  730TIP3    H123825   4.444   2.070   1.243 -0.5771 -0.7456  0.6294
  730TIP3    H223826   4.298   2.033   1.252 -0.8257 -0.0327 -0.2469
  731TIP3   OH223827   2.826   3.083   0.592  0.1117 -0.0001  0.1149
  731TIP3    H123828   2.784   3.004   0.626 -0.4062  0.4950  0.6583
  731TIP3    H223829   2.910   3.087   0.639  0.5114 -0.6689 -0.5309
  732TIP3   OH223830   5.379   2.969   8.299  0.0737  0.5323 -0.4874
  732TIP3    H123831   5.430   2.930   8.228  1.0406  3.3040 -1.4348
  732TIP3    H223832   5.434   3.038   8.334 -1.6183  1.2540  0.9250
  733TIP3   OH223833   5.249   1.729   1.282  0.0286  0.3961 -0.2919
  733TIP3    H123834   5.317   1.681   1.235  0.0421  0.9536 -0.8532
  733TIP3    H223835   5.297   1.794   1.333 -0.1355  2.0446 -2.1148
  734TIP3   OH223836   0.145   1.816   7.416 -0.3505  0.3258  0.0842
  734TIP3    H123837   0.151   1.790   7.324 -1.6830 -1.1439  0.3802
  734TIP3    H223838   0.110   1.906   7.413 -2.3151 -0.4077 -0.8464
  735TIP3   OH223839   5.994   5.040   8.638 -0.3138 -0.7829 -0.1680
  735TIP3    H123840   5.996   5.080   8.551 -0.4280 -0.3155  0.0472
  735TIP3    H223841   5.903   5.010   8.648 -0.2256 -1.1095 -0.3335
  736TIP3   OH223842   1.256   4.162   2.643  0.4561  0.3731 -0.0096
  736TIP3    H123843   1.264   4.151   2.738  4.1195  0.7173 -0.1323
  736TIP3    H223844   1.223   4.251   2.632  0.9587  0.7028  0.9806
  737TIP3   OH223845   0.838   2.318   7.132  0.3534 -0.1485  0.1233
  737TIP3    H123846   0.761   2.304   7.187  0.6101 -1.3715  0.2103
  737TIP3    H223847   0.884   2.392   7.172 -0.2583 -0.0570  0.6594
  738TIP3   OH223848   6.005   3.627   8.323  0.4631 -0.1090 -0.3832
  738TIP3    H123849   5.982   3.672   8.404 -0.7920 -3.8771  1.5793
  738TIP3    H223850   6.084   3.578   8.344  1.4395  0.5572 -2.2385
  739TIP3   OH223851   5.823   5.104   7.885 -0.2185  0.2297  0.3995
  739TIP3    H123852   5.861   5.017   7.900  0.4212  0.6907  1.5795
  739TIP3    H223853   5.764   5.092   7.810 -0.3056 -1.2626  0.6796
  740TIP3   OH223854   3.903   2.681   8.039  0.0463 -0.2147 -1.2372
  740TIP3    H123855   3.816   2.716   8.055 -0.0435 -0.4319 -1.2408
  740TIP3    H223856   3.936   2.659   8.126  0.4310  0.6359 -1.1548
  741TIP3   OH223857   3.550   2.557   1.809 -0.3343  0.3975 -0.3028
  741TIP3    H123858   3.510   2.514   1.733  0.5802 -1.0283 -0.0265
  741TIP3    H223859   3.553   2.489   1.876  1.1001  0.9095  0.1922
  742TIP3   OH223860   0.401   6.047   8.481 -0.2848  0.1495  0.6325
  742TIP3    H123861   0.366   5.969   8.525 -3.2076  1.5622  1.0208
  742TIP3    H223862   0.340   6.063   8.408  1.4854  0.8856 -0.7613
  743TIP3   OH223863   2.423   6.358   1.715  0.2558  0.2944 -0.2521
  743TIP3    H123864   2.338   6.394   1.687 -0.1590  0.0966  0.7165
  743TIP3    H223865   2.404   6.266   1.732  0.6912  0.2377 -0.0905
  744TIP3   OH223866   1.781   5.188   0.347  0.2626  0.1844  0.4909
  744TIP3    H123867   1.861   5.155   0.386 -0.7753 -2.1412  0.8059
  744TIP3    H223868   1.714   5.176   0.414 -0.2517  3.0675  0.6407
  745TIP3   OH223869   6.409   0.573   8.656  0.0090 -0.3638 -0.1926
  745TIP3    H123870   6.327   0.565   8.608 -0.0683 -0.1088 -0.1045
  745TIP3    H223871   6.445   0.657   8.628  0.2184 -0.4548 -0.1981
  746TIP3   OH223872   3.440   4.087   6.307 -0.3306  0.3217 -0.1327
  746TIP3    H123873   3.426   4.181   6.322 -1.2398 -0.0983  1.8611
  746TIP3    H223874   3.535   4.079   6.297 -0.0596  1.2464  1.4211
  747TIP3   OH223875   1.580   3.756   0.423  0.0990 -0.1984  0.2401
  747TIP3    H123876   1.576   3.746   0.328 -1.9919  0.1145  0.2452
  747TIP3    H223877   1.525   3.832   0.441  2.3433  1.2293  1.5475
  748TIP3   OH223878   2.572   1.004   1.284  0.2008 -0.5406  0.1445
  748TIP3    H123879   2.627   0.987   1.208 -0.6458  0.6708 -0.7843
  748TIP3    H223880   2.531   0.920   1.303  0.6460 -0.9287 -0.5585
  749TIP3   OH223881   2.303   3.356   0.488 -0.7897  0.1295  0.3692
  749TIP3    H123882   2.370   3.395   0.544 -1.5041  0.5736  0.9393
  749TIP3    H223883   2.325   3.263   0.484  2.2265  0.7450 -2.7386
  750TIP3   OH223884   2.127   4.351   7.842 -0.1435  0.5339  0.0648
  750TIP3    H123885   2.129   4.293   7.918 -0.5152  1.6595  0.9615
  750TIP3    H223886   2.177   4.305   7.775  0.3384 -0.4072  1.0485
  751TIP3   OH223887   1.556   1.369   7.030 -0.7593  0.3290 -0.8430
  751TIP3    H123888   1.531   1.317   6.954 -1.5085  0.6736 -0.8382
  751TIP3    H223889   1.603   1.444   6.995  0.1637 -0.2393 -0.8618
  752TIP3   OH223890   5.096   4.431   8.513  0.1869 -0.1376 -0.4626
  752TIP3    H123891   5.145   4.447   8.432  1.4389 -0.5734  0.1793
  752TIP3    H223892   5.006   4.418   8.484  0.8008 -1.5025 -1.9284
  753TIP3   OH223893   1.325   0.923   0.103 -0.0258 -0.4563 -0.0964
  753TIP3    H123894   1.400   0.924   0.042  0.4733 -0.7747  0.5016
  753TIP3    H223895   1.249   0.911   0.046  0.5901 -2.7701 -0.5282
  754TIP3   OH223896   2.429   4.458   0.809 -0.0780 -0.3102  0.5052
  754TIP3    H123897   2.448   4.498   0.724  1.3436  0.7997  1.2955
  754TIP3    H223898   2.334   4.449   0.811 -0.1275 -0.5857 -1.2766
  755TIP3   OH223899   5.407   3.939   8.545  0.1670 -0.4248 -0.0968
  755TIP3    H123900   5.323   3.893   8.551 -0.7529  1.1059 -0.5579
  755TIP3    H223901   5.384   4.024   8.507  1.9500 -0.0021 -0.2857
  756TIP3   OH223902   1.069   2.491   6.893  0.5076 -0.5888  0.1794
  756TIP3    H123903   1.075   2.582   6.920  1.9937 -0.2778 -1.0419
  756TIP3    H223904   1.127   2.444   6.954  0.5894 -0.5492  0.1322
  757TIP3   OH223905   4.852   3.223   0.229 -0.1631 -0.2728 -0.5025
  757TIP3    H123906   4.935   3.269   0.222 -0.6234  0.5652 -0.6997
  757TIP3    H223907   4.851   3.163   0.155  0.1775 -0.1327 -0.6209
  758TIP3   OH223908   0.953   1.175   2.053  0.0239 -0.0273  0.3420
  758TIP3    H123909   0.884   1.189   2.118 -0.7971 -0.6741 -0.3526
  758TIP3    H223910   0.934   1.240   1.985 -1.3466 -1.6789 -0.9522
  759TIP3   OH223911   5.335   4.509   1.003 -0.1344  0.1745  0.7177
  759TIP3    H123912   5.359   4.423   1.037 -1.3384  0.0768  1.3566
  759TIP3    H223913   5.384   4.571   1.057 -0.1228 -0.0684  0.9875
  760TIP3   OH223914   5.800   3.495   0.880 -0.4753  0.1784 -0.7129
  760TIP3    H123915   5.770   3.585   0.870 -0.6652  0.1556 -0.3637
  760TIP3    H223916   5.874   3.488   0.820 -0.6557  0.4742 -0.9747
  761TIP3   OH223917   5.140   4.256   8.033 -0.0230 -0.1475  0.3455
  761TIP3    H123918   5.176   4.228   7.949  0.4819 -0.3121  0.6142
  761TIP3    H223919   5.143   4.178   8.088  1.8058  0.4975  1.2454
  762TIP3   OH223920   1.130   5.775   2.394 -0.6706  0.5973 -0.6571
  762TIP3    H123921   1.068   5.803   2.463 -0.9734 -0.7216 -0.3719
  762TIP3    H223922   1.143   5.682   2.411 -0.1165  0.4403 -1.9180
  763TIP3   OH223923   1.151   4.706   6.877  0.2083  0.0452 -0.2337
  763TIP3    H123924   1.163   4.705   6.972 -0.0030 -0.1058 -0.2071
  763TIP3    H223925   1.163   4.615   6.851  0.0426  0.0472 -0.3209
  764TIP3   OH223926   6.124   2.783   8.137  0.4796 -0.2079 -0.0432
  764TIP3    H123927   6.188   2.817   8.199  1.1024  0.8978 -1.2605
  764TIP3    H223928   6.164   2.702   8.105 -0.0253 -1.0062  1.2423
  765TIP3   OH223929   1.663   1.056   1.854  0.2234 -0.1790 -0.2483
  765TIP3    H123930   1.675   0.973   1.900  0.9321 -0.1101 -0.2860
  765TIP3    H223931   1.719   1.048   1.776 -1.6675 -0.6715 -1.6442
  766TIP3   OH223932   2.593   6.386   0.369 -0.3000 -0.4872  0.8241
  766TIP3    H123933   2.671   6.442   0.370 -1.7809  1.7337 -0.0733
  766TIP3    H223934   2.569   6.379   0.462  1.0590 -1.4118  1.1381
  767TIP3   OH223935   5.720   6.110   7.040 -0.0749  0.6522 -0.5340
  767TIP3    H123936   5.681   6.104   6.953  0.0019 -0.6718 -0.4963
  767TIP3    H223937   5.813   6.091   7.025 -0.2195 -0.4792 -0.0549
  768TIP3   OH223938   4.365   4.968   6.779 -0.1865  0.4046  0.1970
  768TIP3    H123939   4.348   4.912   6.703 -1.9823  0.1675  0.7176
  768TIP3    H223940   4.362   4.908   6.854  2.8454  0.3973  0.4487
  769TIP3   OH223941   1.976   5.057   8.500  0.7928  0.1928 -0.0890
  769TIP3    H123942   2.012   5.010   8.424 -0.7415  2.0292 -2.0827
  769TIP3    H223943   1.916   5.121   8.462  2.5047  3.5856  2.3992
  770TIP3   OH223944   0.056   5.649   8.650  0.5942  0.2643  0.3560
  770TIP3    H123945   0.125   5.686   8.595 -1.1870  0.3984 -1.9249
  770TIP3    H223946   0.096   5.573   8.692  2.6159  1.3647  0.5431
  771TIP3   OH223947   3.251   2.350   8.142 -0.3753  0.2604 -0.0828
  771TIP3    H123948   3.249   2.440   8.110  2.4505  0.3335 -0.3132
  771TIP3    H223949   3.300   2.302   8.075  1.2434 -0.6462  1.6522
  772TIP3   OH223950   5.042   2.265   6.030  0.0316 -0.8252 -0.4621
  772TIP3    H123951   5.043   2.170   6.034  1.7050 -0.8130  1.7685
  772TIP3    H223952   5.129   2.289   5.998  0.0093 -0.0579  0.0065
  773TIP3   OH223953   4.308   2.193   6.388 -0.4261  0.5896  0.0224
  773TIP3    H123954   4.399   2.187   6.357  0.0590 -0.3939  1.5087
  773TIP3    H223955   4.277   2.102   6.385 -0.9751  0.7559  0.6033
  774TIP3   OH223956   6.475   1.720   8.385 -0.7294 -0.1005  0.2027
  774TIP3    H123957   6.462   1.674   8.302 -1.1013 -1.4991  1.0005
  774TIP3    H223958   6.427   1.667   8.449  1.7221 -0.5498  1.7809
  775TIP3   OH223959   6.046   0.259   0.868 -0.0640 -0.5357 -0.2126
  775TIP3    H123960   6.003   0.307   0.940 -0.2257 -1.0736  0.0583
  775TIP3    H223961   6.111   0.205   0.912 -2.6116 -3.6795  0.0219
  776TIP3   OH223962   4.386   0.089   8.051  0.2560 -0.5615  1.0295
  776TIP3    H123963   4.317   0.152   8.029 -0.8859 -1.3751  2.1990
  776TIP3    H223964   4.458   0.143   8.083  1.1587  0.5047 -2.3866
  777TIP3   OH223965   2.220   2.529   7.376 -0.3433 -0.7373 -0.2196
  777TIP3    H123966   2.231   2.434   7.379  0.8493 -0.6669 -1.3004
  777TIP3    H223967   2.131   2.542   7.344 -0.6345 -1.4822  0.2640
  778TIP3   OH223968   0.327   0.310   7.993 -0.3791  0.2698  0.0640
  778TIP3    H123969   0.232   0.313   8.004 -0.1768  1.8318  1.8634
  778TIP3    H223970   0.356   0.398   8.014  1.2673  0.6546 -3.1788
  779TIP3   OH223971   3.739   2.359   0.426 -0.2907  0.1660 -0.2033
  779TIP3    H123972   3.744   2.301   0.350 -1.6255  1.1092 -1.0722
  779TIP3    H223973   3.797   2.320   0.490  1.1284 -0.5108 -1.8200
  780TIP3   OH223974   5.054   0.790   1.021 -0.2187 -0.2617 -0.5174
  780TIP3    H123975   5.039   0.843   0.943 -0.4683  0.9734  0.3299
  780TIP3    H223976   4.967   0.782   1.061  0.2134  1.1054  0.8235
  781TIP3   OH223977   1.604   5.859   8.313 -0.2672 -0.2519 -0.1953
  781TIP3    H123978   1.683   5.830   8.358  0.6615 -0.5327 -1.9017
  781TIP3    H223979   1.589   5.792   8.247 -2.0846 -0.3111  0.2441
  782TIP3   OH223980   2.324   4.266   6.853 -0.4963  0.5975 -0.2852
  782TIP3    H123981   2.345   4.270   6.947 -1.3224  1.7865 -0.1347
  782TIP3    H223982   2.409   4.249   6.811  0.2811  2.2288  0.5307
  783TIP3   OH223983   6.592   0.776   8.388  0.0781  0.1746 -0.6157
  783TIP3    H123984   6.559   0.791   8.477  0.4192  1.0962 -0.6330
  783TIP3    H223985   6.669   0.721   8.400 -0.2332 -0.2203 -0.3976
  784TIP3   OH223986   6.485   1.300   6.764  0.1444 -0.1287 -0.1916
  784TIP3    H123987   6.408   1.275   6.815  0.7931 -0.9693  0.4047
  784TIP3    H223988   6.522   1.218   6.734 -0.4815  0.3494 -2.4957
  785TIP3   OH223989   4.818   2.210   1.136  0.0241  0.0580 -0.4615
  785TIP3    H123990   4.748   2.174   1.081  0.8485  0.3673 -1.7672
  785TIP3    H223991   4.846   2.289   1.090  1.7067 -0.4300 -0.3507
  786TIP3   OH223992   1.897   0.503   7.915  0.2928  0.9960 -0.1859
  786TIP3    H123993   1.952   0.516   7.993  1.2308 -1.2399 -0.3806
  786TIP3    H223994   1.912   0.411   7.892 -1.2435  1.1756 -2.0510
  787TIP3   OH223995   2.450   1.725   7.995  0.4749  0.7117 -0.1102
  787TIP3    H123996   2.523   1.747   7.937 -1.1337  1.2834 -2.0573
  787TIP3    H223997   2.381   1.695   7.935 -0.5899 -0.6884  1.7229
  788TIP3   OH223998   0.479   3.125   8.314 -0.5125 -0.0951  0.2495
  788TIP3    H123999   0.496   3.120   8.408  1.0998  1.5285  0.1045
  788TIP3    H224000   0.395   3.171   8.307  0.1099  1.1811  0.8941
  789TIP3   OH224001   2.594   1.259   6.829 -0.7194  0.2255  0.5234
  789TIP3    H124002   2.557   1.192   6.771  0.7099  0.4366 -0.6885
  789TIP3    H224003   2.689   1.245   6.823 -0.5052  0.7746  2.2094
  790TIP3   OH224004   0.351   0.138   8.342  0.1748  0.3411  0.3202
  790TIP3    H124005   0.321   0.212   8.290  1.5755  0.8146  0.1574
  790TIP3    H224006   0.374   0.175   8.426  1.1734  0.1559  0.1387
  791TIP3   OH224007   2.903   0.710   2.310 -0.2908  0.6370  0.4513
  791TIP3    H124008   2.992   0.691   2.338  0.6087  4.9706  1.2293
  791TIP3    H224009   2.847   0.679   2.382  0.7526 -0.2735  0.8875
  792TIP3   OH224010   0.793   1.450   8.537 -0.0927 -0.6338 -0.3762
  792TIP3    H124011   0.859   1.452   8.468  1.3209  2.1736  0.8739
  792TIP3    H224012   0.814   1.374   8.590  1.5167 -0.3761 -0.6122
  793TIP3   OH224013   4.187   5.828   0.432  0.4842  0.1449 -0.8332
  793TIP3    H124014   4.229   5.859   0.513 -0.9650  0.1677 -0.0639
  793TIP3    H224015   4.200   5.899   0.370  0.4367  0.7111 -0.2066
  794TIP3   OH224016   4.716   2.722   0.705  0.1590 -0.2945 -0.0177
  794TIP3    H124017   4.652   2.655   0.729  0.4764 -0.5294  0.1751
  794TIP3    H224018   4.682   2.803   0.742 -1.0784 -0.0191 -1.6230
  795TIP3   OH224019   2.107   0.189   1.393  0.3887 -0.4245 -0.3810
  795TIP3    H124020   2.202   0.193   1.390  0.5023 -0.5697  1.5348
  795TIP3    H224021   2.081   0.274   1.430 -0.0559 -1.1717  1.0892
  796TIP3   OH224022   2.995   3.986   7.913  0.0630  0.3832 -0.2247
  796TIP3    H124023   3.091   3.979   7.913 -0.0080 -1.2365  0.6248
  796TIP3    H224024   2.978   4.080   7.921  1.5515  0.8003 -1.2863
  797TIP3   OH224025   4.291   1.309   7.112  0.1361 -0.1643  0.1006
  797TIP3    H124026   4.382   1.313   7.083  0.3725 -0.8020  0.7129
  797TIP3    H224027   4.268   1.216   7.102 -0.2910 -0.0903  0.4047
  798TIP3   OH224028   6.370   5.042   0.938 -0.1444  0.4844  0.4675
  798TIP3    H124029   6.289   5.012   0.897 -0.1818  1.1853  0.0212
  798TIP3    H224030   6.416   5.089   0.868  0.9995 -0.5426  0.4934
  799TIP3   OH224031   1.698   5.310   1.167 -0.0498 -0.5950  0.4256
  799TIP3    H124032   1.727   5.352   1.086 -0.0972  0.9762  1.1988
  799TIP3    H224033   1.630   5.367   1.201  0.2596 -1.0068  1.7938
  800TIP3   OH224034   1.241   6.002   7.336  0.0847  0.1691  0.1638
  800TIP3    H124035   1.266   5.997   7.244  0.6819  0.7935  0.2820
  800TIP3    H224036   1.313   6.050   7.378 -1.2211  1.9408  0.5421
  801TIP3   OH224037   5.902   1.560   0.044 -0.6223  0.4862  0.4250
  801TIP3    H124038   5.813   1.526   0.054 -0.4418  0.1620  0.9818
  801TIP3    H224039   5.942   1.546   0.130 -0.8563  3.0419  1.0360
  802TIP3   OH224040   6.095   6.405   7.706 -0.0988 -0.2370  0.1071
  802TIP3    H124041   6.133   6.478   7.659  1.9743 -0.6580  1.0255
  802TIP3    H224042   6.094   6.433   7.798 -2.3280 -0.1475  0.1045
  803TIP3   OH224043   4.368   2.816   0.434 -0.5822  0.2678  0.3861
  803TIP3    H124044   4.384   2.854   0.347 -2.6420  1.0845  0.3068
  803TIP3    H224045   4.369   2.722   0.419 -1.2445  0.4028 -0.6067
  804TIP3   OH224046   0.650   0.425   8.398 -0.4799  0.5016 -0.0974
  804TIP3    H124047   0.637   0.378   8.316  1.6162 -0.5060  0.0797
  804TIP3    H224048   0.718   0.489   8.379 -0.7321  0.9809  0.5757
  805TIP3   OH224049   2.552   3.288   0.197 -0.0052  0.2686  0.2410
  805TIP3    H124050   2.618   3.219   0.191  0.4751  0.3605  2.9864
  805TIP3    H224051   2.555   3.332   0.112  1.5054 -1.4548 -0.6584
  806TIP3   OH224052   4.060   4.115   7.093  0.3960  0.8029 -0.5126
  806TIP3    H124053   4.102   4.147   7.013  1.4346  0.4470 -0.1276
  806TIP3    H224054   4.070   4.019   7.088  1.1267  0.8158  0.3733
  807TIP3   OH224055   6.169   3.461   8.507  0.2535 -0.1457  0.9636
  807TIP3    H124056   6.137   3.383   8.552  1.0164  0.5295  2.7898
  807TIP3    H224057   6.194   3.521   8.578  2.4775  0.6085 -0.3440
  808TIP3   OH224058   5.885   1.527   7.292 -0.1805  0.2657  0.8191
  808TIP3    H124059   5.954   1.583   7.258 -1.0132 -0.2842 -2.0129
  808TIP3    H224060   5.929   1.470   7.355  2.2244 -0.7741 -1.6166
  809TIP3   OH224061   3.086   1.306   0.836 -0.5990  0.2252  0.6520
  809TIP3    H124062   3.121   1.221   0.861  1.2414  1.0002  0.9153
  809TIP3    H224063   2.991   1.295   0.836 -0.3869 -1.9943 -0.0059
  810TIP3   OH224064   0.023   1.313   0.747 -0.8294 -0.4160  0.5811
  810TIP3    H124065  -0.002   1.395   0.705 -2.3167 -1.2681 -0.2923
  810TIP3    H224066   0.102   1.285   0.700 -1.4999 -0.5036 -0.5201
  811TIP3   OH224067   5.763   2.955   0.668 -0.1859 -0.0615 -0.0925
  811TIP3    H124068   5.738   3.007   0.744 -0.5202  0.8480 -0.8033
  811TIP3    H224069   5.846   2.993   0.640  0.9879 -1.6824  0.9742
  812TIP3   OH224070   1.866   4.408   1.129 -0.0216  0.4964  0.4080
  812TIP3    H124071   1.931   4.456   1.180  2.4735 -1.2082 -0.9265
  812TIP3    H224072   1.853   4.326   1.177  0.3521  0.0037 -0.3015
  813TIP3   OH224073   4.717   5.182   1.143  0.2678 -0.0799 -0.2635
  813TIP3    H124074   4.741   5.131   1.066  0.5644  0.3242 -0.4367
  813TIP3    H224075   4.800   5.198   1.188  0.2726  0.9293 -0.6252
  814TIP3   OH224076   5.836   2.882   6.231 -0.7374  0.0953  0.7681
  814TIP3    H124077   5.925   2.893   6.262 -0.9491  0.4862  1.2595
  814TIP3    H224078   5.804   2.804   6.276  0.6949 -2.6369 -2.5606
  815TIP3   OH224079   4.060   0.594   8.109  0.2576 -0.1604  0.0618
  815TIP3    H124080   3.976   0.567   8.146  0.3272 -1.3153 -0.5745
  815TIP3    H224081   4.071   0.538   8.032  1.4733  0.1805 -0.0280
  816TIP3   OH224082   3.114   4.154   7.302 -0.1256  0.3951  0.2608
  816TIP3    H124083   3.030   4.165   7.259 -0.0294  2.2277  0.4790
  816TIP3    H224084   3.129   4.059   7.301 -1.7484  0.1127 -0.5783
  817TIP3   OH224085   0.725   3.533   0.507 -0.2606 -0.5156 -0.1323
  817TIP3    H124086   0.629   3.525   0.506 -0.1696 -1.8359 -1.2901
  817TIP3    H224087   0.751   3.498   0.591 -0.7361 -1.2724 -0.2865
  818TIP3   OH224088   0.401   2.730   2.621  0.6762 -0.1995  0.4123
  818TIP3    H124089   0.449   2.699   2.544  0.5833  0.7910 -0.0635
  818TIP3    H224090   0.356   2.652   2.655 -1.1249 -0.2672 -1.8771
  819TIP3   OH224091   6.869   4.272   7.320 -0.1106  0.0727 -0.1854
  819TIP3    H124092   6.928   4.269   7.395 -1.2677 -0.5205  0.7279
  819TIP3    H224093   6.843   4.364   7.313  0.3232  0.2014 -0.1289
  820TIP3   OH224094   0.327   0.832   1.575 -0.3676  0.4576  0.0501
  820TIP3    H124095   0.404   0.776   1.576  0.6484  1.7556  1.7150
  820TIP3    H224096   0.272   0.797   1.505  0.5950 -2.0164  0.4304
  821TIP3   OH224097   5.809   2.235   8.441  0.2038 -0.4666  0.2095
  821TIP3    H124098   5.733   2.177   8.445  0.1948 -0.5172 -0.4957
  821TIP3    H224099   5.772   2.322   8.428  0.2744 -0.5373 -0.4885
  822TIP3   OH224100   2.149   1.651   0.564  0.0074 -0.0625 -0.1070
  822TIP3    H124101   2.160   1.683   0.653  0.7657 -2.1578  0.5933
  822TIP3    H224102   2.226   1.683   0.518  0.1777  0.0618  0.2610
  823TIP3   OH224103   5.995   3.098   0.593 -0.2258  0.2842  0.3246
  823TIP3    H124104   5.968   3.190   0.592 -0.6952  0.1579  0.9031
  823TIP3    H224105   6.085   3.100   0.559 -0.3614  0.9096 -0.0235
  824TIP3   OH224106   3.770   5.989   0.978  0.0957 -0.0355  0.0163
  824TIP3    H124107   3.800   5.972   1.068 -0.1849  0.2724  0.1701
  824TIP3    H224108   3.742   6.080   0.979  1.5281  0.4516 -0.7857
  825TIP3   OH224109   0.667   5.217   1.264 -0.5583 -0.2271 -0.0895
  825TIP3    H124110   0.638   5.164   1.338 -0.9846  0.9619  0.6294
  825TIP3    H224111   0.610   5.191   1.191 -0.7740 -0.7293  0.2543
  826TIP3   OH224112   1.561   1.964   0.431 -0.1683  0.1189 -0.2353
  826TIP3    H124113   1.613   1.888   0.402 -0.7187 -0.9017  1.3061
  826TIP3    H224114   1.474   1.928   0.448 -1.1976  1.6401 -1.9238
  827TIP3   OH224115   1.073   4.310   6.602 -0.8532 -0.0146 -0.2383
  827TIP3    H124116   1.009   4.240   6.592 -0.2441 -0.6276  0.0529
  827TIP3    H224117   1.040   4.362   6.676 -0.6144 -0.7857  0.4219
  828TIP3   OH224118   2.793   0.153   7.063 -0.7184  0.1173 -0.7109
  828TIP3    H124119   2.772   0.121   6.976 -0.9217 -0.6214 -0.4025
  828TIP3    H224120   2.746   0.236   7.071  1.3040  1.5028 -2.2121
  829TIP3   OH224121   2.463   4.436   7.512 -0.5084 -0.3585 -0.1365
  829TIP3    H124122   2.447   4.492   7.436 -0.4589  1.7005  1.3212
  829TIP3    H224123   2.460   4.494   7.587  1.2254 -2.0236  1.3393
  830TIP3   OH224124   2.198   5.742   1.314  0.2642  0.7545  0.3748
  830TIP3    H124125   2.205   5.825   1.269  1.8684  0.6782  0.4227
  830TIP3    H224126   2.153   5.684   1.252  0.5006  1.2463 -0.2651
  831TIP3   OH224127   3.660   6.540   7.292  0.2864 -0.1322 -0.3145
  831TIP3    H124128   3.613   6.561   7.373  0.3255  2.3615 -0.8547
  831TIP3    H224129   3.743   6.502   7.322  1.4314  3.0726  1.0391
  832TIP3   OH224130   4.536   4.446   8.373 -0.3652  0.1571 -0.1932
  832TIP3    H124131   4.519   4.353   8.359  0.3651 -0.2224  1.2481
  832TIP3    H224132   4.454   4.480   8.408 -1.0719  0.3834 -1.9322
  833TIP3   OH224133   1.988   5.816   2.016 -0.4020  0.9973  0.4812
  833TIP3    H124134   1.938   5.851   2.089 -1.4689 -0.6203  0.5572
  833TIP3    H224135   2.004   5.724   2.039 -0.1445  0.6502 -0.9883
  834TIP3   OH224136   3.550   3.294   6.930  0.6551  0.1707  0.2772
  834TIP3    H124137   3.518   3.332   6.848  2.0988  2.2368  0.5833
  834TIP3    H224138   3.476   3.243   6.964 -1.2796  2.3092 -0.4684
  835TIP3   OH224139   4.047   6.789   1.514  0.4439  0.5093  0.1318
  835TIP3    H124140   4.041   6.800   1.609 -0.5455  1.3214 -0.0095
  835TIP3    H224141   4.126   6.836   1.489  1.0690 -0.2575  0.6184
  836TIP3   OH224142   6.332   0.455   1.746 -0.3938 -0.0528 -0.4279
  836TIP3    H124143   6.343   0.548   1.729  1.1467  0.0698  0.9413
  836TIP3    H224144   6.345   0.446   1.840  0.9589 -1.8069 -0.7291
  837TIP3   OH224145   4.027   6.888   0.690  0.3589 -0.1348 -0.1536
  837TIP3    H124146   4.010   6.982   0.699 -0.1014 -0.3641  2.0433
  837TIP3    H224147   3.992   6.865   0.604 -0.5736  1.4963 -0.2455
  838TIP3   OH224148   1.657   3.244   0.369  0.4751 -0.5861  0.2724
  838TIP3    H124149   1.654   3.308   0.439  0.4226  0.8897 -1.0337
  838TIP3    H224150   1.749   3.243   0.340  0.6860 -1.8340  0.9122
  839TIP3   OH224151   1.159   6.047   8.471 -0.0827  0.2576  0.2712
  839TIP3    H124152   1.172   5.989   8.396 -2.7481  2.3889 -2.1106
  839TIP3    H224153   1.247   6.073   8.498  1.0223 -1.8151 -1.0858
  840TIP3   OH224154   2.981   0.171   7.289 -0.6553  0.2293  0.2198
  840TIP3    H124155   2.971   0.247   7.346  0.4511  0.3930  0.2012
  840TIP3    H224156   2.929   0.192   7.211 -0.3140  0.9763  0.1951
  841TIP3   OH224157   0.753   0.376   0.452 -0.2339 -0.3232  0.0110
  841TIP3    H124158   0.792   0.355   0.367 -1.1120 -1.8457 -0.0550
  841TIP3    H224159   0.821   0.353   0.515 -0.0123 -0.3162 -0.2217
  842TIP3   OH224160   4.230   4.202   1.920 -0.1899  0.3219  0.1623
  842TIP3    H124161   4.178   4.122   1.913  0.5054 -0.0247 -1.5920
  842TIP3    H224162   4.193   4.260   1.853  0.2039  0.9632  0.4845
  843TIP3   OH224163   2.102   0.052   1.150 -0.0584 -0.0513  0.5056
  843TIP3    H124164   2.095  -0.041   1.174  2.1256 -0.1577  0.9444
  843TIP3    H224165   2.093   0.099   1.233 -1.5030  0.1794  0.2380
  844TIP3   OH224166   5.912   5.006   1.860  1.0323  0.0039  0.3328
  844TIP3    H124167   5.963   5.056   1.924  0.7597  0.5396  0.1425
  844TIP3    H224168   5.961   5.015   1.778  0.1437  1.3829 -0.0944
  845TIP3   OH224169   6.792   4.281   0.978 -0.6776  0.2419  0.7744
  845TIP3    H124170   6.864   4.218   0.975 -0.1668  0.8478 -0.4511
  845TIP3    H224171   6.721   4.235   1.023 -1.8278 -2.8619 -3.5893
  846TIP3   OH224172   2.924   3.379   8.425  0.0828 -0.4404  0.1755
  846TIP3    H124173   2.871   3.305   8.395 -1.2334  0.8026 -0.7304
  846TIP3    H224174   2.911   3.447   8.358  0.2923  1.0190  1.5444
  847TIP3   OH224175   3.775   5.854   0.720  0.1076 -0.4716 -0.3509
  847TIP3    H124176   3.763   5.895   0.806 -0.6923 -0.1284 -0.6217
  847TIP3    H224177   3.866   5.823   0.722 -0.2000 -1.4203  1.0202
  848TIP3   OH224178   4.156   5.572   1.661 -0.4030 -0.2900 -0.1743
  848TIP3    H124179   4.207   5.644   1.622  0.8117 -0.5135  0.9548
  848TIP3    H224180   4.082   5.616   1.702 -1.3175  0.0210 -2.0516
  849TIP3   OH224181   4.058   5.779   7.052  0.3342  0.1087  0.5813
  849TIP3    H124182   3.980   5.832   7.064 -0.1480  0.3616 -2.8597
  849TIP3    H224183   4.130   5.842   7.048  0.2702  0.1635  0.3157
  850TIP3   OH224184   1.833   3.167   7.751 -0.0348 -0.1188 -0.6960
  850TIP3    H124185   1.769   3.197   7.815 -2.1689 -2.0645 -1.7749
  850TIP3    H224186   1.802   3.201   7.668  0.0551 -1.4429 -1.2941
  851TIP3   OH224187   0.867   3.587   1.938  0.0649 -0.1843 -0.4384
  851TIP3    H124188   0.822   3.614   2.018  1.8809 -2.8074  1.6288
  851TIP3    H224189   0.797   3.557   1.880 -1.1398 -2.0836  1.8151
  852TIP3   OH224190   6.090   0.986   0.730  0.8807  0.3717  0.2102
  852TIP3    H124191   6.153   1.002   0.800  1.4366  2.2589 -0.6624
  852TIP3    H224192   6.132   1.019   0.651 -0.2669 -0.4923 -0.8092
  853TIP3   OH224193   4.689   1.057   8.135 -0.1689  0.7664  0.1767
  853TIP3    H124194   4.668   1.057   8.228 -1.7765 -4.4374  0.1041
  853TIP3    H224195   4.773   1.011   8.129 -0.5680  0.1545 -0.9734
  854TIP3   OH224196   0.264   0.596   7.739 -0.3877 -0.6058  0.1087
  854TIP3    H124197   0.242   0.671   7.793  3.0189  2.5993 -2.4760
  854TIP3    H224198   0.327   0.546   7.790  0.5442  0.7115  0.2693
  855TIP3   OH224199   2.200   0.833   6.957 -0.2048 -0.2556  0.1404
  855TIP3    H124200   2.240   0.917   6.938 -0.1829  0.4196  2.8110
  855TIP3    H224201   2.116   0.835   6.911  0.3068  0.6981 -0.7951
  856TIP3   OH224202   5.816   3.298   7.749  1.0271 -0.1479 -0.3305
  856TIP3    H124203   5.754   3.272   7.817  1.8724  1.2917  1.0651
  856TIP3    H224204   5.761   3.337   7.680  0.3396  0.9602  0.8012
  857TIP3   OH224205   6.792   2.888   1.271 -0.5317 -1.0739 -0.4550
  857TIP3    H124206   6.844   2.967   1.253  0.0764 -1.4834 -0.5234
  857TIP3    H224207   6.851   2.831   1.320 -1.6885 -0.5681  1.6783
  858TIP3   OH224208   2.980   6.552   6.790  0.3091 -0.4095  0.6519
  858TIP3    H124209   2.969   6.558   6.695  0.0458 -0.3200  0.6861
  858TIP3    H224210   2.895   6.523   6.822  0.6279 -1.2094  0.7949
  859TIP3   OH224211   3.983   1.784   7.588  0.2114 -0.2925  0.1024
  859TIP3    H124212   4.008   1.771   7.497 -4.7589  0.2881 -1.6945
  859TIP3    H224213   3.944   1.701   7.615 -0.0386  0.1201  1.0571
  860TIP3   OH224214   1.662   2.037   6.911 -0.1218  0.6256  0.1810
  860TIP3    H124215   1.663   2.123   6.953  0.5462 -0.4699  2.6111
  860TIP3    H224216   1.728   2.043   6.843  1.3199  1.5068  1.5848
  861TIP3   OH224217   0.136   1.685   1.941 -0.3726 -0.4657  0.5226
  861TIP3    H124218   0.098   1.773   1.935 -0.4328 -0.5629 -1.1475
  861TIP3    H224219   0.206   1.694   2.006 -1.0842  0.5341  1.1863
  862TIP3   OH224220   0.606   1.222   8.494 -0.1943 -0.3408  0.0811
  862TIP3    H124221   0.691   1.211   8.537 -0.7944 -3.4137  0.7792
  862TIP3    H224222   0.560   1.286   8.547  1.6146  1.3274 -0.2661
  863TIP3   OH224223   0.198   6.399   7.013  0.2596 -0.1674  0.2723
  863TIP3    H124224   0.189   6.492   6.990  0.2605  0.2144  1.7295
  863TIP3    H224225   0.185   6.397   7.108 -0.1381 -1.7188  0.2038
  864TIP3   OH224226   0.501   6.051   0.749 -0.2831 -0.6271 -0.5160
  864TIP3    H124227   0.569   6.073   0.686 -0.7743  0.1066 -0.8040
  864TIP3    H224228   0.488   5.956   0.739  0.7324 -0.7856 -0.4059
  865TIP3   OH224229   3.385   4.288   0.297 -0.4599  0.1288  0.1975
  865TIP3    H124230   3.322   4.302   0.226  0.7657  1.1844 -0.7170
  865TIP3    H224231   3.463   4.253   0.253 -0.6553 -2.0280  1.4238
  866TIP3   OH224232   2.882   2.467   7.581  0.3840  0.0131  0.9093
  866TIP3    H124233   2.844   2.465   7.493  1.2455  1.4730  0.4771
  866TIP3    H224234   2.843   2.391   7.625 -0.2514 -0.6079 -0.6386
  867TIP3   OH224235   6.044   3.552   0.752 -0.1248  0.4623 -0.3461
  867TIP3    H124236   6.052   3.626   0.691 -1.2739 -1.7101 -3.3859
  867TIP3    H224237   6.134   3.525   0.768  0.2164  1.2477 -0.8421
  868TIP3   OH224238   3.883   3.087   1.939 -0.3026  0.1810  1.0503
  868TIP3    H124239   3.821   3.015   1.947 -1.1067  0.8940  1.3301
  868TIP3    H224240   3.831   3.162   1.912  0.6330  0.5115  0.0629
  869TIP3   OH224241   6.265   4.236   6.809 -0.1436 -0.0899  0.0243
  869TIP3    H124242   6.339   4.294   6.830  0.4552 -1.4370  1.8596
  869TIP3    H224243   6.188   4.290   6.826  0.4059  0.2716  1.5490
  870TIP3   OH224244   3.145   3.709   0.502 -0.5033  0.3608  0.2944
  870TIP3    H124245   3.159   3.625   0.547  0.1294  0.7940  0.9318
  870TIP3    H224246   3.060   3.739   0.532 -1.0257 -0.3449 -0.4291
  871TIP3   OH224247   5.034   3.798   0.894  0.4777  0.0476 -0.2505
  871TIP3    H124248   5.036   3.731   0.963  0.5253 -1.1907 -1.4136
  871TIP3    H224249   5.038   3.749   0.812 -1.8883  1.3248 -1.2459
  872TIP3   OH224250   4.961   3.903   1.248 -0.2185 -0.2994 -0.5227
  872TIP3    H124251   5.046   3.875   1.214 -0.1711  0.4709 -1.0492
  872TIP3    H224252   4.956   3.996   1.227 -1.1289 -0.3068 -0.3661
  873TIP3   OH224253   3.276   5.421   7.126 -0.2757  0.2820 -0.0461
  873TIP3    H124254   3.260   5.497   7.070  1.1579 -0.6216 -1.8121
  873TIP3    H224255   3.206   5.424   7.191 -0.2259  3.1382  0.0248
  874TIP3   OH224256   6.519   4.084   7.363 -0.3979 -0.8406  0.4410
  874TIP3    H124257   6.540   3.991   7.372  0.3757 -0.5723  1.5239
  874TIP3    H224258   6.571   4.128   7.430 -2.6344  0.1149  1.6787
  875TIP3   OH224259   4.438   2.267   1.761  0.1914  0.4174  0.5345
  875TIP3    H124260   4.502   2.333   1.734  1.0359 -0.6826 -0.2214
  875TIP3    H224261   4.428   2.211   1.685  0.0088 -0.7282  1.3861
  876TIP3   OH224262   2.757   5.048   0.259  0.9019 -0.0501  0.6011
  876TIP3    H124263   2.690   5.116   0.254  2.1479  1.1141 -1.3478
  876TIP3    H224264   2.813   5.074   0.332  1.7360  1.4193 -0.5217
  877TIP3   OH224265   0.820   5.064   0.137 -0.6131  0.3578 -0.0980
  877TIP3    H124266   0.901   5.112   0.150  0.5671 -0.8861 -2.1366
  877TIP3    H224267   0.751   5.129   0.148  0.7628  1.8871 -0.1306
  878TIP3   OH224268   1.313   2.738   1.351 -0.1087  0.1141 -0.2073
  878TIP3    H124269   1.258   2.660   1.345  0.0390 -0.0122  0.0419
  878TIP3    H224270   1.318   2.756   1.445  1.0988 -0.4651 -0.1450
  879TIP3   OH224271   1.962   0.256   0.477  0.3778 -0.1362  0.6614
  879TIP3    H124272   1.871   0.249   0.506 -0.2284  1.5317 -0.7005
  879TIP3    H224273   1.980   0.350   0.478  1.4789 -0.3075 -0.8525
  880TIP3   OH224274   6.821   1.240   1.617 -0.4646 -0.2132  0.4162
  880TIP3    H124275   6.864   1.325   1.607 -1.2759  0.3052  1.2709
  880TIP3    H224276   6.889   1.177   1.591  0.6376  0.6121  1.1757
  881TIP3   OH224277   6.818   0.968   0.494  0.2189  0.4782  0.2712
  881TIP3    H124278   6.725   0.951   0.475  0.0809  0.2897  1.0753
  881TIP3    H224279   6.843   1.035   0.431 -0.6340  0.9777  0.4454
  882TIP3   OH224280   3.604   3.322   0.081  0.1551 -0.2879  0.2287
  882TIP3    H124281   3.692   3.284   0.092  0.0450  0.0795  3.2665
  882TIP3    H224282   3.566   3.273   0.008  2.0248 -2.1807  0.4078
  883TIP3   OH224283   2.722   5.586   8.669  0.2803  0.7843  0.6286
  883TIP3    H124284   2.759   5.674   8.677  0.0359  0.9180  0.2950
  883TIP3    H224285   2.630   5.601   8.650  0.4116  0.4598 -0.2851
  884TIP3   OH224286   6.081   5.184   1.058  0.1120  0.0842 -0.1869
  884TIP3    H124287   6.140   5.185   1.133 -1.9400 -0.3517  1.5288
  884TIP3    H224288   6.109   5.110   1.005  1.2135  0.0238  0.4707
  885TIP3   OH224289   6.680   5.289   2.024  0.3660 -0.0859  0.2120
  885TIP3    H124290   6.629   5.274   2.104 -0.9441  0.0820 -0.5684
  885TIP3    H224291   6.686   5.203   1.982 -0.0195  0.0425 -0.1167
  886TIP3   OH224292   3.755   2.908   1.361  0.0008 -0.1766 -0.1405
  886TIP3    H124293   3.719   2.904   1.449 -0.1126 -1.2874 -0.2164
  886TIP3    H224294   3.682   2.881   1.304  0.4698 -0.8672 -0.4339
  887TIP3   OH224295   3.280   3.996   1.026  0.0556 -0.2446 -0.2146
  887TIP3    H124296   3.293   4.014   0.932  3.4279 -0.4052  0.0758
  887TIP3    H224297   3.220   4.065   1.055 -0.1427  0.5312 -2.2651
  888TIP3   OH224298   6.578   2.748   7.707 -0.2165  0.2635 -0.0293
  888TIP3    H124299   6.597   2.656   7.724 -0.5221  0.1491 -0.3004
  888TIP3    H224300   6.489   2.748   7.671  0.7254  0.3846 -2.5179
  889TIP3   OH224301   4.504   4.182   2.240  0.0678  0.6022 -0.2181
  889TIP3    H124302   4.495   4.233   2.160 -1.0263  0.9759  0.1289
  889TIP3    H224303   4.526   4.246   2.308 -2.3327  0.8379  0.4254
  890TIP3   OH224304   5.080   0.257   0.634  0.0571  0.2077  0.0712
  890TIP3    H124305   5.114   0.323   0.573  1.1218 -0.0853  0.3382
  890TIP3    H224306   5.139   0.261   0.709 -2.1511  1.7307  1.8738
  891TIP3   OH224307   4.891   2.332   0.342 -0.4276  0.4400  0.1974
  891TIP3    H124308   4.973   2.312   0.387  0.2927  2.0495 -0.3247
  891TIP3    H224309   4.868   2.251   0.296 -0.9574 -1.1539  2.9786
  892TIP3   OH224310   1.574   5.612   7.754  0.2265 -0.2112 -0.2007
  892TIP3    H124311   1.600   5.553   7.683 -1.3307 -0.6320 -0.4613
  892TIP3    H224312   1.632   5.687   7.745  0.3893 -0.4811 -1.6325
  893TIP3   OH224313   6.569   3.521   2.065  0.0458 -0.7287 -0.5623
  893TIP3    H124314   6.487   3.473   2.056  0.1287 -1.5084  1.9124
  893TIP3    H224315   6.621   3.467   2.125  1.2317  1.1245  0.1678
  894TIP3   OH224316   4.983   2.420   1.530 -0.5945  0.6159  0.2366
  894TIP3    H124317   4.961   2.329   1.507  0.5121  0.7454 -1.5244
  894TIP3    H224318   5.064   2.413   1.581  0.5777  0.6437 -1.5004
  895TIP3   OH224319   0.754   6.147   7.627 -0.6160  0.1061 -0.2776
  895TIP3    H124320   0.758   6.152   7.532 -1.3576  2.3122 -0.2434
  895TIP3    H224321   0.823   6.207   7.658 -0.0031 -1.0025  0.6065
  896TIP3   OH224322   1.973   0.604   1.990 -0.1367  0.5158  0.3945
  896TIP3    H124323   2.008   0.543   1.924 -1.2287  1.0854 -0.7615
  896TIP3    H224324   1.878   0.591   1.986 -0.3014  1.4938  0.9238
  897TIP3   OH224325   6.766   4.714   0.167 -0.1228  0.4645  0.5747
  897TIP3    H124326   6.723   4.790   0.207 -0.9987  0.1453  0.2721
  897TIP3    H224327   6.781   4.654   0.240 -1.5547 -0.0412  0.4838
  898TIP3   OH224328   2.321   2.322   1.686 -0.5638  0.2286 -0.0940
  898TIP3    H124329   2.324   2.413   1.655  0.4674 -0.1599 -1.2058
  898TIP3    H224330   2.394   2.316   1.748 -0.5725  0.1288 -0.0935
  899TIP3   OH224331   2.889   1.673   7.921 -0.7685 -0.3465  0.4096
  899TIP3    H124332   2.941   1.753   7.914 -1.3803  0.0456  0.2387
  899TIP3    H224333   2.951   1.602   7.905  0.0478  0.0193  1.8183
  900TIP3   OH224334   2.423   1.384   6.063 -0.8657  0.0725 -0.7561
  900TIP3    H124335   2.343   1.338   6.090  0.0732  0.0364  2.4029
  900TIP3    H224336   2.482   1.314   6.034 -0.4394 -0.5013  1.3343
  901TIP3   OH224337   0.409   0.550   7.000 -0.5392  0.2258 -0.3060
  901TIP3    H124338   0.350   0.580   7.070 -0.8060  0.7878 -0.7642
  901TIP3    H224339   0.467   0.487   7.043 -0.8104  0.4379  0.3827
  902TIP3   OH224340   2.842   1.860   0.131 -0.2809 -0.0702 -0.3991
  902TIP3    H124341   2.856   1.925   0.062 -1.6176  0.1221 -0.5096
  902TIP3    H224342   2.749   1.866   0.152  0.0968 -0.0063  1.5369
  903TIP3   OH224343   0.955   0.031   7.309  0.6358  0.4068  0.2152
  903TIP3    H124344   1.017   0.011   7.239 -0.6428  1.4225 -1.3034
  903TIP3    H224345   0.944   0.126   7.304 -2.0627  0.1426 -0.5637
  904TIP3   OH224346   0.513   1.244   0.688 -0.0186  0.1366  0.6775
  904TIP3    H124347   0.441   1.305   0.701 -0.5804 -0.2786 -0.3524
  904TIP3    H224348   0.473   1.166   0.649  0.9524 -0.1578  0.2059
  905TIP3   OH224349   0.132   4.732   7.769  0.7553 -0.0272  0.1489
  905TIP3    H124350   0.134   4.700   7.679 -0.3878  2.8481 -1.0036
  905TIP3    H224351   0.205   4.794   7.774  0.0313  0.7941  0.7915
  906TIP3   OH224352   5.817   2.425   1.737 -0.4205  0.1630  0.1356
  906TIP3    H124353   5.875   2.497   1.713 -0.6726  0.2244 -0.3014
  906TIP3    H224354   5.874   2.362   1.780 -0.2525  0.7762  0.8474
  907TIP3   OH224355   5.474   6.880   7.443 -0.3385  0.1044 -0.3078
  907TIP3    H124356   5.526   6.800   7.449 -2.2199 -1.2895 -1.4765
  907TIP3    H224357   5.491   6.914   7.355 -0.5710  0.2281 -0.3076
  908TIP3   OH224358   2.176   0.679   8.338  0.0435 -0.2836 -0.2148
  908TIP3    H124359   2.209   0.763   8.307 -2.6026  0.6639 -0.7001
  908TIP3    H224360   2.213   0.670   8.427  0.1937  1.4827 -0.0687
  909TIP3   OH224361   3.424   6.793   1.415 -0.0134 -0.0895  0.4602
  909TIP3    H124362   3.419   6.879   1.372 -0.8780 -0.4679 -0.2146
  909TIP3    H224363   3.495   6.803   1.478  1.6731  0.3160 -1.4191
  910TIP3   OH224364   3.452   5.980   7.348 -0.5614 -0.0187  0.4186
  910TIP3    H124365   3.441   6.071   7.321 -0.3692  0.1138  0.7936
  910TIP3    H224366   3.535   5.953   7.309  0.3763  0.5726  1.9619
  911TIP3   OH224367   3.147   2.320   6.811  0.8393  0.0835  0.0234
  911TIP3    H124368   3.101   2.300   6.730  0.0165 -0.7829  0.6826
  911TIP3    H224369   3.231   2.275   6.804  0.6040 -0.3233 -0.1751
  912TIP3   OH224370   2.207   4.950   1.395 -0.6830  0.2312 -0.3368
  912TIP3    H124371   2.123   4.977   1.431 -1.4002 -1.5818 -0.5619
  912TIP3    H224372   2.188   4.925   1.305  0.1997  0.2568 -0.5448
  913TIP3   OH224373   3.381   0.049   7.034  0.0414  0.0271 -0.1855
  913TIP3    H124374   3.298   0.012   7.064  0.1103  0.1564  0.1691
  913TIP3    H224375   3.442  -0.025   7.035 -0.0944 -0.0905 -0.5451
  914TIP3   OH224376   3.140   2.782   7.874 -0.1274  0.0472 -0.2112
  914TIP3    H124377   3.110   2.784   7.783 -0.4843 -0.4894 -0.1116
  914TIP3    H224378   3.167   2.872   7.892 -0.2785  0.2123 -0.7724
  915TIP3   OH224379   3.795   2.708   6.585 -0.2093  0.2876 -0.4054
  915TIP3    H124380   3.733   2.706   6.511  0.0186 -0.9424 -0.5826
  915TIP3    H224381   3.740   2.695   6.662 -0.2521 -0.1602 -0.5083
  916TIP3   OH224382   3.032   4.038   8.292 -0.2513  0.2190 -0.2450
  916TIP3    H124383   3.003   4.127   8.270  1.4371  0.3290 -2.4309
  916TIP3    H224384   2.996   3.983   8.222  1.6712 -0.1948 -0.9579
  917TIP3   OH224385   4.486   3.186   0.700 -0.4908 -0.1713 -0.0226
  917TIP3    H124386   4.441   3.122   0.753  1.2522 -1.3304  0.1501
  917TIP3    H224387   4.537   3.238   0.762  1.1516 -1.2002 -0.4171
  918TIP3   OH224388   2.872   3.499   2.137  0.2250 -0.2099 -0.1008
  918TIP3    H124389   2.906   3.520   2.225  1.2757 -2.4676  0.1031
  918TIP3    H224390   2.892   3.406   2.125 -1.1740 -0.3067 -2.1928
  919TIP3   OH224391   2.562   2.304   0.615 -0.3816  0.5388  0.1136
  919TIP3    H124392   2.651   2.329   0.589  0.3359 -3.6879 -2.5271
  919TIP3    H224393   2.574   2.240   0.684 -1.2393 -0.5872 -0.7370
  920TIP3   OH224394   5.255   3.263   1.328 -0.0517 -0.4663  0.2354
  920TIP3    H124395   5.281   3.349   1.361  0.5607 -0.2732 -0.7074
  920TIP3    H224396   5.173   3.279   1.280 -1.4836 -0.9134  2.4081
  921TIP3   OH224397   3.811   0.961   7.918  0.0611 -0.4711 -0.0625
  921TIP3    H124398   3.792   0.868   7.925  0.3828 -0.5963 -0.7133
  921TIP3    H224399   3.846   0.972   7.829  1.6960 -0.0391  0.5911
  922TIP3   OH224400   5.747   5.801   0.347 -0.0494  0.2070 -0.5619
  922TIP3    H124401   5.821   5.740   0.350 -0.7195 -0.5884  0.5146
  922TIP3    H224402   5.672   5.747   0.323 -1.2140 -0.0905  3.0618
  923TIP3   OH224403   0.596   2.218   6.658 -0.4235  0.3309 -0.1811
  923TIP3    H124404   0.690   2.200   6.646 -0.5711 -0.4735 -0.1105
  923TIP3    H224405   0.589   2.313   6.644  0.2125  0.2125 -1.4417
  924TIP3   OH224406   4.390   2.488   8.237 -0.0249 -0.1845  0.0117
  924TIP3    H124407   4.326   2.419   8.220 -2.2495  1.8654 -0.4629
  924TIP3    H224408   4.439   2.496   8.155  0.4210 -1.3007  0.1468
  925TIP3   OH224409   3.021   0.683   6.793 -0.0352  0.5652  0.0164
  925TIP3    H124410   3.060   0.656   6.710 -1.0338 -2.5796  0.4273
  925TIP3    H224411   3.094   0.685   6.855  0.2639 -0.0514 -0.3118
  926TIP3   OH224412   4.261   3.010   0.700 -0.5050 -0.1962  0.7813
  926TIP3    H124413   4.265   2.971   0.612 -0.3261  1.6018 -0.0527
  926TIP3    H224414   4.328   2.964   0.750 -0.1327 -0.7820 -0.2240
  927TIP3   OH224415   6.810   4.129   7.813  0.4694 -0.2160  0.3906
  927TIP3    H124416   6.743   4.121   7.880  0.9952  1.2907  1.1354
  927TIP3    H224417   6.863   4.049   7.822 -0.3863 -0.7536  0.7125
  928TIP3   OH224418   4.402   5.106   8.527 -0.3985  0.0188  0.9894
  928TIP3    H124419   4.429   5.087   8.437 -0.1164  0.0726  1.0612
  928TIP3    H224420   4.403   5.020   8.570 -2.8253 -0.3976  0.3550
  929TIP3   OH224421   2.925   1.246   7.412 -0.2367 -0.1897 -0.4868
  929TIP3    H124422   2.921   1.218   7.504 -1.9227  0.9979 -0.1373
  929TIP3    H224423   3.000   1.305   7.408  1.9069 -2.7293 -0.6998
  930TIP3   OH224424   4.210   4.382   1.708 -0.2665 -0.1091 -0.3817
  930TIP3    H124425   4.135   4.431   1.743 -0.9855 -0.7549 -0.9816
  930TIP3    H224426   4.211   4.403   1.615 -0.3310 -0.8859 -0.5653
  931TIP3   OH224427   2.175   5.309   1.140  0.6577 -0.4289 -0.3777
  931TIP3    H124428   2.159   5.312   1.235  1.9044 -0.8617 -0.1437
  931TIP3    H224429   2.268   5.287   1.132  0.7464  0.3324 -1.6981
  932TIP3   OH224430   4.856   5.396   6.933 -0.3552 -0.5190 -0.0562
  932TIP3    H124431   4.879   5.473   6.985 -1.4882  0.0822 -0.4096
  932TIP3    H224432   4.764   5.379   6.956 -0.3018 -1.3874 -0.4543
  933TIP3   OH224433   0.153   3.824   7.620 -0.1958 -0.3720 -0.0115
  933TIP3    H124434   0.235   3.817   7.570  0.7519 -0.6322  1.5174
  933TIP3    H224435   0.168   3.897   7.680 -2.0598  1.2503 -1.3991
  934TIP3   OH224436   5.742   2.489   8.349  0.6086 -0.1004  0.2288
  934TIP3    H124437   5.783   2.546   8.284  0.3306 -1.6870 -1.4518
  934TIP3    H224438   5.659   2.464   8.309  0.0327 -0.4419  1.6068
  935TIP3   OH224439   3.271   5.784   8.575  0.0929  0.2050 -0.1337
  935TIP3    H124440   3.292   5.706   8.523 -1.0980  1.4407 -2.6054
  935TIP3    H224441   3.295   5.759   8.665  0.7043 -2.6175 -0.9672
  936TIP3   OH224442   1.744   5.042   8.018  0.1645 -0.6540  0.0409
  936TIP3    H124443   1.817   5.014   7.963  3.5818 -1.2396  4.3275
  936TIP3    H224444   1.697   4.961   8.037 -0.8645 -0.4907 -1.5929
  937TIP3   OH224445   1.446   5.205   1.743 -0.0910  0.0079 -0.1488
  937TIP3    H124446   1.402   5.193   1.659 -0.3945  0.0198  0.0071
  937TIP3    H224447   1.476   5.296   1.743  2.6121 -0.7614 -1.5296
  938TIP3   OH224448   6.009   3.699   1.255 -0.1685  0.0541 -0.1873
  938TIP3    H124449   6.096   3.660   1.258 -0.1866  0.0109 -0.2328
  938TIP3    H224450   5.986   3.700   1.162 -0.8325 -1.2921 -0.0517
  939TIP3   OH224451   0.906   5.151   1.004  1.1724  0.2105 -0.3617
  939TIP3    H124452   0.868   5.073   1.044  1.4069 -0.1798 -0.8883
  939TIP3    H224453   0.923   5.211   1.078  1.7290 -0.5501  0.1413
  940TIP3   OH224454   0.798   1.782   1.560 -0.3055  0.0415 -0.4206
  940TIP3    H124455   0.834   1.779   1.649  1.6695 -1.5633 -1.1951
  940TIP3    H224456   0.823   1.868   1.527  0.1298  0.1306  0.1195
  941TIP3   OH224457   3.693   0.146   0.893  0.0375  0.2353  0.2672
  941TIP3    H124458   3.701   0.059   0.853 -0.3558  1.0523 -1.7245
  941TIP3    H224459   3.782   0.182   0.890 -0.2544  0.9108 -1.4697
  942TIP3   OH224460   5.594   5.774   2.073  0.0266  0.2539  0.3201
  942TIP3    H124461   5.651   5.845   2.044  2.5493 -1.9539 -0.5086
  942TIP3    H224462   5.539   5.755   1.997 -0.5691  1.1913  0.5022
  943TIP3   OH224463   5.170   5.817   1.976  0.4788  0.2588  0.8403
  943TIP3    H124464   5.260   5.794   1.996  0.4774  0.4713  1.0950
  943TIP3    H224465   5.148   5.765   1.899  1.4012  1.4843 -0.3123
  944TIP3   OH224466   6.735   0.534   2.084  0.2463  0.0014  0.2046
  944TIP3    H124467   6.696   0.602   2.138  0.8348  0.1067  0.5126
  944TIP3    H224468   6.805   0.498   2.138  2.7347  1.9742 -1.4031
  945TIP3   OH224469   0.925   4.493   0.856  0.1243  0.3211 -0.2769
  945TIP3    H124470   0.976   4.537   0.787  0.4479  1.2198  0.5170
  945TIP3    H224471   0.975   4.413   0.875 -0.0131  0.0185 -1.1342
  946TIP3   OH224472   1.581   3.019   0.827  0.5954  0.3657 -0.1033
  946TIP3    H124473   1.514   3.085   0.846  1.3391  2.0339 -2.7887
  946TIP3    H224474   1.664   3.065   0.838  1.1252  0.0842 -2.4729
  947TIP3   OH224475   3.970   4.980   7.478  0.0466  0.0056  0.3357
  947TIP3    H124476   3.949   4.952   7.568 -0.0713 -0.4677  0.1626
  947TIP3    H224477   3.980   5.075   7.485  0.6200 -0.0851  0.9727
  948TIP3   OH224478   1.009   3.333   0.588  0.1235 -0.4104 -0.9587
  948TIP3    H124479   1.071   3.350   0.516  2.7737  0.8031  1.3962
  948TIP3    H224480   1.057   3.275   0.647  0.4891  2.9253  2.4566
  949TIP3   OH224481   1.210   1.938   7.079  0.4446  0.4163 -0.2321
  949TIP3    H124482   1.306   1.935   7.080  0.4266  0.1280  0.6716
  949TIP3    H224483   1.183   1.867   7.136 -0.3149  0.5919 -0.3715
  950TIP3   OH224484   6.207   6.847   7.929 -0.5869 -0.3702 -0.3300
  950TIP3    H124485   6.188   6.832   7.836  0.9232 -2.5517 -0.3549
  950TIP3    H224486   6.263   6.925   7.930 -3.1613  1.6358 -0.8707
  951TIP3   OH224487   4.863   2.552   1.292 -0.4171 -0.0725 -0.2241
  951TIP3    H124488   4.884   2.526   1.381  1.2186  2.3895  0.2070
  951TIP3    H224489   4.940   2.526   1.241 -1.0449 -0.8229 -0.8257
  952TIP3   OH224490   0.088   0.285   1.513  0.3309 -0.2127  0.1557
  952TIP3    H124491  -0.003   0.309   1.526  0.5750 -0.0516  1.7722
  952TIP3    H224492   0.085   0.212   1.451 -0.6807  1.4911 -1.9290
  953TIP3   OH224493   1.384   0.839   0.369  0.4864  0.2223  0.4741
  953TIP3    H124494   1.335   0.865   0.291  0.4068 -1.6512 -0.1624
  953TIP3    H224495   1.472   0.873   0.355  0.7553 -0.9434 -0.9724
  954TIP3   OH224496   1.373   5.031   7.669  0.4446 -0.2217 -0.1155
  954TIP3    H124497   1.448   5.059   7.616  0.5509 -0.4007 -0.0601
  954TIP3    H224498   1.303   5.017   7.605  0.1904  0.8134 -0.0797
  955TIP3   OH224499   5.492   1.081   7.356 -0.2176  0.3973 -0.4383
  955TIP3    H124500   5.561   1.147   7.349  1.3596 -0.9018  1.7394
  955TIP3    H224501   5.509   1.021   7.284 -0.8947  1.6009 -1.6580
  956TIP3   OH224502   5.912   2.518   7.782 -0.1284  0.5225 -0.1713
  956TIP3    H124503   5.984   2.463   7.748 -0.2490  0.1222  0.2115
  956TIP3    H224504   5.939   2.608   7.762 -0.6163  0.2848 -2.1719
  957TIP3   OH224505   1.218   6.275   7.113  0.2970  0.4075 -0.6850
  957TIP3    H124506   1.141   6.252   7.061  1.1461 -3.0063 -0.7020
  957TIP3    H224507   1.185   6.282   7.203  0.0274 -2.3514 -0.4780
  958TIP3   OH224508   4.159   6.527   8.190 -0.0893  0.4161 -0.2974
  958TIP3    H124509   4.218   6.530   8.266  0.8802  0.8801 -1.0390
  958TIP3    H224510   4.129   6.617   8.179 -1.8304 -0.0065  0.7232
  959TIP3   OH224511   4.784   2.094   0.264  0.2487  0.5747 -0.1476
  959TIP3    H124512   4.817   2.007   0.243 -0.3519  0.3286 -0.1137
  959TIP3    H224513   4.699   2.099   0.219 -1.3628 -0.1928  2.5650
  960TIP3   OH224514   2.522   0.738   7.118  0.0854 -0.3151 -0.4980
  960TIP3    H124515   2.558   0.822   7.092  2.9252 -2.0506 -2.8731
  960TIP3    H224516   2.595   0.692   7.160 -1.9217 -0.9837  2.5194
  961TIP3   OH224517   0.561   1.515   0.552 -0.0950 -0.8961  0.4280
  961TIP3    H124518   0.635   1.460   0.578  1.5297  1.3382  0.8464
  961TIP3    H224519   0.541   1.565   0.631 -1.6555 -0.9997  0.1165
  962TIP3   OH224520   4.652   2.498   2.532 -0.0006 -0.1699 -0.1045
  962TIP3    H124521   4.624   2.586   2.508  1.2022  0.2282 -0.1193
  962TIP3    H224522   4.575   2.457   2.571 -0.2319  1.3449  1.1097
  963TIP3   OH224523   3.929   3.866   0.320  0.2503 -0.0603  0.1691
  963TIP3    H124524   3.932   3.847   0.413 -0.2297 -2.4830 -0.2413
  963TIP3    H224525   3.912   3.961   0.315  0.1565  0.0953  2.5072
  964TIP3   OH224526   5.920   1.040   8.529  0.8510 -0.2663  0.3285
  964TIP3    H124527   5.849   1.102   8.545  0.7828 -0.4431  0.7095
  964TIP3    H224528   5.998   1.082   8.565  1.3892  0.9119 -1.9838
  965TIP3   OH224529   2.622   5.088   7.196 -0.3443  0.4060 -0.1664
  965TIP3    H124530   2.613   5.024   7.125  0.5621  1.5222 -1.3422
  965TIP3    H224531   2.716   5.108   7.197 -0.3510  0.4583  1.3378
  966TIP3   OH224532   3.200   6.014   0.543 -0.1962  0.6698 -0.5547
  966TIP3    H124533   3.109   6.045   0.546  0.1015  1.5158  1.0512
  966TIP3    H224534   3.224   6.004   0.635  0.9077 -0.8907 -0.9811
  967TIP3   OH224535   2.601   6.793   8.044  0.4006 -0.0906 -0.0709
  967TIP3    H124536   2.598   6.698   8.057 -0.1678 -0.0085  0.3958
  967TIP3    H224537   2.680   6.807   7.990 -0.4022 -0.9787 -1.5331
  968TIP3   OH224538   6.596   3.023   0.210  0.2630 -0.0144 -0.0583
  968TIP3    H124539   6.687   3.050   0.214  0.3773 -0.3596 -0.3051
  968TIP3    H224540   6.585   2.988   0.121  0.5244 -2.2200  0.7374
  969TIP3   OH224541   2.048   3.864   1.401  0.2364 -0.3336 -0.0276
  969TIP3    H124542   2.042   3.925   1.328  1.0744 -0.4717 -0.2219
  969TIP3    H224543   2.015   3.913   1.476 -1.3170 -0.4324 -0.6203
  970TIP3   OH224544   4.219   6.279   1.275  0.0056  0.5690  0.0940
  970TIP3    H124545   4.296   6.306   1.225  0.4040 -0.1087  0.3410
  970TIP3    H224546   4.146   6.290   1.214  0.1573  2.1124  0.1472
  971TIP3   OH224547   5.230   2.317   8.471 -0.1088  0.9986 -0.2111
  971TIP3    H124548   5.211   2.224   8.460  3.4719  0.0919 -0.0777
  971TIP3    H224549   5.238   2.329   8.565  1.9045  0.7490 -0.3007
  972TIP3   OH224550   6.847   3.981   7.179  0.0977 -0.3800 -0.7196
  972TIP3    H124551   6.820   4.066   7.212  2.7685  0.2451  0.1388
  972TIP3    H224552   6.813   3.918   7.243 -0.7674  0.1767 -0.6288
  973TIP3   OH224553   0.395   4.203   7.642 -0.1914 -0.4336 -0.3135
  973TIP3    H124554   0.373   4.267   7.574  1.0497  1.8421  1.3092
  973TIP3    H224555   0.367   4.244   7.724  1.6052 -1.4992  0.8923
  974TIP3   OH224556   4.748   2.082   6.534  0.2281  0.4151  0.1807
  974TIP3    H124557   4.772   2.143   6.464  1.0879  0.8244  0.8241
  974TIP3    H224558   4.713   2.137   6.604 -0.5668  0.0129  0.1139
  975TIP3   OH224559   5.516   2.975   6.327  0.1137  0.4076  0.1633
  975TIP3    H124560   5.442   3.011   6.376 -0.8485 -0.6649 -0.4479
  975TIP3    H224561   5.545   2.899   6.378  1.2750  1.2147  0.7610
  976TIP3   OH224562   1.320   5.588   0.301  0.1564  0.4449 -0.8835
  976TIP3    H124563   1.395   5.586   0.241 -0.3316  1.1429 -1.5262
  976TIP3    H224564   1.301   5.496   0.319  0.8271  0.2544 -1.1415
  977TIP3   OH224565   1.676   2.168   0.615 -0.0371  0.7192 -0.2521
  977TIP3    H124566   1.582   2.180   0.604 -0.1063  0.3939 -0.0132
  977TIP3    H224567   1.704   2.241   0.670 -0.6896 -0.8958  2.3732
  978TIP3   OH224568   4.027   0.223   0.201  0.4638  0.2444 -0.3730
  978TIP3    H124569   3.986   0.137   0.193 -0.9735  0.8494  0.2182
  978TIP3    H224570   4.038   0.236   0.296 -0.5008  1.2285 -0.3790
  979TIP3   OH224571   3.874   0.677   6.986 -0.2673  0.1834  0.2198
  979TIP3    H124572   3.808   0.646   6.924 -1.0498 -0.1468  1.2011
  979TIP3    H224573   3.853   0.633   7.068  1.0254  0.2745  0.6221
  980TIP3   OH224574   1.185   3.687   6.712  0.2902  0.9150  0.0230
  980TIP3    H124575   1.125   3.618   6.685 -0.5220  1.5138  0.2655
  980TIP3    H224576   1.141   3.768   6.687  0.4383  1.4073  1.2946
  981TIP3   OH224577   6.273   1.102   7.137 -0.1044  0.8136 -0.1285
  981TIP3    H124578   6.347   1.138   7.185 -0.5540  2.3060 -0.5018
  981TIP3    H224579   6.215   1.067   7.205  0.9005 -0.3395  0.1647
  982TIP3   OH224580   4.053   6.818   6.366  0.3585  0.1904  0.1370
  982TIP3    H124581   4.023   6.850   6.280 -1.8483  2.2585  1.5228
  982TIP3    H224582   3.972   6.795   6.412  1.3808  0.2140  2.0494
  983TIP3   OH224583   1.959   2.935   1.788  0.3231 -0.8013  0.1315
  983TIP3    H124584   1.962   3.025   1.754 -0.9765 -1.0042 -0.5737
  983TIP3    H224585   2.011   2.938   1.869  0.7387  0.4531 -0.1603
  984TIP3   OH224586   2.534   1.806   1.255  0.0612 -0.4613 -0.7001
  984TIP3    H124587   2.458   1.864   1.255  0.0889 -0.4036  0.4155
  984TIP3    H224588   2.529   1.761   1.339  2.0052  0.5483  0.0162
  985TIP3   OH224589   4.989   5.680   7.386 -0.0799  0.2004 -0.6990
  985TIP3    H124590   5.022   5.768   7.365 -0.0037  0.3188 -0.1025
  985TIP3    H224591   5.065   5.623   7.372 -0.5738 -0.0366 -2.7744
  986TIP3   OH224592   5.804   3.012   2.178 -0.0281  0.2751 -0.0492
  986TIP3    H124593   5.715   3.033   2.204 -0.2498  0.6928 -1.0936
  986TIP3    H224594   5.860   3.057   2.242 -0.5542 -0.1367  0.7162
  987TIP3   OH224595   2.180   1.211   6.969 -0.4439 -0.0168  0.0629
  987TIP3    H124596   2.246   1.149   6.939  0.5339  1.9186 -2.1507
  987TIP3    H224597   2.099   1.181   6.927  0.1222  0.4378 -1.4035
  988TIP3   OH224598   0.727   5.242   8.438 -0.0518 -0.5076 -0.1976
  988TIP3    H124599   0.815   5.204   8.443  0.2418  0.0765 -0.7936
  988TIP3    H224600   0.678   5.182   8.382 -0.4563 -1.6000  1.2681
  989TIP3   OH224601   3.809   5.769   1.409 -0.1195  0.0071  0.1557
  989TIP3    H124602   3.901   5.757   1.386 -0.1980 -1.3103  0.4797
  989TIP3    H224603   3.782   5.685   1.446 -2.0150 -0.3021 -1.7991
  990TIP3   OH224604   4.466   3.591   0.375 -0.3141 -0.4900  0.0458
  990TIP3    H124605   4.506   3.530   0.437  1.1953 -0.1555 -0.5435
  990TIP3    H224606   4.488   3.556   0.288 -1.1039 -0.1455 -0.3096
  991TIP3   OH224607   3.651   2.916   1.981 -0.2723 -0.1871  0.3527
  991TIP3    H124608   3.682   2.904   2.071 -0.5043  0.6238  0.5590
  991TIP3    H224609   3.569   2.964   1.991 -0.9889 -1.2670 -0.2382
  992TIP3   OH224610   3.668   4.364   1.211  0.0137  0.2393  0.5574
  992TIP3    H124611   3.617   4.307   1.155  2.1019  0.0484 -1.2997
  992TIP3    H224612   3.734   4.307   1.250 -0.2932  0.7085  1.8058
  993TIP3   OH224613   0.013   6.787   0.532  0.0935  0.1431  0.4846
  993TIP3    H124614   0.101   6.756   0.513  0.3160  0.6979  0.5952
  993TIP3    H224615   0.007   6.783   0.628 -0.0985 -0.1509  0.4615
  994TIP3   OH224616   5.873   0.905   7.347  0.2777 -0.4104 -0.5538
  994TIP3    H124617   5.836   0.860   7.423 -1.6987  2.9804  0.7491
  994TIP3    H224618   5.812   0.886   7.275  0.6672 -1.4645 -0.6207
  995TIP3   OH224619   1.721   4.481   6.813  0.7183 -0.1821 -0.3595
  995TIP3    H124620   1.742   4.519   6.729 -0.1003 -2.2204 -1.5768
  995TIP3    H224621   1.797   4.427   6.835  0.2934 -0.8958 -0.6002
  996TIP3   OH224622   1.128   2.368   2.290  0.2738 -0.5429 -0.1424
  996TIP3    H124623   1.045   2.328   2.264  0.2065  0.2961 -1.3298
  996TIP3    H224624   1.181   2.295   2.321 -2.0355 -0.7786  4.1608
  997TIP3   OH224625   4.012   5.701   0.603 -0.3813 -0.5515  0.2334
  997TIP3    H124626   4.083   5.721   0.542  0.9249 -0.7969  1.6117
  997TIP3    H224627   3.938   5.676   0.548  0.9178 -1.2996 -1.2132
  998TIP3   OH224628   0.893   0.137   1.563 -0.0150  0.2565 -0.0080
  998TIP3    H124629   0.879   0.076   1.635 -2.3266  2.5136  1.6437
  998TIP3    H224630   0.961   0.197   1.595  1.0568 -0.4128 -0.9520
  999TIP3   OH224631   4.132   4.984   0.951  0.5030  0.1619 -0.4548
  999TIP3    H124632   4.201   4.957   1.011  0.5714  0.8003 -0.2384
  999TIP3    H224633   4.174   5.047   0.893 -0.5004  2.6965  1.3871
 1000TIP3   OH224634   4.044   6.205   0.068 -0.2436 -0.3172  0.2794
 1000TIP3    H124635   4.110   6.162   0.013 -0.4043 -0.2881  0.0609
 1000TIP3    H224636   4.093   6.265   0.123 -0.0062 -0.8579  0.6567
 1001TIP3   OH224637   2.163   4.629   7.952 -0.3792 -0.2186 -0.2725
 1001TIP3    H124638   2.072   4.622   7.980 -0.4944  0.8171 -0.3448
 1001TIP3    H224639   2.182   4.545   7.910 -0.7934 -1.0610  1.1674
 1002TIP3   OH224640   5.531   1.719   1.220 -0.1761  0.6917  0.7002
 1002TIP3    H124641   5.538   1.681   1.132  0.3714 -0.3212  1.1608
 1002TIP3    H224642   5.566   1.808   1.211  0.7501  0.2734  0.0889
 1003TIP3   OH224643   4.892   3.577   7.407 -0.4093 -0.1900  0.3371
 1003TIP3    H124644   4.903   3.598   7.500  0.6356  0.4093  0.0906
 1003TIP3    H224645   4.978   3.548   7.378 -0.0155  2.0805 -1.0439
 1004TIP3   OH224646   0.814   3.552   7.748 -0.1139  0.2769  0.0796
 1004TIP3    H124647   0.847   3.579   7.663 -0.9347 -1.0941 -0.7290
 1004TIP3    H224648   0.822   3.629   7.803  0.5809  1.1554 -1.2006
 1005TIP3   OH224649   5.424   6.301   7.269 -0.0436 -0.6363 -0.8042
 1005TIP3    H124650   5.414   6.253   7.351 -1.4956 -0.0140 -0.5882
 1005TIP3    H224651   5.351   6.270   7.214 -1.1999  1.4426 -0.5626
 1006TIP3   OH224652   3.859   1.561   0.271  0.0560 -0.6470 -0.6275
 1006TIP3    H124653   3.945   1.540   0.308  0.6440  1.4440 -0.6596
 1006TIP3    H224654   3.875   1.575   0.178 -0.0658  0.8069 -0.4572
 1007TIP3   OH224655   2.879   6.036   8.482 -0.6142  0.2499 -0.1555
 1007TIP3    H124656   2.794   6.079   8.468 -0.5231  0.3624 -0.3680
 1007TIP3    H224657   2.891   5.981   8.404 -1.1565 -0.8799  0.5281
 1008TIP3   OH224658   4.861   6.737   6.565 -0.2455 -0.1170 -0.4031
 1008TIP3    H124659   4.926   6.800   6.596 -2.1657  1.4938  0.6146
 1008TIP3    H224660   4.832   6.771   6.481  0.2570 -0.8803 -0.8996
 1009TIP3   OH224661   1.521   1.069   7.634 -0.2115  0.3364  0.4120
 1009TIP3    H124662   1.580   1.018   7.689 -0.6680  0.0406  0.6272
 1009TIP3    H224663   1.436   1.066   7.679 -0.9359 -1.0342 -0.9437
 1010TIP3   OH224664   2.831   3.858   8.448  0.1121  0.0256 -0.0396
 1010TIP3    H124665   2.914   3.818   8.475 -0.0349  0.0394  0.4447
 1010TIP3    H224666   2.858   3.934   8.396  0.4042 -0.0447  0.0040
 1011TIP3   OH224667   5.967   6.825   6.209 -0.3419  0.6644  0.2837
 1011TIP3    H124668   6.004   6.851   6.125 -1.3275  1.1065 -0.0158
 1011TIP3    H224669   6.044   6.799   6.261  0.1284 -2.7230 -1.7447
 1012TIP3   OH224670   3.768   1.239   7.011  0.2551 -0.0872 -0.0946
 1012TIP3    H124671   3.841   1.302   7.011  2.1206 -2.1409  0.3146
 1012TIP3    H224672   3.741   1.234   6.919  0.5786  0.7152 -0.2496
 1013TIP3   OH224673   2.399   5.263   6.990 -0.1634 -0.0010 -0.9253
 1013TIP3    H124674   2.482   5.215   6.999 -0.9358 -1.1834  0.2171
 1013TIP3    H224675   2.418   5.330   6.924  1.8241  0.0462 -0.3916
 1014TIP3   OH224676   4.490   2.927   0.197  0.5277 -0.0677  0.3453
 1014TIP3    H124677   4.569   2.911   0.248  1.0898  2.4293  0.3496
 1014TIP3    H224678   4.456   3.010   0.229 -1.8326 -0.8063 -0.0267
 1015TIP3   OH224679   5.509   6.214   8.551 -0.1054 -0.2415 -0.0897
 1015TIP3    H124680   5.474   6.256   8.473 -0.3928  0.5463  0.4464
 1015TIP3    H224681   5.596   6.182   8.525  0.9454  2.3538 -0.0241
 1016TIP3   OH224682   1.909   2.137   1.488 -0.1300  0.4848 -0.3686
 1016TIP3    H124683   1.822   2.122   1.453  0.1161 -0.6747 -0.5196
 1016TIP3    H224684   1.896   2.144   1.583 -0.0991 -2.6462 -0.0325
 1017TIP3   OH224685   2.794   1.169   7.926  0.0655 -0.2426  0.4372
 1017TIP3    H124686   2.702   1.180   7.947  0.0027  0.3918 -0.1753
 1017TIP3    H224687   2.839   1.231   7.983 -0.1213  1.6415 -1.3595
 1018TIP3   OH224688   1.195   0.355   8.056  0.0191  0.2114  1.0473
 1018TIP3    H124689   1.139   0.333   8.131  0.2340  3.0065  2.1687
 1018TIP3    H224690   1.138   0.405   7.998  0.1716 -0.9471 -0.1408
 1019TIP3   OH224691   5.924   4.605   6.380  0.5576  0.3122 -0.2341
 1019TIP3    H124692   5.925   4.665   6.454  2.2233  0.8501 -0.6507
 1019TIP3    H224693   5.847   4.631   6.329 -0.9962 -0.5036  1.5988
 1020TIP3   OH224694   1.240   3.815   1.938 -1.0879 -0.2398  0.6377
 1020TIP3    H124695   1.333   3.834   1.934 -0.7447 -1.8249 -1.9481
 1020TIP3    H224696   1.227   3.771   2.022  0.1978  1.1978  1.6188
 1021TIP3   OH224697   2.540   5.744   1.730  0.1201 -0.0328 -0.1410
 1021TIP3    H124698   2.614   5.793   1.767  0.2691 -0.6197  0.3550
 1021TIP3    H224699   2.503   5.803   1.664 -0.9860  1.5848  1.8340
 1022TIP3   OH224700   6.800   1.030   8.010  0.0355 -0.7845  0.1203
 1022TIP3    H124701   6.735   1.084   8.055  1.5703  1.6579 -0.4358
 1022TIP3    H224702   6.883   1.075   8.023  1.2939 -2.5762 -1.1170
 1023TIP3   OH224703   5.212   2.714   6.881 -0.3217  0.2773 -0.2374
 1023TIP3    H124704   5.122   2.683   6.874 -0.6180  1.2724 -0.9710
 1023TIP3    H224705   5.253   2.689   6.798  0.1730 -0.4324  0.2073
 1024TIP3   OH224706   1.469   5.615   8.308  0.0577  0.0279  0.0467
 1024TIP3    H124707   1.413   5.555   8.359 -0.4874 -0.7821 -1.4343
 1024TIP3    H224708   1.445   5.597   8.217  1.6883  0.7506 -0.5473
 1025TIP3   OH224709   4.503   1.624   2.760 -0.1699 -0.2464 -0.1553
 1025TIP3    H124710   4.550   1.689   2.708 -1.6134  0.8424 -0.1759
 1025TIP3    H224711   4.478   1.557   2.696 -2.3071  1.2879 -1.1037
 1026TIP3   OH224712   1.530   6.467   7.965 -0.1457  0.0015 -0.1082
 1026TIP3    H124713   1.464   6.516   7.915  0.3926  0.3705 -0.4757
 1026TIP3    H224714   1.488   6.447   8.048 -0.2874  1.3723  0.1816
 1027TIP3   OH224715   2.508   0.940   8.277  0.3054  0.1614  1.0265
 1027TIP3    H124716   2.556   1.023   8.269  0.6979 -0.0502  1.1348
 1027TIP3    H224717   2.461   0.949   8.360 -0.7898  0.8417  0.3530
 1028TIP3   OH224718   5.618   0.075   8.643  0.7901  0.0387 -0.0589
 1028TIP3    H124719   5.579   0.159   8.666 -0.1331 -0.6042  0.8254
 1028TIP3    H224720   5.544   0.014   8.641  1.4607 -0.7854 -0.5407
 1029TIP3   OH224721   2.437   6.042   8.127 -0.1009 -0.1809  0.6035
 1029TIP3    H124722   2.436   5.985   8.050  0.3095  0.3198  0.2101
 1029TIP3    H224723   2.345   6.056   8.148 -0.2050 -0.8905  0.6352
 1030TIP3   OH224724   5.561   4.222   7.322  0.5118 -0.1793  0.1633
 1030TIP3    H124725   5.484   4.236   7.267  0.2997 -0.4811  0.3773
 1030TIP3    H224726   5.542   4.141   7.369  0.8077 -0.0670  0.4810
 1031TIP3   OH224727   1.503   5.227   7.794 -0.0732 -0.1260 -0.2683
 1031TIP3    H124728   1.472   5.137   7.790 -0.0057 -0.1747  0.2102
 1031TIP3    H224729   1.570   5.233   7.727  0.9303 -0.8325  0.6430
 1032TIP3   OH224730   3.269   0.927   6.706 -0.1940 -0.4033  0.4473
 1032TIP3    H124731   3.298   1.009   6.745 -0.4360 -0.8715  1.6523
 1032TIP3    H224732   3.296   0.860   6.768  1.4370 -1.4288 -1.2599
 1033TIP3   OH224733   5.051   2.392   8.064  0.3318 -0.1274 -0.1060
 1033TIP3    H124734   5.072   2.463   8.125  2.0687 -0.9153  0.2945
 1033TIP3    H224735   5.003   2.329   8.117  2.5664 -1.2011  0.7711
 1034TIP3   OH224736   6.683   3.147   8.026 -0.0911  0.5569  0.0815
 1034TIP3    H124737   6.758   3.122   7.973  0.2981  0.1126  0.8251
 1034TIP3    H224738   6.618   3.078   8.013  1.1640 -1.2354  2.5131
 1035TIP3   OH224739   2.158   1.276   1.611  0.3493 -0.1326  0.3847
 1035TIP3    H124740   2.221   1.345   1.634 -0.8080  0.8530  0.6920
 1035TIP3    H224741   2.107   1.313   1.539  1.4669 -1.7464 -1.3390
 1036TIP3   OH224742   6.152   2.277   0.580 -0.2362 -0.5581 -0.1110
 1036TIP3    H124743   6.125   2.347   0.520 -1.5604 -1.4126 -0.5568
 1036TIP3    H224744   6.134   2.311   0.667 -1.3052 -0.4915 -0.3435
 1037TIP3   OH224745   5.535   4.203   0.541  0.0095  0.3098  0.2204
 1037TIP3    H124746   5.490   4.173   0.462 -1.0826 -0.6091  1.1570
 1037TIP3    H224747   5.481   4.274   0.574  0.5679  0.8217  0.0619
 1038TIP3   OH224748   6.486   0.838   8.635 -0.6483 -0.3364 -0.3372
 1038TIP3    H124749   6.455   0.918   8.592 -2.4209 -0.1766  1.0966
 1038TIP3    H224750   6.568   0.864   8.677 -0.3499  0.2563 -1.2494
 1039TIP3   OH224751   4.947   3.679   7.769 -0.0567 -0.1054 -0.6119
 1039TIP3    H124752   4.931   3.618   7.841 -0.5010  0.9558  0.2223
 1039TIP3    H224753   5.033   3.655   7.736 -0.3071 -1.2980 -0.4298
 1040TIP3   OH224754   2.545   3.546   1.588  0.4893  0.4914 -0.4285
 1040TIP3    H124755   2.542   3.641   1.591  0.9121  0.5259  2.5636
 1040TIP3    H224756   2.453   3.519   1.577 -0.0842  1.3143  1.7866
 1041TIP3   OH224757   2.898   5.051   6.952  0.3614  0.0009  0.5350
 1041TIP3    H124758   2.844   4.976   6.974 -0.3911  0.5485  0.5675
 1041TIP3    H224759   2.959   5.018   6.886 -2.4908  0.2361 -2.4864
 1042TIP3   OH224760   5.636   1.341   1.095  0.1812  0.7432  0.0803
 1042TIP3    H124761   5.576   1.319   1.167 -0.2588  1.1037 -0.1708
 1042TIP3    H224762   5.604   1.426   1.063  0.3459  0.5611 -0.5685
 1043TIP3   OH224763   6.597   6.854   1.223 -0.1505  0.5581  0.2577
 1043TIP3    H124764   6.535   6.846   1.151 -0.7440  1.8972  0.5834
 1043TIP3    H224765   6.678   6.813   1.191 -0.7585  0.1010 -0.7169
 1044TIP3   OH224766   6.123   4.359   2.705 -0.5009  0.4205  0.7150
 1044TIP3    H124767   6.165   4.276   2.731 -0.3921  0.0590 -0.5474
 1044TIP3    H224768   6.144   4.368   2.612 -2.4468  0.6897  0.2589
 1045TIP3   OH224769   1.920   4.608   8.076 -0.1184 -1.0780  0.0023
 1045TIP3    H124770   1.883   4.667   8.141 -0.1526 -0.2677 -0.7196
 1045TIP3    H224771   1.845   4.578   8.025  0.1139  0.0479 -1.0476
 1046TIP3   OH224772   0.925   1.901   7.693 -0.2007  0.0103  0.0295
 1046TIP3    H124773   0.930   1.893   7.598 -0.5868 -1.3310  0.1031
 1046TIP3    H224774   0.896   1.815   7.723  0.8847  0.1042  1.4437
 1047TIP3   OH224775   6.783   4.924   1.580 -0.2836 -0.2212 -0.3289
 1047TIP3    H124776   6.839   4.850   1.557  1.1262  1.2511 -1.8938
 1047TIP3    H224777   6.732   4.893   1.655  2.5004 -1.7201  1.0865
 1048TIP3   OH224778   0.386   1.713   6.626 -0.6744  0.7857  0.0144
 1048TIP3    H124779   0.373   1.648   6.557 -0.4064  0.5001  0.2337
 1048TIP3    H224780   0.322   1.781   6.606 -0.4501  0.8110 -0.6439
 1049TIP3   OH224781   4.127   2.692   0.955  0.2666  0.7832  0.2058
 1049TIP3    H124782   4.142   2.599   0.971 -0.5442  0.8499  1.5327
 1049TIP3    H224783   4.035   2.706   0.980 -0.1861  1.5864 -1.6920
 1050TIP3   OH224784   3.246   2.140   8.665 -0.0442 -0.4458 -0.6420
 1050TIP3    H124785   3.160   2.109   8.640  0.2559 -1.6644 -0.2385
 1050TIP3    H224786   3.304   2.112   8.593  0.1555 -0.3843 -0.5072
 1051TIP3   OH224787   2.334   3.695   8.617 -0.4244 -0.5439 -0.1834
 1051TIP3    H124788   2.285   3.650   8.548  0.5428  0.2081 -1.4210
 1051TIP3    H224789   2.271   3.754   8.658 -0.5383  0.6731 -1.9864
 1052TIP3   OH224790   1.982   4.684   0.984 -0.4042 -0.1139 -0.6365
 1052TIP3    H124791   1.986   4.639   1.069  1.5694  1.1388 -0.0156
 1052TIP3    H224792   1.923   4.758   0.999 -0.6843 -0.3416 -0.5967
 1053TIP3   OH224793   0.690   6.259   8.055 -0.3568 -0.4038  0.1588
 1053TIP3    H124794   0.667   6.304   7.973 -0.7913 -1.2663 -0.2016
 1053TIP3    H224795   0.671   6.167   8.038  1.6103 -0.9123  0.4799
 1054TIP3   OH224796   3.680   4.304   7.933  0.2257 -0.4722 -0.2265
 1054TIP3    H124797   3.755   4.326   7.879 -0.1345  1.0639 -0.1665
 1054TIP3    H224798   3.611   4.364   7.904 -0.9635 -1.7667 -0.2096
 1055TIP3   OH224799   6.499   6.476   0.646  0.4183 -0.5246 -0.1261
 1055TIP3    H124800   6.557   6.409   0.610  1.5895  0.9207 -1.0447
 1055TIP3    H224801   6.423   6.476   0.588  0.7752 -0.5252 -0.6029
 1056TIP3   OH224802   0.846   0.111   7.799  0.2629  0.2676 -0.4846
 1056TIP3    H124803   0.785   0.093   7.872 -0.2466  1.5207 -0.5657
 1056TIP3    H224804   0.801   0.077   7.722  0.8187 -1.0968 -0.2264
 1057TIP3   OH224805   2.192   1.050   0.576  0.1514  0.2686  0.1462
 1057TIP3    H124806   2.173   1.114   0.508  0.0801  0.7756  0.6320
 1057TIP3    H224807   2.229   1.102   0.648  2.2665 -0.5297 -0.3080
 1058TIP3   OH224808   1.767   4.132   0.619  0.1197 -0.3997  0.4714
 1058TIP3    H124809   1.860   4.109   0.624 -0.0363 -1.6798 -1.5376
 1058TIP3    H224810   1.738   4.132   0.710  2.1639  0.5004  1.2045
 1059TIP3   OH224811   3.529   5.326   7.193 -0.3980 -0.0921 -0.3262
 1059TIP3    H124812   3.552   5.368   7.276 -0.7784 -2.6373  1.1745
 1059TIP3    H224813   3.434   5.337   7.186 -1.0073 -2.8916  1.5572
 1060TIP3   OH224814   2.326   3.842   2.080 -0.2793 -0.1580  0.1707
 1060TIP3    H124815   2.247   3.888   2.049  0.1528  0.9488  0.6350
 1060TIP3    H224816   2.354   3.894   2.156  1.1234 -0.2978 -0.2310
 1061TIP3   OH224817   2.331   2.771   7.890  0.1461  0.0841 -0.3429
 1061TIP3    H124818   2.375   2.778   7.805 -0.7982  1.5659 -0.7378
 1061TIP3    H224819   2.389   2.716   7.942  1.2154 -0.0691 -1.6386
 1062TIP3   OH224820   1.111   6.625   7.706  0.5901  0.5774  0.7355
 1062TIP3    H124821   1.131   6.670   7.624 -0.2530 -0.4745 -0.0824
 1062TIP3    H224822   1.017   6.638   7.718  0.4132 -0.5521  0.7069
 1063TIP3   OH224823   4.005   2.429   7.920 -0.1967  0.0218  0.4076
 1063TIP3    H124824   4.097   2.437   7.944  0.0473 -1.4796  0.0949
 1063TIP3    H224825   3.962   2.501   7.965  1.1732  0.9432  0.2966
 1064TIP3   OH224826   2.015   3.998   0.640 -0.2580 -0.2561  0.1871
 1064TIP3    H124827   2.036   3.957   0.556  0.7043  0.3459  0.1064
 1064TIP3    H224828   2.095   4.047   0.663 -1.3323  1.5433  0.2764
 1065TIP3   OH224829   2.573   0.899   0.935 -0.6436  0.1843 -0.2073
 1065TIP3    H124830   2.652   0.926   0.981 -1.1161  0.5002  0.4206
 1065TIP3    H224831   2.569   0.804   0.946 -0.6221  0.2300  0.1949
 1066TIP3   OH224832   5.215   5.721   6.999 -0.3219  0.0663  0.4512
 1066TIP3    H124833   5.234   5.773   7.077 -1.4361  1.4540 -0.1565
 1066TIP3    H224834   5.202   5.785   6.930 -0.2851 -1.1008 -0.6767
 1067TIP3   OH224835   6.252   5.148   7.555 -0.1222  0.1886 -0.4049
 1067TIP3    H124836   6.169   5.101   7.567 -0.3237  0.4972 -0.5783
 1067TIP3    H224837   6.273   5.135   7.462 -0.0789  0.2837 -0.4079
 1068TIP3   OH224838   4.716   2.524   0.426  0.0590  0.0152 -0.0669
 1068TIP3    H124839   4.690   2.483   0.509  1.0635  2.8526  1.7856
 1068TIP3    H224840   4.783   2.465   0.391  1.1750 -0.2358  2.2595
 1069TIP3   OH224841   2.274   5.266   0.192 -0.1043 -0.7639 -0.2178
 1069TIP3    H124842   2.262   5.203   0.263  0.3508 -1.2741 -0.5814
 1069TIP3    H224843   2.335   5.223   0.132 -1.1421 -0.7286 -1.3576
 1070TIP3   OH224844   3.632   0.878   7.403 -0.2139  0.1890 -0.3631
 1070TIP3    H124845   3.569   0.922   7.346  0.4817  1.0076 -0.5178
 1070TIP3    H224846   3.717   0.900   7.366  0.1883 -0.5276  0.1126
 1071TIP3   OH224847   5.961   1.411   8.280 -0.2147 -0.0418  0.3520
 1071TIP3    H124848   5.991   1.470   8.211 -2.8332  1.9591  0.7779
 1071TIP3    H224849   5.969   1.323   8.241  0.0522  0.8818 -1.8453
 1072TIP3   OH224850   2.445   3.596   7.881  0.0874  0.2654  0.7481
 1072TIP3    H124851   2.474   3.530   7.818 -2.0928 -0.5463  0.4895
 1072TIP3    H224852   2.484   3.570   7.964  0.1523 -0.7089  0.4211
 1073TIP3   OH224853   0.554   1.661   1.686  0.4007 -0.8724  0.3241
 1073TIP3    H124854   0.633   1.696   1.645  1.4301 -1.6123  1.5839
 1073TIP3    H224855   0.585   1.623   1.768 -0.7645 -3.7622 -0.4489
 1074TIP3   OH224856   4.926   2.513   7.851  0.0204 -0.0364  0.6315
 1074TIP3    H124857   4.870   2.578   7.892  0.4604  0.0148  1.1678
 1074TIP3    H224858   4.965   2.465   7.925  1.8196  0.8987  0.3452
 1075TIP3   OH224859   0.703   1.528   1.884  0.1108  0.2095  0.1971
 1075TIP3    H124860   0.666   1.460   1.940  2.0426 -1.2236 -0.1765
 1075TIP3    H224861   0.739   1.592   1.946  2.0508 -1.2638  0.6993
 1076TIP3   OH224862   6.698   5.213   7.267  0.1870 -0.0250  0.3678
 1076TIP3    H124863   6.722   5.305   7.273  0.6808  0.0065 -1.4785
 1076TIP3    H224864   6.699   5.182   7.358 -0.6073  1.9168  1.0869
 1077TIP3   OH224865   1.498   0.736   7.097 -0.3265  0.4147 -0.4492
 1077TIP3    H124866   1.460   0.823   7.113 -2.4814  0.0146 -2.6402
 1077TIP3    H224867   1.557   0.749   7.022 -1.0745 -0.0598 -1.1396
 1078TIP3   OH224868   1.207   1.691   7.939  0.0605  0.2244 -0.3622
 1078TIP3    H124869   1.162   1.773   7.960  1.1403  0.9818 -0.9267
 1078TIP3    H224870   1.137   1.634   7.905 -0.3905  1.6156 -1.8787
 1079TIP3   OH224871   6.796   0.253   1.938  0.3650 -0.3289  0.2227
 1079TIP3    H124872   6.887   0.261   1.966  0.0496  0.4482  1.0736
 1079TIP3    H224873   6.755   0.336   1.963 -0.4714 -0.4840 -0.5651
 1080TIP3   OH224874   1.291   3.492   1.169  0.4869  0.5382  0.3707
 1080TIP3    H124875   1.270   3.400   1.155  0.8409  0.4380  0.4917
 1080TIP3    H224876   1.206   3.537   1.162  0.0724  0.0313  1.8007
 1081TIP3   OH224877   3.937   1.998   0.812 -0.4170  0.6475  0.0503
 1081TIP3    H124878   3.955   1.904   0.823 -0.2081  0.9440  3.1576
 1081TIP3    H224879   4.013   2.031   0.764  0.4068 -0.4996  0.5055
 1082TIP3   OH224880   4.989   5.343   1.279  0.7797 -0.1663  0.4427
 1082TIP3    H124881   4.934   5.368   1.352 -0.2165 -0.8478 -0.0536
 1082TIP3    H224882   5.047   5.419   1.265 -0.4075  0.8008  0.6131
 1083TIP3   OH224883   3.763   3.037   0.547 -0.3054  0.5445  0.4816
 1083TIP3    H124884   3.841   3.090   0.530  0.0791 -0.1326  0.0856
 1083TIP3    H224885   3.725   3.074   0.627  1.1521  0.0601  1.4415
 1084TIP3   OH224886   1.382   2.997   1.837  0.0415 -0.1633  0.5980
 1084TIP3    H124887   1.459   2.970   1.887 -0.3572  1.4332  2.1671
 1084TIP3    H224888   1.314   3.014   1.903 -0.9301  0.6882 -0.5626
 1085TIP3   OH224889   1.506   1.583   2.355  0.4562  0.0528 -0.1129
 1085TIP3    H124890   1.455   1.552   2.280 -0.8408  1.3167  0.1905
 1085TIP3    H224891   1.451   1.563   2.431  0.9876  0.3322  0.3530
 1086TIP3   OH224892   1.392   6.341   8.619 -0.3326 -0.2666 -0.0546
 1086TIP3    H124893   1.443   6.383   8.688 -1.5608  1.6461 -0.2306
 1086TIP3    H224894   1.399   6.247   8.637  1.1055  0.0771  1.3907
 1087TIP3   OH224895   1.362   3.449   0.620  0.0928  0.1458  0.3716
 1087TIP3    H124896   1.353   3.451   0.716 -0.1518  0.1132  0.3492
 1087TIP3    H224897   1.301   3.516   0.589  2.5239  2.5565  0.4065
 1088TIP3   OH224898   5.949   3.411   1.767 -0.1656  0.5925  0.4748
 1088TIP3    H124899   5.984   3.489   1.724  1.6783 -0.3136  0.2563
 1088TIP3    H224900   5.942   3.436   1.859  2.1611  0.4872  0.7273
 1089TIP3   OH224901   2.360   2.726   1.417 -0.9131 -0.3251  0.3166
 1089TIP3    H124902   2.338   2.819   1.416 -1.7207 -0.5032  0.5468
 1089TIP3    H224903   2.400   2.710   1.331  0.2494  0.4495  0.6816
 1090TIP3   OH224904   5.738   5.818   1.373 -0.3812  0.6239  0.8406
 1090TIP3    H124905   5.827   5.854   1.368 -0.9278  1.8968 -0.2073
 1090TIP3    H224906   5.703   5.851   1.455  0.3805 -0.5826  1.6824
 1091TIP3   OH224907   6.195   0.681   0.343 -0.1276 -0.7464 -0.6882
 1091TIP3    H124908   6.178   0.596   0.304  1.6114 -0.6521 -1.7316
 1091TIP3    H224909   6.290   0.693   0.337 -0.0669  0.3880  1.3071
 1092TIP3   OH224910   4.674   1.607   7.624 -0.3385  0.0523  0.3290
 1092TIP3    H124911   4.718   1.679   7.579  1.0223 -1.4139 -0.8295
 1092TIP3    H224912   4.743   1.541   7.636 -2.0488 -2.0691 -0.9011
 1093TIP3   OH224913   1.671   6.356   7.718 -0.0991 -0.4821  1.0925
 1093TIP3    H124914   1.698   6.314   7.800  0.1262 -2.4370  0.0813
 1093TIP3    H224915   1.625   6.287   7.670 -0.8762  0.8410 -0.1274
 1094TIP3   OH224916   4.104   0.888   1.581  0.1603  0.1094 -0.0944
 1094TIP3    H124917   4.186   0.919   1.621  0.9719 -1.1550 -0.7200
 1094TIP3    H224918   4.041   0.890   1.653  1.6285 -2.2670  1.4351
 1095TIP3   OH224919   3.860   1.084   1.294  0.0291 -0.8276 -0.2644
 1095TIP3    H124920   3.856   1.153   1.227 -0.8012 -1.2279 -0.6300
 1095TIP3    H224921   3.810   1.118   1.368  1.3827 -0.1613  0.3897
 1096TIP3   OH224922   4.436   1.573   6.189  0.3182  0.1512 -0.3251
 1096TIP3    H124923   4.434   1.578   6.285 -1.7869 -0.5949 -0.2809
 1096TIP3    H224924   4.413   1.661   6.160  1.4929  0.5235 -0.1835
 1097TIP3   OH224925   6.490   3.535   1.408  0.9258 -0.4842  0.2121
 1097TIP3    H124926   6.457   3.461   1.458  1.1170 -0.5199  0.2857
 1097TIP3    H224927   6.531   3.496   1.331 -0.0248 -0.3920 -0.3541
 1098TIP3   OH224928   1.598   0.156   1.186 -0.4935  0.1602 -0.0828
 1098TIP3    H124929   1.654   0.141   1.110 -0.5789  2.2221 -0.6246
 1098TIP3    H224930   1.601   0.251   1.199 -1.0601 -0.0693  2.0637
 1099TIP3   OH224931   5.555   4.547   6.773 -0.5694  0.0594  0.0826
 1099TIP3    H124932   5.484   4.525   6.713  0.3006 -1.0580 -0.5736
 1099TIP3    H224933   5.599   4.464   6.790  0.6379  0.7330  0.3977
 1100TIP3   OH224934   0.149   3.335   7.346  0.4405 -0.3485  0.0044
 1100TIP3    H124935   0.073   3.298   7.300  2.0696 -2.5931 -1.0762
 1100TIP3    H224936   0.203   3.372   7.276  1.0176 -0.0142  0.6137
 1101TIP3   OH224937   1.497   1.464   0.465 -0.0023 -0.2908  0.4300
 1101TIP3    H124938   1.471   1.494   0.552  1.4925  1.5584  0.2896
 1101TIP3    H224939   1.491   1.542   0.410 -0.2067 -1.2660 -0.9839
 1102TIP3   OH224940   2.130   2.172   1.126 -0.4023 -0.5003 -0.3480
 1102TIP3    H124941   2.075   2.162   1.048  0.1428 -0.0390 -0.7974
 1102TIP3    H224942   2.211   2.125   1.104 -0.6278 -1.2117  0.3258
 1103TIP3   OH224943   1.485   6.865   1.330 -0.1434  0.2748 -0.0092
 1103TIP3    H124944   1.542   6.925   1.283  1.6942 -1.2371  0.1761
 1103TIP3    H224945   1.539   6.832   1.402 -1.8171  0.0631  1.2064
 1104TIP3   OH224946   3.170   0.992   0.024 -0.3614 -0.3033  0.1199
 1104TIP3    H124947   3.223   1.066   0.055  0.1669 -0.5201 -0.2509
 1104TIP3    H224948   3.113   1.030  -0.043  1.7733 -0.6780 -2.0538
 1105TIP3   OH224949   5.634   2.884   1.252  0.1273 -0.1393  0.3558
 1105TIP3    H124950   5.650   2.862   1.161 -1.7017 -0.4720  0.0735
 1105TIP3    H224951   5.607   2.802   1.293  1.9262 -0.2171  1.4759
 1106TIP3   OH224952   6.649   6.247   2.506 -0.4598  0.3255 -0.6909
 1106TIP3    H124953   6.734   6.261   2.464 -0.0818 -0.4041 -0.1804
 1106TIP3    H224954   6.593   6.315   2.468  0.2030  0.4772 -1.4343
 1107TIP3   OH224955   3.124   1.506   7.892 -0.4060  0.0607 -0.1266
 1107TIP3    H124956   3.156   1.547   7.811 -0.2713  0.5978  0.1934
 1107TIP3    H224957   3.182   1.539   7.960  1.1467 -2.4371 -0.1508
 1108TIP3   OH224958   6.246   6.808   6.947 -0.1342  0.5530 -0.1431
 1108TIP3    H124959   6.169   6.836   6.898 -0.8802 -0.8867  0.1353
 1108TIP3    H224960   6.306   6.882   6.943 -0.7781  1.0192 -1.9614
 1109TIP3   OH224961   3.456   5.128   7.441 -0.1580  0.0063  0.2338
 1109TIP3    H124962   3.491   5.055   7.493  0.6654  0.4069  0.2480
 1109TIP3    H224963   3.524   5.146   7.376  0.6041  2.1391  1.5317
 1110TIP3   OH224964   6.386   3.033   6.669 -0.7196  0.0801 -0.2794
 1110TIP3    H124965   6.312   2.972   6.670 -1.1346  0.4258  2.9669
 1110TIP3    H224966   6.346   3.118   6.651 -0.6166 -0.1292 -1.5748
 1111TIP3   OH224967   3.333   0.713   1.568  0.2368 -0.0371  0.1675
 1111TIP3    H124968   3.424   0.695   1.545  0.5613 -0.0992  1.4021
 1111TIP3    H224969   3.310   0.792   1.519  1.6739  1.2431  1.4516
 1112TIP3   OH224970   1.179   6.885   7.131  0.1572 -0.6054 -0.3970
 1112TIP3    H124971   1.259   6.838   7.153 -1.1821 -2.5186  0.7515
 1112TIP3    H224972   1.121   6.817   7.096 -1.3819  0.4583 -0.0234
 1113TIP3   OH224973   6.008   0.804   0.515 -0.0058 -0.6774  0.1405
 1113TIP3    H124974   6.036   0.806   0.607 -0.4150  0.9343  0.2588
 1113TIP3    H224975   6.068   0.743   0.473  1.4659  0.0822  1.0777
 1114TIP3   OH224976   3.796   3.761   7.029  0.4239  0.0556  0.6515
 1114TIP3    H124977   3.773   3.792   6.941  0.7401 -0.4586  0.3805
 1114TIP3    H224978   3.868   3.699   7.014 -0.9351 -1.6957  1.0357
 1115TIP3   OH224979   1.305   0.576   7.809  0.5312 -0.2758  0.1943
 1115TIP3    H124980   1.330   0.612   7.724 -0.0497 -2.7572 -1.1489
 1115TIP3    H224981   1.388   0.548   7.848  0.8010  0.8714  0.4634
 1116TIP3   OH224982   2.337   4.116   1.052  0.2296  0.2093 -0.2087
 1116TIP3    H124983   2.344   4.031   1.095  1.7554 -0.2791 -1.3283
 1116TIP3    H224984   2.243   4.135   1.051 -0.4265 -2.5242 -1.8669
 1117TIP3   OH224985   2.484   5.046   2.092 -0.1082  0.2725  0.5895
 1117TIP3    H124986   2.549   5.082   2.033 -2.6944  0.0542 -2.7141
 1117TIP3    H224987   2.451   5.121   2.142  0.0603  1.0617 -0.4585
 1118TIP3   OH224988   4.214   0.010   7.122 -0.1415 -0.0746  0.1956
 1118TIP3    H124989   4.154   0.081   7.103  1.1621  0.9983 -0.0559
 1118TIP3    H224990   4.300   0.044   7.098  0.5024 -1.7795 -0.0252
 1119TIP3   OH224991   1.671   6.092   2.037 -0.0975 -0.5150  0.1896
 1119TIP3    H124992   1.680   6.184   2.012 -2.0136 -0.4217 -0.3373
 1119TIP3    H224993   1.635   6.095   2.126 -0.8445 -0.7284 -0.0982
 1120TIP3   OH224994   1.341   2.036   1.812  0.1071 -0.1787 -0.1155
 1120TIP3    H124995   1.294   2.008   1.891 -0.2454  1.6230  0.3383
 1120TIP3    H224996   1.380   2.120   1.836 -0.7061  0.8259 -2.1379
 1121TIP3   OH224997   4.620   3.984   0.892 -0.0740  0.1116  0.3545
 1121TIP3    H124998   4.709   3.995   0.857 -0.2532  0.5581  0.0292
 1121TIP3    H224999   4.634   3.953   0.981  0.4698  1.9362  0.9615
 1122TIP3   OH225000   4.917   1.151   0.556 -0.2144  0.1445  0.4084
 1122TIP3    H125001   4.854   1.200   0.607  0.8621 -0.3711  2.3356
 1122TIP3    H225002   4.867   1.077   0.520 -1.2065  1.0759 -0.1873
 1123TIP3   OH225003   3.679   1.740   1.898  0.9628  0.2255 -0.6827
 1123TIP3    H125004   3.757   1.761   1.949  0.4943  0.6310 -0.1267
 1123TIP3    H225005   3.712   1.730   1.808  1.7146 -0.0182 -0.3930
 1124TIP3   OH225006   1.150   0.603   1.841  0.4351  0.2432 -0.0556
 1124TIP3    H125007   1.126   0.530   1.898  0.8792  0.1200 -0.0228
 1124TIP3    H225008   1.123   0.681   1.888 -0.4365  0.0920 -0.2735
 1125TIP3   OH225009   4.021   6.734   6.840  0.2091  0.0423 -0.1766
 1125TIP3    H125010   3.996   6.641   6.837 -0.1384  0.0470  1.3405
 1125TIP3    H225011   3.939   6.781   6.831 -0.3314  0.0781  3.3992
 1126TIP3   OH225012   4.454   2.063   8.415  0.3590  0.1736  0.7383
 1126TIP3    H125013   4.519   2.130   8.395  1.1835 -0.8367 -0.0668
 1126TIP3    H225014   4.478   1.988   8.360 -2.0045  0.0679 -0.2485
 1127TIP3   OH225015   6.127   1.213   8.572  0.6435  0.3389  0.4066
 1127TIP3    H125016   6.175   1.192   8.492 -0.2581  0.5538 -0.1991
 1127TIP3    H225017   6.063   1.278   8.546 -0.8993 -0.9239  0.8862
 1128TIP3   OH225018   2.086   4.212   8.322 -0.0301  0.3056  0.0567
 1128TIP3    H125019   2.037   4.138   8.285  1.0193 -0.1604 -0.4548
 1128TIP3    H225020   2.029   4.247   8.390 -0.9408 -0.3998 -0.3214
 1129TIP3   OH225021   5.061   3.785   1.673 -0.0286 -0.2179 -0.5090
 1129TIP3    H125022   5.005   3.786   1.750  1.3303  1.2189  0.5272
 1129TIP3    H225023   5.001   3.778   1.599 -1.6153  1.6300  0.5275
 1130TIP3   OH225024   2.530   5.775   0.886  0.6137 -0.0198  0.4052
 1130TIP3    H125025   2.537   5.776   0.981  1.5365 -0.3682  0.3506
 1130TIP3    H225026   2.620   5.782   0.855  0.3361 -0.0798 -0.4461
 1131TIP3   OH225027   6.618   2.686   0.023 -0.0295 -0.2095  0.9203
 1131TIP3    H125028   6.628   2.779   0.003 -1.0258  0.2394  2.3243
 1131TIP3    H225029   6.645   2.640  -0.057  1.3862  1.2428  0.5330
 1132TIP3   OH225030   5.930   6.545   6.710 -0.0956 -0.2034 -0.8452
 1132TIP3    H125031   5.973   6.619   6.667 -0.7905  0.5741 -0.2260
 1132TIP3    H225032   5.999   6.479   6.717  0.2865  0.0052 -2.2644
 1133TIP3   OH225033   2.185   5.490   7.647  0.3194  0.0206 -0.8670
 1133TIP3    H125034   2.178   5.460   7.556 -0.2388 -1.0822 -0.4763
 1133TIP3    H225035   2.107   5.544   7.660  0.6495  0.5780 -1.1839
 1134TIP3   OH225036   4.395   1.216   8.410 -0.6421 -0.6696 -0.0378
 1134TIP3    H125037   4.345   1.176   8.339 -0.1531 -0.8659 -0.2813
 1134TIP3    H225038   4.478   1.242   8.369 -0.7167  0.0443  0.2585
 1135TIP3   OH225039   5.946   5.084   7.607 -0.1484  1.1736  0.3187
 1135TIP3    H125040   5.964   5.097   7.700  0.4743 -2.8285  0.9475
 1135TIP3    H225041   5.861   5.040   7.605  0.4802 -0.0645 -0.8227
 1136TIP3   OH225042   5.861   1.353   1.298  0.3137 -0.2118 -0.2551
 1136TIP3    H125043   5.825   1.350   1.210 -1.2232 -1.9099  0.3678
 1136TIP3    H225044   5.801   1.411   1.346  1.4872  1.2067 -0.4107
 1137TIP3   OH225045   5.592   6.340   0.118  0.0183  0.4940  0.3333
 1137TIP3    H125046   5.582   6.308   0.028  1.0960  3.2367 -0.8521
 1137TIP3    H225047   5.509   6.383   0.137 -0.2999 -0.2932  0.7894
 1138TIP3   OH225048   6.483   4.373   7.385  0.0400 -0.5502 -0.1364
 1138TIP3    H125049   6.517   4.286   7.366 -0.3087 -0.2465 -2.4263
 1138TIP3    H225050   6.452   4.368   7.476 -0.1582 -2.8449 -0.2907
 1139TIP3   OH225051   0.233   1.470   7.291  0.1920  0.2470  0.3883
 1139TIP3    H125052   0.248   1.385   7.250 -3.5292  0.1943 -1.2369
 1139TIP3    H225053   0.277   1.533   7.233 -0.6398 -0.2722 -0.8541
 1140TIP3   OH225054   5.852   0.257   6.933 -0.6008  0.6721 -0.1440
 1140TIP3    H125055   5.780   0.302   6.977  0.9535  2.0858  1.0724
 1140TIP3    H225056   5.921   0.323   6.925  0.3435 -0.4497 -1.8606
 1141TIP3   OH225057   5.083   4.105   8.396 -0.2176 -0.1661 -0.3261
 1141TIP3    H125058   5.149   4.049   8.356 -0.2060 -1.0548  0.8604
 1141TIP3    H225059   4.999   4.070   8.365 -0.1702  0.1462 -0.8114
 1142TIP3   OH225060   3.652   6.398   1.580  0.0331 -0.2770  0.1932
 1142TIP3    H125061   3.661   6.473   1.522 -1.9119  0.3203  0.5873
 1142TIP3    H225062   3.626   6.436   1.664 -1.0081 -1.3851  0.3928
 1143TIP3   OH225063   4.262   2.912   1.096 -0.4460 -0.5087 -0.1166
 1143TIP3    H125064   4.167   2.920   1.090 -0.3434  0.0669 -1.2095
 1143TIP3    H225065   4.287   2.860   1.020  0.2291  0.5060 -0.6105
 1144TIP3   OH225066   0.303   0.239   6.785  0.2719  0.5004 -0.0139
 1144TIP3    H125067   0.248   0.271   6.857  0.9401  0.1170  0.6779
 1144TIP3    H225068   0.389   0.225   6.825  0.3396 -0.8966 -0.5885
 1145TIP3   OH225069   0.640   0.441   1.108 -0.0908 -0.6288  0.1779
 1145TIP3    H125070   0.691   0.518   1.082 -0.9066 -0.1087  0.0818
 1145TIP3    H225071   0.670   0.422   1.197 -1.4339  1.1877  1.0827
 1146TIP3   OH225072   5.118   2.247   1.301  0.0921  0.5554  0.0820
 1146TIP3    H125073   5.083   2.202   1.378  0.4276 -0.7477 -0.4978
 1146TIP3    H225074   5.065   2.214   1.228  0.2659  1.2083 -0.3483
 1147TIP3   OH225075   2.229   1.397   2.045  0.1398  0.4745 -0.0182
 1147TIP3    H125076   2.193   1.352   2.122 -0.5841 -0.0174 -0.6381
 1147TIP3    H225077   2.153   1.419   1.992  0.5729  1.5648 -0.2053
 1148TIP3   OH225078   0.657   1.964   8.353 -0.2543  0.1161  0.1519
 1148TIP3    H125079   0.722   1.895   8.337 -2.0266 -1.7293  0.4710
 1148TIP3    H225080   0.639   1.959   8.447  0.2385  1.6586  0.3490
 1149TIP3   OH225081   1.299   5.917   2.235  0.5213 -0.2802 -0.7343
 1149TIP3    H125082   1.239   5.862   2.285  1.4343  1.7449  2.9633
 1149TIP3    H225083   1.243   5.977   2.186 -0.4571 -0.6698 -0.1193
 1150TIP3   OH225084   3.059   4.434   0.285  0.6222 -0.6113  0.3785
 1150TIP3    H125085   3.036   4.342   0.297 -1.0346 -0.3777 -0.6938
 1150TIP3    H225086   3.048   4.450   0.191 -0.5881  1.0380  0.7628
 1151TIP3   OH225087   4.974   4.309   7.766 -0.1413 -0.1059 -0.7702
 1151TIP3    H125088   4.900   4.315   7.826 -0.9040 -1.4059 -1.5451
 1151TIP3    H225089   4.938   4.333   7.681  0.3627 -0.5676 -1.1215
 1152TIP3   OH225090   4.907   2.395   8.581  0.6803  0.1050  0.3757
 1152TIP3    H125091   4.976   2.329   8.574  2.1554  1.5729  0.5105
 1152TIP3    H225092   4.829   2.345   8.607  1.9013 -1.4743  1.2124
 1153TIP3   OH225093   6.275   1.301   6.959 -0.4550  0.5498 -0.0753
 1153TIP3    H125094   6.276   1.223   7.014 -0.5641 -0.3831 -1.3328
 1153TIP3    H225095   6.221   1.364   7.006  0.0823  0.0752  1.2223
 1154TIP3   OH225096   1.035   2.932   1.160 -0.1128  0.0901 -0.4702
 1154TIP3    H125097   1.023   2.999   1.093  0.1746 -0.2205 -0.8377
 1154TIP3    H225098   1.031   2.979   1.243  3.2074  1.1276 -0.7559
 1155TIP3   OH225099   4.830   5.237   1.677  0.2553 -0.3383  0.1524
 1155TIP3    H125100   4.898   5.177   1.707  0.5114  0.2217  0.7132
 1155TIP3    H225101   4.758   5.180   1.649  1.0462 -0.9441 -0.6973
 1156TIP3   OH225102   5.656   4.669   7.251 -0.1947 -0.3726 -0.1008
 1156TIP3    H125103   5.589   4.734   7.273 -0.0805 -0.0965 -0.5653
 1156TIP3    H225104   5.738   4.709   7.281 -0.3500 -1.2163  1.5683
 1157TIP3   OH225105   3.213   1.208   2.147 -0.3318 -0.2110 -0.1181
 1157TIP3    H125106   3.308   1.215   2.155  0.2222 -2.5731 -2.9080
 1157TIP3    H225107   3.188   1.142   2.211  0.1522 -0.6587 -0.3851
 1158TIP3   OH225108   1.169   2.917   6.871  0.6022  0.5509 -0.4440
 1158TIP3    H125109   1.249   2.952   6.833  0.8591  2.3517  1.5155
 1158TIP3    H225110   1.138   2.987   6.929 -2.4016 -0.0763 -1.1104
 1159TIP3   OH225111   6.813   3.671   1.021 -0.1525 -0.3883  0.0069
 1159TIP3    H125112   6.854   3.730   0.959  1.8235 -2.3694 -0.7343
 1159TIP3    H225113   6.825   3.713   1.106 -0.5022  1.1085 -0.6569
 1160TIP3   OH225114   6.670   3.447   1.740 -0.1133 -0.8195 -0.0347
 1160TIP3    H125115   6.696   3.427   1.830 -2.1628 -1.2215  0.5333
 1160TIP3    H225116   6.658   3.362   1.699  1.2051 -0.6345 -0.8365
 1161TIP3   OH225117   0.183   0.138   1.039  0.3871 -0.2163  0.1504
 1161TIP3    H125118   0.254   0.201   1.050 -0.1914  0.9135 -1.9947
 1161TIP3    H225119   0.108   0.191   1.012 -0.1445 -1.7886 -1.6213
 1162TIP3   OH225120   3.742   2.993   1.021 -0.0140 -0.2081  0.2298
 1162TIP3    H125121   3.683   2.980   1.095  1.9272 -1.1355  1.7020
 1162TIP3    H225122   3.741   2.910   0.974 -0.3780  0.0003 -0.1372
 1163TIP3   OH225123   3.882   4.655   2.268 -0.2858  0.5553 -0.1838
 1163TIP3    H125124   3.965   4.633   2.310  0.3788  2.6522 -0.2499
 1163TIP3    H225125   3.902   4.732   2.215 -2.3317  1.3185  0.0412
 1164TIP3   OH225126   2.439   3.269   1.541 -0.1217 -0.1295  0.0398
 1164TIP3    H125127   2.455   3.310   1.626  1.2825  1.4280 -0.9033
 1164TIP3    H225128   2.344   3.272   1.530 -0.1626  1.7825  0.5641
 1165TIP3   OH225129   4.677   5.157   6.954  0.4203 -0.6992  0.3624
 1165TIP3    H125130   4.682   5.071   6.912  0.6779 -0.4807 -0.0611
 1165TIP3    H225131   4.588   5.188   6.935 -0.0171 -1.2834  1.3494
 1166TIP3   OH225132   4.224   3.684   1.987 -0.1104 -0.2628  0.1205
 1166TIP3    H125133   4.297   3.654   2.042 -0.3019  0.9938  1.0884
 1166TIP3    H225134   4.152   3.626   2.010 -0.0719 -0.0088  0.8904
 1167TIP3   OH225135   1.380   4.412   8.405  0.5394 -0.6662  0.2716
 1167TIP3    H125136   1.291   4.404   8.373  0.4464  0.4104  0.2091
 1167TIP3    H225137   1.381   4.495   8.453  1.1782 -1.2750  1.3715
 1168TIP3   OH225138   6.858   1.808   7.772  0.4171 -0.1630 -0.1777
 1168TIP3    H125139   6.909   1.873   7.820  0.3359  0.0138 -0.3311
 1168TIP3    H225140   6.921   1.764   7.715  0.1233  1.2249 -1.6545
 1169TIP3   OH225141   0.414   1.682   8.655  0.1396 -0.7365  0.0777
 1169TIP3    H125142   0.340   1.726   8.697  1.2230  1.9697 -0.6749
 1169TIP3    H225143   0.380   1.652   8.571  0.1047  1.5299 -0.7802
 1170TIP3   OH225144   1.362   1.967   6.719  0.2128 -0.1865 -0.2631
 1170TIP3    H125145   1.323   1.885   6.688  0.1066 -0.2208 -0.0427
 1170TIP3    H225146   1.369   1.956   6.814 -2.4002  1.1285  0.1664
 1171TIP3   OH225147   5.108   5.195   8.647 -0.2055  0.8221 -0.2361
 1171TIP3    H125148   5.182   5.177   8.590 -0.0890 -1.0059  0.4378
 1171TIP3    H225149   5.071   5.277   8.613 -0.0947 -0.1402 -2.8836
 1172TIP3   OH225150   5.906   0.791   1.438  0.0914  0.1209 -0.0354
 1172TIP3    H125151   5.829   0.812   1.491  0.6786 -0.6796  1.1636
 1172TIP3    H225152   5.972   0.854   1.466  0.7637 -1.0286  1.0580
 1173TIP3   OH225153   6.762   4.454   6.908 -0.1914 -0.5829 -0.2327
 1173TIP3    H125154   6.790   4.540   6.940  0.1226 -0.9307  0.4649
 1173TIP3    H225155   6.829   4.394   6.942 -0.2327 -1.0635 -0.9778
 1174TIP3   OH225156   5.149   1.910   1.859 -0.0942  1.0744 -0.0725
 1174TIP3    H125157   5.102   1.911   1.942  0.4436  0.6081  0.2407
 1174TIP3    H225158   5.187   1.823   1.853 -1.1842  0.6486 -1.4221
 1175TIP3   OH225159   6.095   3.304   7.281  0.5611 -0.1079 -0.3782
 1175TIP3    H125160   6.183   3.272   7.300  0.2912 -0.2530  0.6800
 1175TIP3    H225161   6.058   3.325   7.367  0.4197  2.2478 -0.9544
 1176TIP3   OH225162   1.532   2.806   2.641 -0.1629  0.1613 -0.3464
 1176TIP3    H125163   1.529   2.720   2.683  4.3791 -0.4930 -0.8665
 1176TIP3    H225164   1.559   2.788   2.551 -1.7994  2.0354 -1.2735
 1177TIP3   OH225165   1.714   1.412   0.807 -0.2145  0.2298  0.0316
 1177TIP3    H125166   1.629   1.392   0.768 -1.2540  1.4598  1.5395
 1177TIP3    H225167   1.698   1.414   0.901  1.3490  1.0828  0.3219
 1178TIP3   OH225168   1.637   2.904   1.452  0.3522  0.0105  0.0923
 1178TIP3    H125169   1.602   2.838   1.392  0.0620 -0.3491  0.6398
 1178TIP3    H225170   1.667   2.854   1.528  0.5849  0.4664  0.3070
 1179TIP3   OH225171   4.845   3.132   1.537 -0.5611 -0.5389  0.0252
 1179TIP3    H125172   4.907   3.063   1.514  0.7275  0.8266 -0.7918
 1179TIP3    H225173   4.777   3.126   1.469 -1.3485 -2.0091  0.8953
 1180TIP3   OH225174   5.000   4.348   6.783  0.0157 -0.3866  0.6997
 1180TIP3    H125175   5.029   4.428   6.825 -0.2798  0.0301  0.1374
 1180TIP3    H225176   4.909   4.339   6.810 -0.6279  0.6575 -0.9113
 1181TIP3   OH225177   2.105   0.972   7.866  0.0360  1.0741  0.2442
 1181TIP3    H125178   2.055   1.051   7.845 -1.8122 -0.4137 -1.3030
 1181TIP3    H225179   2.080   0.909   7.799  0.9231 -1.0604  1.8057
 1182TIP3   OH225180   0.244   5.726   1.669 -0.2838  0.5034  0.4685
 1182TIP3    H125181   0.265   5.819   1.672  0.8628  0.2787 -0.2861
 1182TIP3    H225182   0.328   5.681   1.674 -0.8822 -0.5524  2.2004
 1183TIP3   OH225183   1.373   3.760   1.302  0.2366  0.1574 -0.8150
 1183TIP3    H125184   1.330   3.765   1.387 -0.5962  0.7388 -1.2505
 1183TIP3    H225185   1.341   3.678   1.264 -1.2622  1.0171 -1.5101
 1184TIP3   OH225186   1.281   4.353   1.288 -0.5585  0.3051  0.4041
 1184TIP3    H125187   1.354   4.391   1.239 -0.1994 -0.8028  0.0333
 1184TIP3    H225188   1.203   4.375   1.236 -0.6203  2.1930  1.2285
 1185TIP3   OH225189   3.347   2.251   8.408  0.1945 -0.2338  0.0365
 1185TIP3    H125190   3.354   2.188   8.336 -1.9602 -2.3328  1.5043
 1185TIP3    H225191   3.269   2.302   8.388  1.3235  1.3282 -0.5892
 1186TIP3   OH225192   1.971   3.065   8.196 -0.0429  0.3910  0.0144
 1186TIP3    H125193   2.041   3.029   8.250 -0.2398  0.3468  0.2445
 1186TIP3    H225194   1.929   2.988   8.157 -0.2367  0.3910  0.2210
 1187TIP3   OH225195   2.395   6.786   1.047 -0.0949  0.3908  0.7982
 1187TIP3    H125196   2.332   6.837   0.997 -0.6141 -0.4110  0.6094
 1187TIP3    H225197   2.427   6.846   1.114 -2.5850  0.2815  2.2195
 1188TIP3   OH225198   5.401   1.156   8.360  0.2193 -0.4977  0.0053
 1188TIP3    H125199   5.334   1.101   8.400  0.3266 -0.1444  0.6771
 1188TIP3    H225200   5.484   1.116   8.386  0.3018  0.0743  0.6519
 1189TIP3   OH225201   1.096   3.844   7.275  0.4591 -0.0019 -0.0798
 1189TIP3    H125202   1.019   3.866   7.222 -1.1682 -1.7457  1.3938
 1189TIP3    H225203   1.105   3.917   7.336 -0.2429  0.0645 -0.0479
 1190TIP3   OH225204   4.081   6.779   1.081 -0.8414  0.6946 -0.2023
 1190TIP3    H125205   4.075   6.694   1.036  1.3316  1.2404 -1.6642
 1190TIP3    H225206   4.142   6.763   1.153 -1.5550  0.7068  0.4231
 1191TIP3   OH225207   6.578   0.634   1.287 -0.2062 -0.3538 -0.3789
 1191TIP3    H125208   6.605   0.570   1.353  1.1134  3.0202  2.6837
 1191TIP3    H225209   6.488   0.656   1.311  0.0150  0.3169 -0.1344
 1192TIP3   OH225210   0.856   6.363   1.983  0.0580 -0.1239 -0.5949
 1192TIP3    H125211   0.881   6.305   2.055 -0.3759 -0.0825 -0.4082
 1192TIP3    H225212   0.768   6.393   2.005 -0.1299 -0.2051 -1.2026
 1193TIP3   OH225213   2.885   5.195   7.190  0.0750  1.0908  0.1933
 1193TIP3    H125214   2.890   5.155   7.104 -4.2818 -1.3175  0.7649
 1193TIP3    H225215   2.878   5.289   7.173 -0.0587  0.7293 -2.0012
 1194TIP3   OH225216   2.762   4.805   1.086  0.1044  0.0023  0.7299
 1194TIP3    H125217   2.778   4.833   1.176  0.9176 -2.7112  1.4930
 1194TIP3    H225218   2.671   4.831   1.069  0.2570  1.4819  1.9113
 1195TIP3   OH225219   4.426   0.445   1.309 -0.2463 -0.0247  0.3740
 1195TIP3    H125220   4.448   0.538   1.320  1.1504 -0.2210 -0.4227
 1195TIP3    H225221   4.501   0.398   1.347  0.5629 -0.7521 -1.9050
 1196TIP3   OH225222   2.371   1.210   0.750  0.6857  0.5561 -0.6995
 1196TIP3    H125223   2.327   1.294   0.737  0.9127  0.6402 -0.9407
 1196TIP3    H225224   2.392   1.207   0.843  1.4776  1.1700 -0.8405
 1197TIP3   OH225225   1.918   2.068   7.810  0.5742 -0.5236  0.4296
 1197TIP3    H125226   1.909   2.162   7.796  0.9224 -0.4147  0.9243
 1197TIP3    H225227   1.870   2.051   7.891  1.2150 -0.6324  0.7942
 1198TIP3   OH225228   3.680   3.367   0.562  0.5164  0.3235  0.2596
 1198TIP3    H125229   3.688   3.303   0.633  0.6375  1.8005  1.6402
 1198TIP3    H225230   3.661   3.450   0.606 -0.2843  1.1458 -1.5077
 1199TIP3   OH225231   4.430   1.703   7.683 -0.1553  0.4942  0.4378
 1199TIP3    H125232   4.369   1.704   7.609  0.8937  1.0278 -0.4352
 1199TIP3    H225233   4.497   1.640   7.657  0.2857  0.7810  0.8812
 1200TIP3   OH225234   3.837   2.273   8.634  0.0443 -0.3014 -0.4832
 1200TIP3    H125235   3.915   2.290   8.582  0.5369 -2.7923 -0.6908
 1200TIP3    H225236   3.764   2.299   8.578  0.6574  2.6762 -0.0362
 1201TIP3   OH225237   2.847   4.708   8.135  0.3209  0.1613  0.1647
 1201TIP3    H125238   2.765   4.755   8.121 -1.3193 -1.9755  1.8080
 1201TIP3    H225239   2.901   4.767   8.187 -1.0073  0.8570  0.7960
 1202TIP3   OH225240   6.218   6.460   0.493  0.4203  0.2166 -0.7884
 1202TIP3    H125241   6.194   6.371   0.465  0.5042  0.1560 -0.6687
 1202TIP3    H225242   6.271   6.494   0.421  0.8886 -0.0505 -0.5747
 1203TIP3   OH225243   6.722   6.324   7.765  0.1255  0.0189 -0.6892
 1203TIP3    H125244   6.799   6.350   7.714  1.6850 -0.6149  1.1954
 1203TIP3    H225245   6.697   6.403   7.812  0.9548 -0.2459  0.2487
 1204TIP3   OH225246   2.511   6.817   6.747 -0.2220  0.0925  0.3382
 1204TIP3    H125247   2.506   6.910   6.727 -0.0835  0.1417  0.5385
 1204TIP3    H225248   2.464   6.775   6.675 -1.4484  0.3985  0.9319
 1205TIP3   OH225249   5.825   5.324   1.661 -0.4830 -0.0330  0.3361
 1205TIP3    H125250   5.772   5.369   1.727 -0.3088  1.0991 -0.2590
 1205TIP3    H225251   5.909   5.369   1.662  0.6512 -2.0445  1.5147
 1206TIP3   OH225252   1.400   2.814   1.101  0.9054 -0.2550  0.2262
 1206TIP3    H125253   1.359   2.767   1.173 -0.1557  1.0478  0.5136
 1206TIP3    H225254   1.332   2.821   1.035  1.2774  0.2332 -0.1113
 1207TIP3   OH225255   5.264   2.795   1.798  0.7042 -0.0996  0.0353
 1207TIP3    H125256   5.260   2.863   1.866 -2.0426 -1.0702  1.0155
 1207TIP3    H225257   5.231   2.716   1.842 -0.2108 -1.0144 -2.1496
 1208TIP3   OH225258   2.699   6.050   7.840  0.1334  0.0412 -0.1970
 1208TIP3    H125259   2.755   6.123   7.813 -1.8447  1.4191 -0.7524
 1208TIP3    H225260   2.631   6.045   7.774 -2.3947  0.6906  2.1769
 1209TIP3   OH225261   3.216   4.109   8.019 -0.0415  0.2428  0.4533
 1209TIP3    H125262   3.240   4.181   8.077 -0.6181  1.0402 -0.2689
 1209TIP3    H225263   3.299   4.078   7.982  0.1779  0.7694  0.5027
 1210TIP3   OH225264   3.922   6.189   1.469  0.2365 -0.3664 -0.3571
 1210TIP3    H125265   3.961   6.265   1.512  0.0231 -0.5611  0.1906
 1210TIP3    H225266   3.860   6.154   1.533 -1.2530  0.2453 -1.3953
 1211TIP3   OH225267   6.858   1.985   6.721  0.1659  0.0264 -0.4329
 1211TIP3    H125268   6.922   2.055   6.708  0.2962 -0.3639 -2.3020
 1211TIP3    H225269   6.773   2.028   6.713  0.0918  0.6235  2.4861
 1212TIP3   OH225270   6.209   3.079   1.098  0.0614  0.1533  0.6224
 1212TIP3    H125271   6.178   3.028   1.023 -1.9240  0.2940  1.2664
 1212TIP3    H225272   6.204   3.019   1.172 -0.3134  0.6692  1.0303
 1213TIP3   OH225273   4.135   5.646   0.232  0.0185 -0.8882 -0.6284
 1213TIP3    H125274   4.213   5.596   0.257  0.6697 -0.0256 -0.8524
 1213TIP3    H225275   4.148   5.732   0.273 -1.2110 -0.9741 -0.0107
 1214TIP3   OH225276   5.425   3.942   0.696 -0.1739  0.3329 -0.0069
 1214TIP3    H125277   5.474   3.903   0.769 -0.9733 -0.3891  0.1664
 1214TIP3    H225278   5.368   4.006   0.737 -1.1704 -0.6070  0.1186
 1215TIP3   OH225279   4.632   4.830   7.890 -0.0854 -0.0367  0.2538
 1215TIP3    H125280   4.615   4.752   7.942  0.0154 -0.0839  0.2143
 1215TIP3    H225281   4.555   4.838   7.833 -0.6353  0.5411  1.0578
 1216TIP3   OH225282   6.484   3.243   1.013  0.3143  0.1801  0.3221
 1216TIP3    H125283   6.522   3.166   0.972  0.5716 -0.0396  0.9715
 1216TIP3    H225284   6.394   3.219   1.031  0.3228  0.1264  0.2939
 1217TIP3   OH225285   2.198   0.020   7.227  0.2955  0.0459 -0.4279
 1217TIP3    H125286   2.212   0.115   7.219 -0.4616  0.1338 -0.7554
 1217TIP3    H225287   2.228  -0.000   7.316  0.2755  0.6291 -0.2810
 1218TIP3   OH225288   3.172   4.640   7.455  0.0756 -0.3325 -0.3141
 1218TIP3    H125289   3.235   4.707   7.478 -0.8260  0.2622  0.5243
 1218TIP3    H225290   3.087   4.684   7.461 -0.6114 -1.7455  1.1409
 1219TIP3   OH225291   1.814   6.089   1.791  0.4852  0.5241  0.0326
 1219TIP3    H125292   1.757   6.059   1.862  1.1028 -1.7594 -0.3538
 1219TIP3    H225293   1.754   6.118   1.722 -0.1477  0.7876  0.6887
 1220TIP3   OH225294   2.767   1.904   1.168  0.0342  0.7644 -0.2204
 1220TIP3    H125295   2.802   1.848   1.098 -0.9706  1.0588 -0.9715
 1220TIP3    H225296   2.688   1.859   1.198  0.8046  0.2967  1.2099
 1221TIP3   OH225297   2.437   3.521   0.319 -0.3071 -0.0875  0.0136
 1221TIP3    H125298   2.495   3.448   0.295 -0.2093 -0.3796  1.0930
 1221TIP3    H225299   2.383   3.486   0.390  2.1056  1.8586  3.0613
 1222TIP3   OH225300   4.600   6.839   8.387 -0.1459  0.6736  0.6796
 1222TIP3    H125301   4.635   6.927   8.400  1.3323 -0.1317  2.7178
 1222TIP3    H225302   4.640   6.787   8.456 -1.0475 -1.6047 -0.4106
 1223TIP3   OH225303   3.245   2.650   8.497 -0.1450 -0.5001 -0.3047
 1223TIP3    H125304   3.203   2.581   8.549 -0.5683  0.8620  1.2459
 1223TIP3    H225305   3.331   2.615   8.475 -1.1550 -2.3938 -1.4772
 1224TIP3   OH225306   4.430   3.308   8.437 -0.3324  0.7153  0.0064
 1224TIP3    H125307   4.349   3.326   8.391 -0.4293 -0.1411 -0.1728
 1224TIP3    H225308   4.439   3.380   8.500 -0.4005  1.6856 -1.0513
 1225TIP3   OH225309   0.669   3.862   0.226 -0.2201 -0.0636  0.1790
 1225TIP3    H125310   0.734   3.795   0.209  0.1878  1.0924 -3.8894
 1225TIP3    H225311   0.585   3.819   0.208 -0.2341 -0.2330  0.6149
 1226TIP3   OH225312   0.466   4.132   7.283  0.5777 -0.3437  0.2672
 1226TIP3    H125313   0.391   4.090   7.325  0.2449  1.4114  1.5401
 1226TIP3    H225314   0.446   4.127   7.189 -2.0454  1.5552  0.6120
 1227TIP3   OH225315   3.382   4.353   0.571  0.1999  0.4505 -0.2981
 1227TIP3    H125316   3.457   4.411   0.554  1.5337 -0.8616  0.8770
 1227TIP3    H225317   3.364   4.312   0.486  1.5635 -0.0652 -0.3579
 1228TIP3   OH225318   0.940   0.334   8.167  0.4390  0.0546  0.2219
 1228TIP3    H125319   0.956   0.421   8.132  1.0932 -0.5373 -1.0056
 1228TIP3    H225320   0.849   0.316   8.145  0.6172  0.0018 -0.4995
 1229TIP3   OH225321   5.818   1.042   6.389 -0.7526  0.2924 -0.1841
 1229TIP3    H125322   5.738   1.035   6.441 -0.4174 -3.4175  0.0932
 1229TIP3    H225323   5.801   0.990   6.310  2.1822 -3.1630  1.1898
 1230TIP3   OH225324   4.663   4.209   0.191 -0.1278 -0.0415 -0.1588
 1230TIP3    H125325   4.676   4.115   0.195  0.3195 -0.0072 -0.7143
 1230TIP3    H225326   4.576   4.220   0.153 -1.1616 -0.2484  1.9767
 1231TIP3   OH225327   0.851   5.298   7.041 -0.4592 -0.6943 -0.3227
 1231TIP3    H125328   0.855   5.353   7.119  2.0088 -0.0540 -0.8201
 1231TIP3    H225329   0.800   5.349   6.978 -0.2837 -0.0701  0.0324
 1232TIP3   OH225330   4.169   1.631   2.233 -0.1149  0.2442  0.0291
 1232TIP3    H125331   4.192   1.666   2.319 -0.6641  0.6425  0.0173
 1232TIP3    H225332   4.240   1.661   2.176  0.6064 -0.5955  0.4682
 1233TIP3   OH225333   6.876   1.659   0.835 -0.4736  0.6356  0.6451
 1233TIP3    H125334   6.838   1.741   0.804  2.4549  1.2554 -1.7869
 1233TIP3    H225335   6.882   1.604   0.757  0.5067 -0.6662  1.5950
 1234TIP3   OH225336   3.757   6.866   6.820 -0.6507  0.6220 -0.1672
 1234TIP3    H125337   3.729   6.890   6.731 -0.6319  0.9853 -0.0789
 1234TIP3    H225338   3.694   6.800   6.849 -0.4285  0.2165 -0.5971
 1235TIP3   OH225339   5.517   1.081   1.297  0.2663 -0.0317 -0.3583
 1235TIP3    H125340   5.489   1.121   1.380  0.7725  0.2811 -0.3373
 1235TIP3    H225341   5.608   1.055   1.312 -0.2312 -1.8489 -0.1245
 1236TIP3   OH225342   2.113   6.507   1.032  0.6887 -0.0580  0.2582
 1236TIP3    H125343   2.128   6.581   1.091  1.7292 -0.4428  0.4916
 1236TIP3    H225344   2.025   6.477   1.053  0.5140  0.7018  0.6214
 1237TIP3   OH225345   1.381   5.995   2.511  0.5080 -0.4940 -0.0203
 1237TIP3    H125346   1.368   5.975   2.418 -0.5168 -0.2578  0.0601
 1237TIP3    H225347   1.295   6.021   2.543  1.1282  0.8608  0.6676
 1238TIP3   OH225348   5.507   1.377   0.544 -0.2283  0.0978  0.5761
 1238TIP3    H125349   5.422   1.333   0.543  0.4612 -1.2816  0.4415
 1238TIP3    H225350   5.537   1.371   0.453  0.1178  0.3847  0.6720
 1239TIP3   OH225351   2.246   0.203   1.712  0.3983 -0.0284  0.8895
 1239TIP3    H125352   2.326   0.184   1.762 -0.6205 -1.9674  1.8870
 1239TIP3    H225353   2.175   0.186   1.773 -0.8565 -1.5333 -0.8904
 1240TIP3   OH225354   3.269   6.820   8.440  0.2322  0.5026 -0.1284
 1240TIP3    H125355   3.257   6.909   8.409  0.6214  0.6684  0.1880
 1240TIP3    H225356   3.214   6.766   8.382 -0.7397  1.0461  0.2664
 1241TIP3   OH225357   6.403   4.884   0.206 -0.3850  0.0013 -0.8887
 1241TIP3    H125358   6.347   4.837   0.145 -1.9073  0.5758  0.0217
 1241TIP3    H225359   6.351   4.891   0.286  1.3936 -0.3772  0.3600
 1242TIP3   OH225360   1.143   1.189   0.426 -0.3860  0.0064  0.1386
 1242TIP3    H125361   1.207   1.247   0.385 -0.1885 -0.6266 -0.4754
 1242TIP3    H225362   1.132   1.117   0.364 -1.5405 -0.0080  0.3267
 1243TIP3   OH225363   1.314   0.124   7.474 -0.0718  0.1812 -0.1127
 1243TIP3    H125364   1.335   0.200   7.527  1.4963 -0.4118  0.1812
 1243TIP3    H225365   1.399   0.081   7.459 -0.8433 -1.2125 -0.7051
 1244TIP3   OH225366   3.591   4.371   8.187  0.0378 -0.5463  0.2121
 1244TIP3    H125367   3.627   4.284   8.206  1.2943 -0.3943 -1.2230
 1244TIP3    H225368   3.620   4.389   8.097 -0.0328  1.4373  0.5558
 1245TIP3   OH225369   5.311   6.587   6.978 -0.2297  0.5149  0.2064
 1245TIP3    H125370   5.243   6.629   7.030 -0.0664  0.3903  0.5199
 1245TIP3    H225371   5.279   6.497   6.965 -0.9996  0.9477 -1.2002
 1246TIP3   OH225372   0.967   0.525   1.291 -0.1171  0.0229 -0.4241
 1246TIP3    H125373   0.945   0.571   1.210 -0.8582  1.5437  0.5846
 1246TIP3    H225374   0.992   0.595   1.352  1.7563 -1.1764  0.2846
 1247TIP3   OH225375   2.295   2.988   1.486 -0.2734 -0.4393 -0.9553
 1247TIP3    H125376   2.367   2.982   1.549  1.0106 -0.0934 -2.3514
 1247TIP3    H225377   2.259   3.076   1.499 -0.8284 -0.8088  0.1257
 1248TIP3   OH225378   5.586   0.289   6.515  0.4082  0.1157  0.7108
 1248TIP3    H125379   5.616   0.333   6.435  0.7917 -0.5124  0.4995
 1248TIP3    H225380   5.647   0.318   6.583  1.0344 -0.5539  0.4447
 1249TIP3   OH225381   6.864   6.337   0.068  0.4454  1.0173 -0.2921
 1249TIP3    H125382   6.885   6.419   0.112 -0.0028  0.5257  0.8946
 1249TIP3    H225383   6.769   6.339   0.058  0.3214  0.2537  0.5957
 1250TIP3   OH225384   4.685   3.731   7.701  0.3951 -0.0024  0.3204
 1250TIP3    H125385   4.779   3.721   7.688  0.4246 -0.7740  1.0130
 1250TIP3    H225386   4.673   3.823   7.722  0.5688  0.8942 -2.9624
 1251TIP3   OH225387   4.301   5.655   7.300  0.2968 -0.3878  0.1775
 1251TIP3    H125388   4.277   5.656   7.393 -0.4474  0.2065 -0.0095
 1251TIP3    H225389   4.351   5.736   7.288  1.5553 -1.1159  0.3374
 1252TIP3   OH225390   0.301   3.767   6.667  0.0369 -0.5730  0.6246
 1252TIP3    H125391   0.313   3.768   6.572 -1.5039  2.0386  0.3454
 1252TIP3    H225392   0.383   3.801   6.702  0.3799 -0.9454  0.1954
 1253TIP3   OH225393   6.755   0.279   0.240  0.1594  0.0612  0.3688
 1253TIP3    H125394   6.764   0.285   0.145 -0.4783 -0.1833  0.2856
 1253TIP3    H225395   6.819   0.213   0.267 -0.6635 -0.9581 -0.0828
 1254TIP3   OH225396   5.252   2.250   7.168  0.3312  0.5488 -0.3354
 1254TIP3    H125397   5.271   2.343   7.183 -0.4347  0.3307  2.5187
 1254TIP3    H225398   5.157   2.244   7.177  0.1958 -0.3325 -1.9899
 1255TIP3   OH225399   0.028   5.652   7.469  0.1842  0.5178  0.4863
 1255TIP3    H125400   0.095   5.585   7.483 -0.0364  0.0749 -0.4787
 1255TIP3    H225401  -0.020   5.655   7.552 -1.5171 -2.4674 -0.2469
 1256TIP3   OH225402   5.433   0.518   8.008  0.5599 -0.4007 -0.3129
 1256TIP3    H125403   5.357   0.461   8.022 -1.0613  1.9157  1.1212
 1256TIP3    H225404   5.418   0.558   7.923  2.2650 -2.7769 -1.8379
 1257TIP3   OH225405   5.253   5.292   0.196  0.2140 -0.0957 -0.5958
 1257TIP3    H125406   5.201   5.270   0.119 -1.6038  0.4303  0.4262
 1257TIP3    H225407   5.190   5.296   0.267  1.5286  1.4586  0.5523
 1258TIP3   OH225408   5.407   0.781   1.742 -0.0874 -0.4779  0.5125
 1258TIP3    H125409   5.401   0.698   1.789  1.0680 -2.2906 -2.2623
 1258TIP3    H225410   5.492   0.778   1.699 -0.3541  1.8177 -0.2793
 1259TIP3   OH225411   6.095   6.497   7.987 -0.3533  0.0376  0.0676
 1259TIP3    H125412   6.003   6.515   7.969 -0.4074  0.5404  0.7928
 1259TIP3    H225413   6.103   6.508   8.082  0.0759 -1.7409  0.2827
 1260TIP3   OH225414   1.473   2.304   1.841  0.1623 -0.7295  0.1304
 1260TIP3    H125415   1.484   2.358   1.919  0.1577 -0.1744 -0.2431
 1260TIP3    H225416   1.387   2.329   1.806  0.6994 -0.0171 -0.7511
 1261TIP3   OH225417   4.437   5.328   7.480 -0.0013 -0.1516 -0.1977
 1261TIP3    H125418   4.474   5.416   7.485  0.1536 -0.2602  0.9213
 1261TIP3    H225419   4.448   5.302   7.389 -0.7932  1.2954 -0.7434
 1262TIP3   OH225420   5.941   6.466   7.116 -0.4891 -0.4275 -0.4138
 1262TIP3    H125421   5.849   6.439   7.128 -0.3295 -0.1941  1.5189
 1262TIP3    H225422   5.987   6.383   7.100 -0.8476 -0.6726 -0.2064
 1263TIP3   OH225423   0.964   3.110   0.962  0.0259  0.0880  0.3000
 1263TIP3    H125424   0.994   3.127   0.873 -0.4957  2.3960  0.4966
 1263TIP3    H225425   0.873   3.081   0.952 -0.0119  0.2818  0.0874
 1264TIP3   OH225426   3.342   0.199   7.315  1.1875  0.2986  0.4357
 1264TIP3    H125427   3.436   0.214   7.303  1.3314 -0.5016  0.4935
 1264TIP3    H225428   3.309   0.186   7.226  0.8926  1.8140  0.2983
 1265TIP3   OH225429   6.576   0.891   0.347  0.2314  0.3939  0.1939
 1265TIP3    H125430   6.646   0.890   0.282  0.5771  0.7109  0.5544
 1265TIP3    H225431   6.519   0.818   0.322  0.2862  0.5937 -0.5376
 1266TIP3   OH225432   2.907   3.000   7.216  0.2642  0.1311 -0.0475
 1266TIP3    H125433   2.863   2.939   7.157  0.2030 -0.2658  0.3980
 1266TIP3    H225434   2.899   3.086   7.173 -0.6150  0.0053 -0.1596
 1267TIP3   OH225435   1.607   2.687   1.673  0.3107  0.2722  0.2682
 1267TIP3    H125436   1.554   2.627   1.620 -1.2043  0.2826  1.6917
 1267TIP3    H225437   1.689   2.640   1.689 -0.6736 -1.2850  1.0050
 1268TIP3   OH225438   5.073   0.525   8.170  0.1237  0.4868 -0.2476
 1268TIP3    H125439   5.145   0.511   8.231  0.9948 -1.1254 -1.5784
 1268TIP3    H225440   5.055   0.438   8.133 -0.5971  1.3367 -2.0194
 1269TIP3   OH225441   1.486   2.250   8.168 -0.0772  0.1490 -0.0300
 1269TIP3    H125442   1.550   2.248   8.239 -1.9266  0.6988  1.7392
 1269TIP3    H225443   1.520   2.316   8.108  1.4161 -0.1478  0.4268
 1270TIP3   OH225444   4.083   3.383   0.820  0.0428  0.3122  0.5967
 1270TIP3    H125445   4.172   3.389   0.786  0.2117 -1.8614  0.5048
 1270TIP3    H225446   4.027   3.408   0.746  0.5186 -0.5481 -0.0620
 1271TIP3   OH225447   5.948   4.686   8.583  0.6647 -0.1320 -0.5891
 1271TIP3    H125448   5.870   4.739   8.567  1.9867  2.0149 -0.1991
 1271TIP3    H225449   5.989   4.725   8.660  1.5907 -1.8783 -0.1496
 1272TIP3   OH225450   4.225   0.604   6.896  0.1764  0.0756 -0.1421
 1272TIP3    H125451   4.254   0.576   6.810  0.1564 -0.2822 -0.0364
 1272TIP3    H225452   4.186   0.691   6.882  2.0882  0.9807 -0.1397
 1273TIP3   OH225453   6.465   0.660   0.268  0.7776 -0.0867 -0.5952
 1273TIP3    H125454   6.477   0.653   0.173  0.7439 -0.8180 -0.5534
 1273TIP3    H225455   6.514   0.586   0.304  0.4604 -0.0481 -0.0715
 1274TIP3   OH225456   4.244   0.277   7.360 -0.2917 -0.3733 -0.3246
 1274TIP3    H125457   4.326   0.232   7.381 -0.0079  0.3530  0.1390
 1274TIP3    H225458   4.255   0.306   7.269  0.5416  0.9483  0.1742
 1275TIP3   OH225459   6.873   3.505   8.131  0.2985  0.4290 -0.0639
 1275TIP3    H125460   6.913   3.418   8.121  0.0611  0.4246 -1.0726
 1275TIP3    H225461   6.948   3.565   8.137  0.4608  0.2031  0.2153
 1276TIP3   OH225462   4.320   2.658   6.687  0.2082 -0.0006  0.1808
 1276TIP3    H125463   4.384   2.592   6.715 -0.3755 -1.2826 -1.3706
 1276TIP3    H225464   4.361   2.741   6.711  2.1574 -0.8059 -0.1080
 1277TIP3   OH225465   1.109   1.232   0.959 -0.3122 -0.1791 -0.1075
 1277TIP3    H125466   1.051   1.157   0.976 -1.6562  0.9092  0.2499
 1277TIP3    H225467   1.132   1.224   0.867  2.2536 -2.8310  0.5985
 1278TIP3   OH225468   1.133   5.827   0.248 -0.0716  0.0162 -0.4104
 1278TIP3    H125469   1.225   5.839   0.272 -0.4942  0.3919  1.1062
 1278TIP3    H225470   1.092   5.912   0.263 -1.2699 -0.8776  1.9192
 1279TIP3   OH225471   1.562   4.216   1.775 -0.0141 -0.2497  0.1768
 1279TIP3    H125472   1.583   4.206   1.868  0.1795  0.2585  0.1931
 1279TIP3    H225473   1.481   4.166   1.763  0.3946 -1.0001  0.4386
 1280TIP3   OH225474   1.865   5.164   8.269 -0.5776 -0.3342  0.3058
 1280TIP3    H125475   1.931   5.227   8.238  0.6055 -2.4891 -1.9917
 1280TIP3    H225476   1.781   5.206   8.252  0.1504  0.3452 -2.0571
 1281TIP3   OH225477   5.887   2.014   0.390 -0.0981 -0.4342 -0.0470
 1281TIP3    H125478   5.965   1.992   0.442  0.3159  1.3927  0.1659
 1281TIP3    H225479   5.814   2.002   0.450  0.2656  0.3574  0.5762
 1282TIP3   OH225480   5.249   3.545   1.364 -0.0062 -0.0835 -0.0587
 1282TIP3    H125481   5.200   3.587   1.293  2.4491  0.3177 -1.6524
 1282TIP3    H225482   5.310   3.613   1.394 -0.3000 -0.5803  1.7875
 1283TIP3   OH225483   2.904   4.128   7.119  0.1567 -0.3315  0.3736
 1283TIP3    H125484   2.824   4.080   7.098 -1.1452  1.4299  1.0768
 1283TIP3    H225485   2.912   4.194   7.050  1.0457 -0.5098  0.2885
 1284TIP3   OH225486   3.679   0.602   7.384  0.1943  0.0016 -0.0184
 1284TIP3    H125487   3.634   0.685   7.400 -1.4975 -0.9290  0.2979
 1284TIP3    H225488   3.745   0.622   7.318  0.7563  1.8721  1.0330
 1285TIP3   OH225489   1.695   0.501   1.723  0.3278  0.4909  0.4077
 1285TIP3    H125490   1.612   0.547   1.733  0.1804  0.0562  1.2871
 1285TIP3    H225491   1.692   0.430   1.788  1.2002  0.2042  0.1584
 1286TIP3   OH225492   1.133   5.657   0.493  0.2260 -0.0101 -0.1816
 1286TIP3    H125493   1.176   5.632   0.412  1.5594 -0.1504  0.5433
 1286TIP3    H225494   1.164   5.746   0.511  0.4492 -0.2125  0.4910
 1287TIP3   OH225495   4.538   6.830   1.291 -0.0976  0.0096  0.2186
 1287TIP3    H125496   4.608   6.854   1.231 -0.5947  1.7714  0.2869
 1287TIP3    H225497   4.572   6.755   1.339  1.3835  0.2837 -0.3537
 1288TIP3   OH225498   5.937   5.672   1.143  0.5161 -0.2136 -0.5395
 1288TIP3    H125499   6.016   5.619   1.128 -1.4339 -3.0807 -1.5117
 1288TIP3    H225500   5.925   5.719   1.061 -0.0381 -1.6054 -1.2795
 1289TIP3   OH225501   6.154   3.598   6.658 -0.2542  0.1954  0.3296
 1289TIP3    H125502   6.138   3.633   6.570 -1.0742  0.1002  0.4400
 1289TIP3    H225503   6.103   3.517   6.661 -0.8367  0.5889  1.1607
 1290TIP3   OH225504   5.586   3.435   6.632 -0.4848  0.0290  0.2682
 1290TIP3    H125505   5.612   3.493   6.704 -0.6817  2.4333 -1.4761
 1290TIP3    H225506   5.621   3.477   6.553 -1.2076 -1.9233 -1.1812
 1291TIP3   OH225507   1.347   2.724   7.437 -0.1268  0.0793  0.0777
 1291TIP3    H125508   1.365   2.768   7.520  0.1784  0.9428 -0.4396
 1291TIP3    H225509   1.275   2.664   7.457  0.7483 -0.6378  1.2630
 1292TIP3   OH225510   2.612   2.926   0.569  0.0254 -0.4297 -0.0538
 1292TIP3    H125511   2.628   2.861   0.499 -1.0570 -1.2285  0.4216
 1292TIP3    H225512   2.589   2.873   0.645  2.3966  0.3586  1.3070
 1293TIP3   OH225513   0.729   4.857   6.681  0.0491  0.0796  0.5700
 1293TIP3    H125514   0.810   4.823   6.644 -0.7153 -2.5649  1.1413
 1293TIP3    H225515   0.665   4.852   6.610 -0.2260 -0.2353  0.8398
 1294TIP3   OH225516   2.515   2.534   0.901  0.0610  0.3295  0.0128
 1294TIP3    H125517   2.557   2.448   0.902 -0.7336 -0.0675 -0.0552
 1294TIP3    H225518   2.452   2.528   0.829  0.4528  1.1942 -0.4173
 1295TIP3   OH225519   5.306   4.195   2.825 -0.6892  0.4752  0.6958
 1295TIP3    H125520   5.338   4.204   2.735 -1.1539  1.2060  0.5961
 1295TIP3    H225521   5.283   4.102   2.833  1.3105 -0.0446  0.7442
 1296TIP3   OH225522   0.098   6.389   8.109  0.0836  0.2116  0.2530
 1296TIP3    H125523   0.077   6.466   8.161 -0.9373 -0.5338  0.9881
 1296TIP3    H225524   0.018   6.336   8.112  0.8618 -1.0130  0.0137
 1297TIP3   OH225525   3.521   3.887   2.197 -0.4585 -0.4391  0.5102
 1297TIP3    H125526   3.430   3.870   2.222 -0.5599 -0.2074  0.2990
 1297TIP3    H225527   3.522   3.978   2.169 -0.4391 -0.7998 -0.7368
 1298TIP3   OH225528   1.117   1.761   0.253  0.2185  0.3399  0.1025
 1298TIP3    H125529   1.079   1.681   0.289 -0.2460  1.8108  3.2294
 1298TIP3    H225530   1.042   1.820   0.241  0.6945  0.7571 -0.9542
 1299TIP3   OH225531   2.325   6.585   6.980  0.2131 -0.2902 -0.0464
 1299TIP3    H125532   2.369   6.566   6.898 -0.0498  0.0470 -0.2681
 1299TIP3    H225533   2.394   6.584   7.046  0.1727 -2.6040  0.0764
 1300TIP3   OH225534   2.294   3.797   7.746  0.0215  0.6706 -0.2480
 1300TIP3    H125535   2.362   3.742   7.786  0.5284  0.8928 -0.8019
 1300TIP3    H225536   2.233   3.735   7.707 -1.3624  0.3498  2.1818
 1301TIP3   OH225537   1.766   3.576   7.428  0.0036 -0.2566 -0.1411
 1301TIP3    H125538   1.811   3.595   7.346 -1.7468 -0.8930 -1.3182
 1301TIP3    H225539   1.787   3.650   7.485  1.4036  0.1076 -1.0864
 1302TIP3   OH225540   3.723   6.799   8.660 -0.2356 -0.0700 -0.6493
 1302TIP3    H125541   3.648   6.747   8.690  0.5643 -1.0812 -0.3310
 1302TIP3    H225542   3.691   6.843   8.582 -1.0991 -0.6683 -0.6575
 1303TIP3   OH225543   2.934   4.293   8.235 -0.3741  0.2520 -0.4728
 1303TIP3    H125544   2.937   4.285   8.139  0.6873  2.3059 -0.6516
 1303TIP3    H225545   2.858   4.349   8.252 -0.0793  0.5742 -0.1890
 1304TIP3   OH225546   6.090   0.950   6.970 -0.0158  0.6250 -0.4801
 1304TIP3    H125547   6.085   0.876   7.030 -1.3984  0.9568 -0.1341
 1304TIP3    H225548   6.151   1.011   7.012  0.6314 -0.0339 -0.4504
 1305TIP3   OH225549   0.552   3.710   1.180  0.4961  0.1224 -0.1826
 1305TIP3    H125550   0.545   3.758   1.097 -1.6207 -1.5750 -1.0734
 1305TIP3    H225551   0.527   3.774   1.247  1.4557  1.2896 -0.8915
 1306TIP3   OH225552   2.315   3.034   2.174 -0.6845  0.6597  0.2245
 1306TIP3    H125553   2.382   3.029   2.242 -1.8214 -0.4493  1.2978
 1306TIP3    H225554   2.251   3.097   2.207 -1.0082  0.4717 -0.0338
 1307TIP3   OH225555   1.485   1.792   0.039 -0.6139 -0.2895  0.0923
 1307TIP3    H125556   1.517   1.882   0.048 -0.2920 -0.3792 -0.1395
 1307TIP3    H225557   1.428   1.794  -0.038 -1.5683 -0.0248  0.7724
 1308TIP3   OH225558   0.263   1.483   7.559 -0.0305  0.1657 -0.5277
 1308TIP3    H125559   0.184   1.445   7.598 -0.2850  1.4963  0.2938
 1308TIP3    H225560   0.243   1.489   7.466 -0.1186 -1.3385 -0.6292
 1309TIP3   OH225561   1.839   6.647   0.221  0.5927 -0.4230  0.2956
 1309TIP3    H125562   1.752   6.630   0.259 -0.0315  0.9263 -0.4507
 1309TIP3    H225563   1.855   6.572   0.165 -1.3071  0.4744 -1.5858
 1310TIP3   OH225564   0.659   5.189   7.979 -0.0633  0.4536  0.0396
 1310TIP3    H125565   0.691   5.241   7.905 -1.2806 -0.4153 -1.1398
 1310TIP3    H225566   0.714   5.111   7.978 -2.0336 -1.0431 -1.9922
 1311TIP3   OH225567   4.549   0.092   0.877 -0.4310 -0.3183  0.3047
 1311TIP3    H125568   4.464   0.086   0.833 -0.9147 -1.6123  1.3438
 1311TIP3    H225569   4.528   0.101   0.970  0.4492 -4.1705  1.0399
 1312TIP3   OH225570   2.144   3.960   1.921  0.0382  0.1678 -0.0162
 1312TIP3    H125571   2.184   4.010   1.849  0.2163  0.8469  0.5451
 1312TIP3    H225572   2.124   4.026   1.987  0.5271 -0.5438  0.8550
 1313TIP3   OH225573   1.476   2.859   0.333  0.1289  0.0273  1.0647
 1313TIP3    H125574   1.542   2.901   0.388 -1.2234  0.8591  2.1247
 1313TIP3    H225575   1.461   2.921   0.261  0.1724  0.0583  1.0826
 1314TIP3   OH225576   5.560   2.213   1.455  0.0608  0.8319 -0.0652
 1314TIP3    H125577   5.588   2.122   1.469  1.1631  0.9934 -1.0026
 1314TIP3    H225578   5.538   2.245   1.542 -1.6586 -0.7288  0.1331
 1315TIP3   OH225579   0.761   2.654   2.232  0.3022 -0.3349  0.2627
 1315TIP3    H125580   0.695   2.585   2.223 -1.6905  1.4663  0.5910
 1315TIP3    H225581   0.713   2.732   2.258  2.1329  1.8284 -2.2520
 1316TIP3   OH225582   5.578   4.145   6.995 -0.0252 -0.2068 -0.3558
 1316TIP3    H125583   5.572   4.050   6.999 -0.1451 -0.1749  0.2291
 1316TIP3    H225584   5.488   4.174   6.981 -0.0169 -0.1663 -0.3249
 1317TIP3   OH225585   4.758   4.567   8.318  0.0309  0.2208 -0.2378
 1317TIP3    H125586   4.789   4.479   8.340 -0.3419  0.0458 -0.4082
 1317TIP3    H225587   4.663   4.560   8.320  0.0047  0.7254  0.1481
 1318TIP3   OH225588   0.157   3.151   1.869 -0.5859  0.3982  0.4230
 1318TIP3    H125589   0.206   3.208   1.928 -0.2026  0.1433  0.3574
 1318TIP3    H225590   0.108   3.212   1.813  0.3150  0.6903 -0.0676
 1319TIP3   OH225591   3.039   0.681   8.670  0.3071  0.1193 -0.1249
 1319TIP3    H125592   3.095   0.757   8.651 -1.3275  1.7310  1.2361
 1319TIP3    H225593   3.100   0.615   8.704  1.6444  1.0936 -0.5255
 1320TIP3   OH225594   2.247   6.182   1.033  0.0905  0.0764 -0.6359
 1320TIP3    H125595   2.202   6.258   1.070 -1.9759 -0.8722 -1.0732
 1320TIP3    H225596   2.188   6.150   0.964  0.8633 -1.9627 -0.4207
 1321TIP3   OH225597   5.150   0.957   7.001  0.2218 -0.2388 -0.2785
 1321TIP3    H125598   5.213   1.029   6.997 -1.5096  1.4040  0.3517
 1321TIP3    H225599   5.085   0.978   6.934 -0.8733 -0.6283  0.6267
 1322TIP3   OH225600   1.493   2.614   8.671 -0.1986 -0.1696 -0.2888
 1322TIP3    H125601   1.426   2.678   8.644  1.2126  1.6945  0.4101
 1322TIP3    H225602   1.452   2.564   8.741 -0.8507  0.9949  0.1805
 1323TIP3   OH225603   0.130   5.874   8.432 -0.3295 -0.3812  0.1064
 1323TIP3    H125604   0.198   5.843   8.493 -0.9362 -1.6825  0.1537
 1323TIP3    H225605   0.115   5.965   8.458  1.2721 -0.1080  0.1985
 1324TIP3   OH225606   5.674   5.104   0.589  0.3146  0.0533  0.1780
 1324TIP3    H125607   5.663   5.039   0.520  0.6896  0.6141 -0.4213
 1324TIP3    H225608   5.763   5.088   0.623  1.0767  1.2998 -1.1113
 1325TIP3   OH225609   6.513   2.300   1.584 -0.2229 -0.2921  0.5407
 1325TIP3    H125610   6.583   2.325   1.645  1.6593  1.3623 -2.0785
 1325TIP3    H225611   6.433   2.334   1.624  1.0634  1.5989  1.6770
 1326TIP3   OH225612   0.316   4.938   7.850 -0.0566  0.1458  0.4921
 1326TIP3    H125613   0.283   5.009   7.906 -0.0980 -0.4909  1.2946
 1326TIP3    H225614   0.385   4.897   7.901  1.1061  0.6226 -0.6447
 1327TIP3   OH225615   0.986   2.146   7.766  0.0690  0.0448  0.1875
 1327TIP3    H125616   0.972   2.053   7.752  0.5737 -0.0798  0.4709
 1327TIP3    H225617   1.027   2.177   7.685  0.6678 -0.1533  0.4113
 1328TIP3   OH225618   6.101   4.959   0.841  0.0899  0.1019  0.3800
 1328TIP3    H125619   6.100   4.890   0.775 -0.5949  0.9496 -0.5291
 1328TIP3    H225620   6.084   4.914   0.923 -0.7943 -0.7708 -0.2542
 1329TIP3   OH225621   0.183   4.612   0.917 -0.1261 -0.0580 -0.0517
 1329TIP3    H125622   0.123   4.623   0.843  0.1235 -1.3638 -0.4737
 1329TIP3    H225623   0.270   4.630   0.880 -0.2987  3.4840  0.9307
 1330TIP3   OH225624   6.804   0.386   6.906 -0.2929 -0.8595  0.1952
 1330TIP3    H125625   6.719   0.355   6.937 -0.8557 -0.6359 -1.0698
 1330TIP3    H225626   6.792   0.480   6.895  0.3348 -0.7223  0.6653
 1331TIP3   OH225627   0.870   2.029   1.427  0.1448 -0.1227  0.6023
 1331TIP3    H125628   0.879   2.020   1.332  0.0172 -0.1624  0.5942
 1331TIP3    H225629   0.944   2.084   1.453 -0.0796  0.2657  0.4210
 1332TIP3   OH225630   0.519   2.783   0.311  0.1636  0.2255  0.8042
 1332TIP3    H125631   0.508   2.696   0.350  0.1725  0.2168  0.7870
 1332TIP3    H225632   0.445   2.834   0.345 -0.5930 -0.1584 -0.2285
 1333TIP3   OH225633   3.283   3.536   0.700  0.2078  0.4158  0.0127
 1333TIP3    H125634   3.302   3.460   0.644 -1.1063 -0.3135  0.5035
 1333TIP3    H225635   3.359   3.542   0.758  0.7836  0.0932 -0.6869
 1334TIP3   OH225636   2.407   0.217   2.467 -0.1358  0.2962 -0.3473
 1334TIP3    H125637   2.492   0.195   2.429 -0.7218 -0.2500 -1.3916
 1334TIP3    H225638   2.347   0.220   2.392 -1.7654 -2.8757  0.6315
 1335TIP3   OH225639   2.646   0.403   7.116  0.7998 -0.3428  0.6562
 1335TIP3    H125640   2.648   0.394   7.211  1.1326  2.3263  0.9785
 1335TIP3    H225641   2.559   0.373   7.090  0.7296 -1.1528  1.7902
 1336TIP3   OH225642   3.046   5.563   0.149  0.3742 -0.5663 -0.0350
 1336TIP3    H125643   2.990   5.485   0.145  1.1606 -1.0920 -2.1122
 1336TIP3    H225644   3.016   5.617   0.075  0.7681  0.4699  0.5396
 1337TIP3   OH225645   2.211   4.486   1.553  0.2325 -0.1562 -0.0887
 1337TIP3    H125646   2.209   4.551   1.623 -2.3645 -1.7255  1.4853
 1337TIP3    H225647   2.304   4.470   1.536  0.9600  0.5515  2.7711
 1338TIP3   OH225648   6.179   4.072   0.935 -0.1202 -0.7578  0.2523
 1338TIP3    H125649   6.169   4.090   1.029  3.2643 -1.7758  0.9167
 1338TIP3    H225650   6.141   3.985   0.923  0.7260 -1.2435  1.0082
 1339TIP3   OH225651   3.277   6.197   0.352  0.0624  0.2952  0.0778
 1339TIP3    H125652   3.268   6.130   0.419  0.9139 -2.3496 -2.2383
 1339TIP3    H225653   3.365   6.232   0.364 -0.0734  0.4050  0.7817
 1340TIP3   OH225654   3.623   0.252   8.197  0.2021 -0.2282 -0.0306
 1340TIP3    H125655   3.645   0.269   8.288  0.2775  0.3404 -0.1530
 1340TIP3    H225656   3.595   0.337   8.163 -0.6286 -0.6073 -0.3143
 1341TIP3   OH225657   2.799   0.844   0.744  0.5936  0.0185 -0.5621
 1341TIP3    H125658   2.737   0.785   0.701  1.8685 -1.0695 -0.9576
 1341TIP3    H225659   2.826   0.797   0.823 -0.9247  1.5498  0.9806
 1342TIP3   OH225660   0.113   1.741   1.090  0.4549 -0.4877  0.2098
 1342TIP3    H125661   0.058   1.705   1.160 -0.1356  0.7451  0.3961
 1342TIP3    H225662   0.064   1.722   1.010 -0.4400  0.8845  0.3992
 1343TIP3   OH225663   5.217   4.270   0.462 -0.0861 -0.1845 -0.5756
 1343TIP3    H125664   5.203   4.333   0.392  2.1593  1.1414  0.0579
 1343TIP3    H225665   5.281   4.208   0.426  0.2343 -0.1382 -0.0950
 1344TIP3   OH225666   2.075   4.562   1.270 -0.3194  0.6645 -0.9370
 1344TIP3    H125667   2.008   4.625   1.295 -0.2174  0.5403 -0.3322
 1344TIP3    H225668   2.113   4.532   1.353 -1.5541 -1.5186 -1.0747
 1345TIP3   OH225669   3.039   0.952   0.650 -0.0758 -0.2219 -0.0081
 1345TIP3    H125670   2.951   0.931   0.680  0.0104  0.0511  0.4342
 1345TIP3    H225671   3.027   1.021   0.584 -0.2071 -0.3391 -0.1072
 1346TIP3   OH225672   6.874   3.177   1.216 -0.3253 -0.6882 -0.2931
 1346TIP3    H125673   6.863   3.197   1.309  0.8779 -1.7912  0.1294
 1346TIP3    H225674   6.969   3.180   1.202 -0.3359 -2.3002 -1.0222
 1347TIP3   OH225675   3.685   1.277   0.642  0.1626 -0.6179 -0.5751
 1347TIP3    H125676   3.603   1.233   0.664  0.2798 -0.7975 -0.4944
 1347TIP3    H225677   3.661   1.369   0.630  0.2684 -0.3084  1.3667
 1348TIP3   OH225678   1.896   6.604   8.030 -0.2969 -0.0174 -0.4713
 1348TIP3    H125679   1.861   6.655   8.104  1.3123  2.0203 -1.0217
 1348TIP3    H225680   1.914   6.670   7.962 -0.0324 -1.6126 -2.0231
 1349TIP3   OH225681   0.942   4.697   6.579  0.2177 -0.1060 -0.7682
 1349TIP3    H125682   1.023   4.653   6.606 -0.7506 -2.2965 -1.2351
 1349TIP3    H225683   0.920   4.656   6.495 -1.3412  0.5052 -0.6810
 1350TIP3   OH225684   3.552   1.969   1.295 -0.1206 -0.6106 -0.1276
 1350TIP3    H125685   3.639   1.934   1.274 -0.4920 -2.0916  0.6980
 1350TIP3    H225686   3.512   1.902   1.351 -1.5117  0.3962  0.1230
 1351TIP3   OH225687   2.735   3.444   7.610  0.6218 -0.1505 -1.0800
 1351TIP3    H125688   2.736   3.530   7.567 -0.2831  1.2773  1.5295
 1351TIP3    H225689   2.827   3.420   7.617  0.9030  0.6468 -1.8004
 1352TIP3   OH225690   4.821   4.426   0.138  0.0050 -0.1493  0.0197
 1352TIP3    H125691   4.771   4.358   0.183 -1.7308  0.9228 -0.2036
 1352TIP3    H225692   4.767   4.450   0.063  1.5391  0.0751 -1.0576
 1353TIP3   OH225693   4.236   0.298   7.958  0.2152  0.3976  0.7365
 1353TIP3    H125694   4.209   0.389   7.949 -0.2001  0.3600  1.5040
 1353TIP3    H225695   4.297   0.283   7.885  1.6894  1.7948  1.6258
 1354TIP3   OH225696   0.208   3.487   0.129  0.2135 -0.1676 -0.2697
 1354TIP3    H125697   0.294   3.475   0.090  1.3944  2.7596  1.0750
 1354TIP3    H225698   0.157   3.534   0.063  0.0930 -0.7428 -0.5847
 1355TIP3   OH225699   4.487   4.754   1.507 -0.6462  0.2566 -0.5281
 1355TIP3    H125700   4.480   4.844   1.475 -0.6238  0.3036 -0.4005
 1355TIP3    H225701   4.400   4.735   1.543 -0.5152  0.3812 -0.1474
 1356TIP3   OH225702   5.569   3.525   1.552 -0.7156 -0.5863 -0.2779
 1356TIP3    H125703   5.497   3.565   1.504 -1.6176  0.5486  1.9018
 1356TIP3    H225704   5.638   3.591   1.552 -1.0677 -0.2117  0.7578
 1357TIP3   OH225705   0.494   6.764   7.093 -0.1321 -0.0247 -0.1365
 1357TIP3    H125706   0.453   6.705   7.156  0.1584 -0.3507 -0.2520
 1357TIP3    H225707   0.584   6.774   7.125 -0.5065  1.3534  0.5929
 1358TIP3   OH225708   2.671   5.751   8.307  0.1342 -0.3824 -0.4362
 1358TIP3    H125709   2.634   5.758   8.219 -0.2358 -1.5809 -0.3908
 1358TIP3    H225710   2.764   5.772   8.296  0.0013 -0.0823 -1.0261
 1359TIP3   OH225711   0.032   6.117   7.148  0.1867  0.3374  0.5299
 1359TIP3    H125712   0.115   6.110   7.197  0.5710 -0.0523 -0.1508
 1359TIP3    H225713  -0.017   6.186   7.193  0.8263  0.4803  1.0296
 1360TIP3   OH225714   0.458   3.724   8.299 -1.3387  0.6534  0.2738
 1360TIP3    H125715   0.420   3.636   8.301  2.4519 -1.2327 -0.7634
 1360TIP3    H225716   0.494   3.736   8.387  2.2036 -1.0188 -0.7941
 1361TIP3   OH225717   6.762   4.195   8.543  0.7077 -0.2478 -0.2592
 1361TIP3    H125718   6.670   4.172   8.526  0.2336  0.3453  1.3216
 1361TIP3    H225719   6.762   4.226   8.633  2.5422 -0.5404 -0.1342
 1362TIP3   OH225720   3.408   5.358   7.593  0.3131  0.4798 -0.1957
 1362TIP3    H125721   3.472   5.315   7.649 -0.7021  0.2009  0.7951
 1362TIP3    H225722   3.390   5.295   7.523  1.8034  0.9447 -1.0530
 1363TIP3   OH225723   6.736   5.126   0.457 -0.2367  0.3673 -0.0847
 1363TIP3    H125724   6.688   5.209   0.465 -0.1994  0.5051 -1.1328
 1363TIP3    H225725   6.713   5.077   0.536 -0.0940  1.4541  0.6490
 1364TIP3   OH225726   1.634   3.933   1.588  0.1392 -0.4576 -0.0366
 1364TIP3    H125727   1.673   3.868   1.529  0.1694  0.6375 -1.2712
 1364TIP3    H225728   1.582   3.989   1.530  0.8912  1.1979  0.8404
 1365TIP3   OH225729   2.579   2.101   7.663  0.0469 -0.5616 -0.3668
 1365TIP3    H125730   2.543   2.185   7.694  1.4542 -0.4382  1.0629
 1365TIP3    H225731   2.525   2.035   7.705  0.3137 -0.3745  0.2775
 1366TIP3   OH225732   2.035   5.686   1.762 -0.2308  0.1701 -0.0620
 1366TIP3    H125733   1.987   5.616   1.805  0.0774  0.0974  0.1720
 1366TIP3    H225734   2.027   5.761   1.821  0.1645  0.0800  0.1130
 1367TIP3   OH225735   3.266   2.492   7.399 -0.5011 -0.4737  0.4867
 1367TIP3    H125736   3.199   2.475   7.334 -1.1550 -4.5629  1.9179
 1367TIP3    H225737   3.349   2.475   7.354 -0.6938  0.2994 -0.1679
 1368TIP3   OH225738   5.885   4.608   7.556 -0.1962  0.3264  0.3085
 1368TIP3    H125739   5.957   4.663   7.526 -1.0971  0.9970 -0.7093
 1368TIP3    H225740   5.927   4.529   7.588  0.9686  0.4634 -0.7954
 1369TIP3   OH225741   5.232   6.591   6.246  0.5715 -0.0057  0.4359
 1369TIP3    H125742   5.302   6.629   6.193  2.0743 -2.7224  0.2779
 1369TIP3    H225743   5.158   6.586   6.186  0.8887  0.9329 -0.0622
 1370TIP3   OH225744   3.127   6.514   0.999  0.3230 -0.0403  0.6439
 1370TIP3    H125745   3.132   6.419   0.992  1.8409 -0.2082  2.9103
 1370TIP3    H225746   3.216   6.544   0.981  0.0376  0.8614  0.6970
 1371TIP3   OH225747   4.652   0.669   1.430 -0.9722  0.4647  0.0419
 1371TIP3    H125748   4.643   0.629   1.517 -0.4622 -0.3321 -0.2713
 1371TIP3    H225749   4.583   0.735   1.428 -1.4718 -0.0174  0.7767
 1372TIP3   OH225750   1.971   0.073   7.006  0.0353  0.6521  0.4987
 1372TIP3    H125751   1.910   0.006   6.976 -1.7122  2.4684 -0.2184
 1372TIP3    H225752   2.000   0.042   7.092 -1.1684 -0.7391  0.4405
 1373TIP3   OH225753   0.133   3.131   7.533  0.6918 -0.3908 -0.8185
 1373TIP3    H125754   0.155   3.215   7.493 -1.2418  0.6812  0.1794
 1373TIP3    H225755   0.214   3.102   7.574  0.5817  3.2624  2.6603
 1374TIP3   OH225756   6.701   2.563   0.789  0.2142 -0.2397  0.3658
 1374TIP3    H125757   6.643   2.488   0.798  1.5410 -1.3753 -0.0942
 1374TIP3    H225758   6.788   2.529   0.812  0.8471  1.1497  0.1290
 1375TIP3   OH225759   1.735   2.274   2.139 -0.3837 -0.4532  0.0893
 1375TIP3    H125760   1.698   2.188   2.161 -1.3910  0.1244  0.7386
 1375TIP3    H225761   1.667   2.317   2.087 -0.3228  0.3266  0.6329
 1376TIP3   OH225762   0.090   0.984   1.538 -0.2554  0.4798  0.3931
 1376TIP3    H125763   0.148   0.914   1.569  0.0469  0.1434 -0.8446
 1376TIP3    H225764   0.123   1.004   1.450 -1.0633  1.3752  0.2804
 1377TIP3   OH225765   0.080   4.857   0.108 -0.1639 -0.4118  0.4502
 1377TIP3    H125766   0.123   4.817   0.184  0.6136 -0.9230 -0.2416
 1377TIP3    H225767   0.006   4.800   0.088  1.3631 -1.9921 -0.9849
 1378TIP3   OH225768   5.684   1.936   1.357 -0.1548  0.4146 -0.4417
 1378TIP3    H125769   5.670   1.843   1.377  0.6627  0.1681 -0.9424
 1378TIP3    H225770   5.763   1.959   1.406  0.6255  0.3754 -1.6382
 1379TIP3   OH225771   0.530   6.061   7.339 -0.0219  0.3171 -0.4661
 1379TIP3    H125772   0.625   6.045   7.344 -0.1763 -1.1165 -1.4445
 1379TIP3    H225773   0.521   6.134   7.278  0.4038 -0.5207 -1.5601
 1380TIP3   OH225774   3.488   0.558   1.026  0.0421  0.8647 -0.3446
 1380TIP3    H125775   3.433   0.482   1.045  0.7213  0.5545  0.4522
 1380TIP3    H225776   3.530   0.539   0.943  1.9051 -0.6595  0.8727
 1381TIP3   OH225777   0.566   6.646   8.331 -0.0807 -0.0845  0.0323
 1381TIP3    H125778   0.650   6.602   8.342  0.7300  1.0624 -1.2145
 1381TIP3    H225779   0.518   6.591   8.270  0.5183  0.1871 -0.7057
 1382TIP3   OH225780   6.214   4.355   2.446 -0.2632 -0.1328  0.5376
 1382TIP3    H125781   6.302   4.390   2.431 -0.7806  0.5384 -1.1977
 1382TIP3    H225782   6.225   4.260   2.441 -0.0391 -0.0428 -2.7657
 1383TIP3   OH225783   2.467   3.961   8.652 -0.3414  0.4356 -0.1716
 1383TIP3    H125784   2.425   4.019   8.714  1.2980 -0.5022  1.9371
 1383TIP3    H225785   2.407   3.886   8.644  0.0061 -0.0253  1.3200
 1384TIP3   OH225786   1.131   5.456   6.184  0.4638 -0.0457 -0.6584
 1384TIP3    H125787   1.070   5.516   6.142 -0.0532  0.0269  0.1689
 1384TIP3    H225788   1.117   5.372   6.141  0.3911  0.1703 -1.0550
 1385TIP3   OH225789   4.050   5.668   6.791  0.4658  0.1959 -0.3181
 1385TIP3    H125790   4.028   5.744   6.737 -0.3207  0.8757  0.9094
 1385TIP3    H225791   4.087   5.705   6.872  3.6841 -0.8406 -1.1573
 1386TIP3   OH225792   2.704   6.501   0.730  0.6305  0.0720  0.4066
 1386TIP3    H125793   2.653   6.542   0.800  0.1651 -1.0675  0.7655
 1386TIP3    H225794   2.725   6.414   0.764 -1.0904 -1.1788 -1.5372
 1387TIP3   OH225795   0.267   0.757   7.513 -0.3891  0.4106 -0.1774
 1387TIP3    H125796   0.260   0.679   7.568  1.7547  0.6686  0.5520
 1387TIP3    H225797   0.208   0.821   7.555  0.0993  0.1260  0.9695
 1388TIP3   OH225798   6.654   5.749   8.242  0.2734 -0.2068 -0.7254
 1388TIP3    H125799   6.649   5.653   8.241 -1.2038 -0.1865  0.4567
 1388TIP3    H225800   6.595   5.775   8.313 -0.0496  1.6210 -1.6059
 1389TIP3   OH225801   4.402   6.798   0.123 -0.1800  0.0892  0.3736
 1389TIP3    H125802   4.372   6.765   0.038  0.3436  0.1179  0.1783
 1389TIP3    H225803   4.378   6.891   0.121  1.8744  0.6482 -0.6942
 1390TIP3   OH225804   5.240   0.143   7.461  0.0773 -0.0621  0.1855
 1390TIP3    H125805   5.305   0.201   7.422  1.3311 -1.3824  0.2247
 1390TIP3    H225806   5.285   0.059   7.470 -1.4633 -0.8712  0.7470
 1391TIP3   OH225807   2.017   1.699   7.865  0.0046 -0.4272 -0.9632
 1391TIP3    H125808   2.098   1.664   7.829 -0.2025 -0.5430 -1.3198
 1391TIP3    H225809   2.041   1.785   7.901 -0.2621  0.7946 -3.5044
 1392TIP3   OH225810   2.936   0.757   0.992 -0.1350  0.4791 -0.2918
 1392TIP3    H125811   3.030   0.773   0.977  0.2198  1.3112  2.3366
 1392TIP3    H225812   2.934   0.672   1.037 -0.5577  0.8567  0.4085
 1393TIP3   OH225813   6.546   5.513   8.026 -0.4191 -0.8577 -0.5350
 1393TIP3    H125814   6.541   5.431   7.977  0.8158 -0.7232 -0.9318
 1393TIP3    H225815   6.601   5.493   8.102 -2.3180 -1.0639  0.8409
 1394TIP3   OH225816   5.796   0.706   0.393 -0.7988  0.4143  0.0808
 1394TIP3    H125817   5.731   0.697   0.462  1.0514  1.0265  2.0201
 1394TIP3    H225818   5.870   0.750   0.435  0.7824 -0.0026 -2.0693
 1395TIP3   OH225819   3.366   4.868   7.894 -0.2174  0.4762 -0.1501
 1395TIP3    H125820   3.332   4.957   7.906  0.7497  0.7935  0.3489
 1395TIP3    H225821   3.355   4.851   7.800 -0.4319  1.1105 -0.2473
 1396TIP3   OH225822   5.189   6.385   0.501  0.5587  0.3278 -0.4300
 1396TIP3    H125823   5.138   6.326   0.445  0.6769  0.6033 -0.8324
 1396TIP3    H225824   5.158   6.473   0.479 -0.5195  0.3599  1.0855
 1397TIP3   OH225825   3.783   0.409   7.958  0.3567 -0.4996 -0.0412
 1397TIP3    H125826   3.842   0.334   7.955  0.4879 -0.3906 -0.2264
 1397TIP3    H225827   3.697   0.373   7.939  0.2246 -0.7949  1.0686
 1398TIP3   OH225828   0.753   6.028   1.386 -0.0049 -0.1675  0.1160
 1398TIP3    H125829   0.662   6.011   1.360 -0.2067 -0.8863  1.2292
 1398TIP3    H225830   0.791   6.072   1.310 -1.0452 -0.6213 -0.7049
 1399TIP3   OH225831   3.078   4.321   8.473  0.3392 -0.0108  1.0695
 1399TIP3    H125832   3.023   4.266   8.529 -0.4140 -0.0030  0.3764
 1399TIP3    H225833   3.030   4.325   8.390  0.7493  1.0784  0.8627
 1400TIP3   OH225834   2.596   5.282   0.264 -0.3130  0.3861  0.5162
 1400TIP3    H125835   2.529   5.260   0.330 -0.5748 -1.4646 -0.2983
 1400TIP3    H225836   2.552   5.269   0.180  1.1382 -1.3505 -0.0535
 1401TIP3   OH225837   6.375   4.687   8.361 -0.3500 -0.0137  0.6908
 1401TIP3    H125838   6.323   4.767   8.350  1.3531  0.7761 -3.2698
 1401TIP3    H225839   6.465   4.714   8.344  0.6123 -2.4101  1.5369
 1402TIP3   OH225840   4.697   2.683   7.867  0.8128 -0.4213  1.0764
 1402TIP3    H125841   4.674   2.772   7.893 -0.1836 -1.0864  2.6966
 1402TIP3    H225842   4.665   2.674   7.778  0.0416  0.5436  1.2449
 1403TIP3   OH225843   3.763   4.484   2.474  0.2481 -0.6053 -0.2917
 1403TIP3    H125844   3.690   4.461   2.418 -1.0337  1.2502  0.5081
 1403TIP3    H225845   3.774   4.579   2.462  0.8659 -0.4078  1.4475
 1404TIP3   OH225846   2.814   5.505   7.437 -0.2456  0.0326  0.2561
 1404TIP3    H125847   2.905   5.525   7.461 -0.0349  1.1386 -1.2785
 1404TIP3    H225848   2.821   5.464   7.351 -1.2374  1.0234 -0.3228
 1405TIP3   OH225849   3.946   5.559   1.189 -0.0680  0.1529 -0.3469
 1405TIP3    H125850   3.943   5.546   1.284 -1.1977  0.7566 -0.2823
 1405TIP3    H225851   4.028   5.606   1.174 -0.3612  0.9516  0.4587
 1406TIP3   OH225852   2.018   0.732   0.841 -0.2753 -0.2201  0.4094
 1406TIP3    H125853   2.016   0.792   0.768 -1.3844  1.0752  1.4563
 1406TIP3    H225854   2.111   0.716   0.857  0.2080  3.0475  1.5058
 1407TIP3   OH225855   2.155   3.605   1.368  0.3101 -0.4358  0.1023
 1407TIP3    H125856   2.249   3.623   1.372 -0.0009  1.6730 -0.7622
 1407TIP3    H225857   2.117   3.662   1.435 -0.5007  0.1774 -0.8544
 1408TIP3   OH225858   2.481   5.402   6.762 -0.4309  0.5108  0.2659
 1408TIP3    H125859   2.418   5.473   6.748 -0.4280  0.4672  0.0283
 1408TIP3    H225860   2.438   5.324   6.726 -0.5858  0.3200  0.8550
 1409TIP3   OH225861   2.711   0.383   2.225 -0.2525  0.2306 -0.1117
 1409TIP3    H125862   2.659   0.350   2.152 -1.5034 -0.8114  1.2061
 1409TIP3    H225863   2.691   0.477   2.228 -0.8417  0.1233 -0.5790
 1410TIP3   OH225864   6.154   1.431   6.712  0.1427  0.6627  0.3572
 1410TIP3    H125865   6.146   1.491   6.786 -0.7921  1.4806 -0.3680
 1410TIP3    H225866   6.193   1.352   6.749  1.6384  1.7846  1.3027
 1411TIP3   OH225867   1.842   1.741   1.786  0.1345  0.4742 -0.1208
 1411TIP3    H125868   1.817   1.779   1.870  1.7777  0.4909  0.3812
 1411TIP3    H225869   1.817   1.649   1.793  1.5495  0.1487  0.9593
 1412TIP3   OH225870   4.794   2.911   7.649 -0.3842 -0.6252 -0.8023
 1412TIP3    H125871   4.749   2.989   7.680 -0.1725 -1.1905  1.0554
 1412TIP3    H225872   4.879   2.913   7.693 -0.2030 -1.6613 -1.0684
 1413TIP3   OH225873   4.747   2.745   6.801  0.4625  0.1193 -0.4127
 1413TIP3    H125874   4.728   2.791   6.719  0.7396  1.2774  0.1575
 1413TIP3    H225875   4.701   2.794   6.868  2.0015  0.5010  0.4196
 1414TIP3   OH225876   4.713   2.721   7.462  0.3355 -0.1047 -0.8831
 1414TIP3    H125877   4.755   2.796   7.504  0.1657  0.0409 -0.9770
 1414TIP3    H225878   4.669   2.675   7.534 -0.6292  0.5835 -1.0208
 1415TIP3   OH225879   5.994   5.569   8.190  0.2017 -0.6816  0.0818
 1415TIP3    H125880   6.012   5.486   8.146  0.1820 -1.0320  0.7209
 1415TIP3    H225881   5.998   5.634   8.120  0.6025 -1.1694 -0.3643
 1416TIP3   OH225882   0.611   0.108   1.527  0.0429  0.3756  0.1464
 1416TIP3    H125883   0.580   0.179   1.472  0.9425 -1.0842 -2.4277
 1416TIP3    H225884   0.706   0.121   1.532  0.1854 -0.4710 -0.1403
 1417TIP3   OH225885   4.548   3.508   2.508  0.1508 -0.3067 -0.3272
 1417TIP3    H125886   4.556   3.472   2.419 -1.0246 -1.5176  0.0207
 1417TIP3    H225887   4.597   3.590   2.505  0.9376 -0.7858 -1.8286
 1418TIP3   OH225888   1.683   0.429   8.127  0.2772  0.0020  0.1858
 1418TIP3    H125889   1.752   0.415   8.062  0.3295 -0.4646  0.3399
 1418TIP3    H225890   1.672   0.344   8.169 -0.7491 -0.0717 -0.1903
 1419TIP3   OH225891   3.706   0.364   8.487  0.8359 -0.3194 -0.3697
 1419TIP3    H125892   3.709   0.362   8.583  0.4438 -2.0575 -0.3609
 1419TIP3    H225893   3.700   0.457   8.466  0.2187  0.0702  1.3191
 1420TIP3   OH225894   3.962   0.413   6.896 -0.0903 -0.1860 -0.3828
 1420TIP3    H125895   4.029   0.423   6.829  0.8712 -0.2357  0.5390
 1420TIP3    H225896   3.887   0.461   6.863  1.5709  3.0192  0.1309
 1421TIP3   OH225897   6.038   0.903   8.161 -0.2929 -0.0662  0.3980
 1421TIP3    H125898   6.132   0.887   8.147 -0.0762 -0.2798  1.8580
 1421TIP3    H225899   6.015   0.843   8.232 -1.4262  0.3292  0.3757
 1422TIP3   OH225900   5.761   1.692   0.298  0.6598 -0.2823 -1.0476
 1422TIP3    H125901   5.688   1.741   0.260 -0.0378  0.8516  1.5207
 1422TIP3    H225902   5.742   1.601   0.278 -0.9033  0.0870 -1.3592
 1423TIP3   OH225903   6.572   3.201   7.527 -0.3279 -0.5580  0.5901
 1423TIP3    H125904   6.644   3.146   7.558  0.8411  0.1086 -0.8284
 1423TIP3    H225905   6.546   3.251   7.605 -0.9567 -2.5264  1.7322
 1424TIP3   OH225906   3.394   1.613   2.151  0.2474 -0.1213  0.1724
 1424TIP3    H125907   3.327   1.591   2.215  0.3164 -0.0189  0.2801
 1424TIP3    H225908   3.468   1.643   2.203  0.3964 -0.2854  0.0558
 1425TIP3   OH225909   1.828   1.162   7.632 -0.2175 -0.1141  0.1609
 1425TIP3    H125910   1.866   1.228   7.691  0.8958 -1.4039  0.9308
 1425TIP3    H225911   1.772   1.109   7.689  2.6821 -2.8703  0.7285
 1426TIP3   OH225912   4.652   6.159   1.836 -0.1465 -0.6106 -0.7538
 1426TIP3    H125913   4.628   6.090   1.898  0.0805 -1.1281 -1.2391
 1426TIP3    H225914   4.568   6.194   1.806 -0.2815 -1.2894 -1.1857
 1427TIP3   OH225915   0.341   2.673   0.996 -0.9681  0.0130  0.1070
 1427TIP3    H125916   0.272   2.707   1.054  0.3996  0.7648  1.3486
 1427TIP3    H225917   0.419   2.722   1.021 -0.0217 -0.6321 -1.4611
 1428TIP3   OH225918   1.223   6.853   1.230  0.2998 -0.1535 -0.1506
 1428TIP3    H125919   1.255   6.888   1.147  0.1283 -0.9184 -0.5462
 1428TIP3    H225920   1.302   6.834   1.281  0.4166 -0.1817 -0.3424
 1429TIP3   OH225921   2.104   4.711   7.303 -0.2451 -0.2115  0.0289
 1429TIP3    H125922   2.152   4.676   7.378 -1.5040  0.0802  1.0157
 1429TIP3    H225923   2.069   4.634   7.258 -0.5709 -0.3539  0.5134
 1430TIP3   OH225924   6.305   1.440   7.258 -0.8569  0.2514  0.2575
 1430TIP3    H125925   6.305   1.533   7.279 -0.9149  0.4593 -0.5993
 1430TIP3    H225926   6.228   1.405   7.303 -0.5424  0.5048  1.0091
 1431TIP3   OH225927   0.681   1.458   7.154 -0.0199 -0.1305 -0.3085
 1431TIP3    H125928   0.645   1.476   7.067 -0.6868  2.6108  0.4370
 1431TIP3    H225929   0.757   1.516   7.160  0.0183 -0.2974  0.9419
 1432TIP3   OH225930   4.680   2.497   6.335 -0.3204 -0.1203 -0.3657
 1432TIP3    H125931   4.704   2.568   6.394 -0.2510 -0.8037  0.4330
 1432TIP3    H225932   4.752   2.494   6.271  0.4381 -0.4536  0.4814
 1433TIP3   OH225933   3.824   1.919   0.285 -1.0630  0.5522  0.1483
 1433TIP3    H125934   3.917   1.899   0.294 -0.9096  0.9683 -0.4698
 1433TIP3    H225935   3.822   2.011   0.258 -1.6200  0.3107 -0.6406
 1434TIP3   OH225936   0.685   1.510   1.134  0.3866 -0.0780  0.1720
 1434TIP3    H125937   0.759   1.538   1.080 -0.8611 -2.6451 -3.1520
 1434TIP3    H225938   0.623   1.583   1.128  1.1541  0.5882  0.0161
 1435TIP3   OH225939   3.507   3.240   8.502 -0.6646 -0.0776 -0.0173
 1435TIP3    H125940   3.561   3.246   8.424 -0.1230 -0.5410  0.3101
 1435TIP3    H225941   3.466   3.326   8.510  1.1385  0.7891  0.5106
 1436TIP3   OH225942   3.978   6.232   7.856 -0.2376 -0.0020  0.1800
 1436TIP3    H125943   4.036   6.305   7.876 -0.3552  0.6949 -1.8457
 1436TIP3    H225944   3.904   6.271   7.809 -0.0128 -1.4517 -1.4956
 1437TIP3   OH225945   2.582   1.256   0.042 -0.4977  0.5473  0.3371
 1437TIP3    H125946   2.548   1.318  -0.022 -0.9889 -0.6151 -0.5743
 1437TIP3    H225947   2.671   1.287   0.060  0.0147  0.3649 -1.6792
 1438TIP3   OH225948   3.233   3.734   1.134 -0.2306 -0.6005 -0.1245
 1438TIP3    H125949   3.314   3.739   1.185 -0.3813 -1.5424  0.2287
 1438TIP3    H225950   3.219   3.824   1.103 -0.9913  0.4056  2.8363
 1439TIP3   OH225951   2.642   3.168   0.788 -0.9169  0.5017 -0.0633
 1439TIP3    H125952   2.562   3.125   0.758 -0.4052 -0.0309 -0.6813
 1439TIP3    H225953   2.700   3.167   0.712  0.3441 -0.7237  0.8798
 1440TIP3   OH225954   0.223   0.062   7.094  0.2218 -0.1053  0.3944
 1440TIP3    H125955   0.290   0.125   7.067 -0.5113  1.4821  2.0913
 1440TIP3    H225956   0.241   0.046   7.187 -1.0879 -0.4930  0.6053
 1441TIP3   OH225957   2.270   0.873   1.040  0.4066 -0.3547 -0.1385
 1441TIP3    H125958   2.223   0.794   1.064 -0.7616  0.5703  0.7220
 1441TIP3    H225959   2.218   0.945   1.076  0.0919  0.9861 -2.9317
 1442TIP3   OH225960   3.960   6.680   8.539  0.3203 -0.4003 -0.4016
 1442TIP3    H125961   3.976   6.732   8.460 -0.8605 -0.4068 -0.6567
 1442TIP3    H225962   3.888   6.725   8.583 -2.4785 -3.0616 -1.8795
 1443TIP3   OH225963   0.528   0.277   7.616 -0.1695  0.0809 -0.7645
 1443TIP3    H125964   0.620   0.298   7.606  0.8996 -1.9553  2.9643
 1443TIP3    H225965   0.522   0.183   7.596 -1.3332  0.0988 -0.5702
 1444TIP3   OH225966   4.590   2.690   1.892  0.0144 -0.1688  0.3578
 1444TIP3    H125967   4.603   2.762   1.830 -2.0413  0.4912  0.6272
 1444TIP3    H225968   4.499   2.665   1.881 -0.0322 -0.9492  2.1739
 1445TIP3   OH225969   5.655   0.579   2.060  0.6568  0.9876 -0.4092
 1445TIP3    H125970   5.648   0.606   2.151  0.1682  1.5531 -0.6075
 1445TIP3    H225971   5.747   0.558   2.048  0.7345  0.9687  0.1943
 1446TIP3   OH225972   0.941   6.077   8.645 -0.5488  0.1137 -0.0928
 1446TIP3    H125973   1.014   6.039   8.596 -0.1008 -0.6023  1.0945
 1446TIP3    H225974   0.968   6.168   8.661  1.3997 -0.7873  2.6299
 1447TIP3   OH225975   2.658   1.683   0.415 -0.1692 -0.4048  0.4221
 1447TIP3    H125976   2.731   1.658   0.471  0.1215  0.5148  0.4639
 1447TIP3    H225977   2.583   1.634   0.451  0.5417 -1.9486 -0.0939
 1448TIP3   OH225978   4.112   6.420   7.258 -0.1711 -0.2249  0.3003
 1448TIP3    H125979   4.128   6.499   7.206  1.3713 -0.4823  0.3452
 1448TIP3    H225980   4.017   6.413   7.261 -0.3271  0.3966 -1.5900
 1449TIP3   OH225981   5.199   6.876   1.163 -0.0818  0.1299 -0.0129
 1449TIP3    H125982   5.135   6.912   1.225  0.6605  1.9761 -0.2502
 1449TIP3    H225983   5.162   6.896   1.077 -0.5617 -1.4173 -0.1935
 1450TIP3   OH225984   5.007   4.927   7.816 -0.0936 -0.3146 -0.0537
 1450TIP3    H125985   4.989   5.018   7.838  0.9314  0.2359 -1.3449
 1450TIP3    H225986   4.924   4.882   7.831 -0.1774  0.4752  2.2125
 1451TIP3   OH225987   1.460   3.513   7.488  0.0123 -0.1432 -0.0256
 1451TIP3    H125988   1.456   3.596   7.440  2.3117 -0.3987 -0.7777
 1451TIP3    H225989   1.505   3.534   7.569  0.5512 -0.6414 -0.1918
 1452TIP3   OH225990   2.454   4.924   7.640 -0.3075  0.3949 -0.0770
 1452TIP3    H125991   2.379   4.881   7.681  0.0150  0.1716  0.2872
 1452TIP3    H225992   2.529   4.895   7.692  0.4580 -1.8678 -2.2694
 1453TIP3   OH225993   4.400   3.065   2.528  0.0411 -0.2188  0.1889
 1453TIP3    H125994   4.315   3.108   2.529  0.6707  1.0616  0.3085
 1453TIP3    H225995   4.392   2.996   2.594 -0.2035  1.3255  1.8662
 1454TIP3   OH225996   0.958   2.990   0.261 -0.3741 -0.0023  0.0135
 1454TIP3    H125997   1.013   2.913   0.249  0.2077  0.4103 -0.0299
 1454TIP3    H225998   1.019   3.059   0.289 -1.0530  0.1437  1.2008
 1455TIP3   OH225999   6.043   5.941   5.926  0.0809  0.0292 -0.2734
 1455TIP3    H126000   5.964   5.957   5.875 -1.6958 -1.5004  1.8101
 1455TIP3    H226001   6.056   5.846   5.921 -0.2791 -0.2185  2.1667
 1456TIP3   OH226002   1.413   0.246   8.213  0.4882 -0.6384  0.2865
 1456TIP3    H126003   1.386   0.283   8.297 -0.0715 -0.4760  0.0443
 1456TIP3    H226004   1.366   0.298   8.148 -3.1918 -3.8352 -0.0109
 1457TIP3   OH226005   0.118   4.734   0.632  0.1625  0.1913 -1.1404
 1457TIP3    H126006   0.147   4.824   0.648 -2.2286  0.8963 -0.3516
 1457TIP3    H226007   0.040   4.744   0.578 -0.6274 -1.3450 -0.3236
 1458TIP3   OH226008   0.342   1.222   7.167  1.1662  0.1900  0.1134
 1458TIP3    H126009   0.392   1.191   7.242 -0.1663  0.4915  1.1730
 1458TIP3    H226010   0.304   1.144   7.128 -0.4797  0.2344  1.5202
 1459TIP3   OH226011   4.545   5.082   7.568 -0.3787 -0.2457  0.4137
 1459TIP3    H126012   4.610   5.083   7.498 -0.4473 -0.3314  0.3477
 1459TIP3    H226013   4.485   5.153   7.545  0.2088  0.4483  0.9735
 1460TIP3   OH226014   4.918   5.981   0.468 -0.1524  0.5027 -0.7012
 1460TIP3    H126015   4.959   6.059   0.431  3.0626 -0.7165 -0.0616
 1460TIP3    H226016   4.930   5.913   0.402 -2.5749  0.3660 -1.0940
 1461TIP3   OH226017   2.262   3.169   8.135 -0.3009  0.2930  0.1128
 1461TIP3    H126018   2.293   3.254   8.102  2.2754  0.0725  1.6801
 1461TIP3    H226019   2.187   3.190   8.190  1.0109  1.7592  1.4329
 1462TIP3   OH226020   6.129   3.067   6.977 -0.1926 -0.4395 -0.1323
 1462TIP3    H126021   6.081   3.016   6.911  0.9509 -0.4694 -0.9739
 1462TIP3    H226022   6.073   3.064   7.055 -0.2131 -2.9209 -0.1594
 1463TIP3   OH226023   6.290   3.450   0.825 -0.3418  0.2181  0.1051
 1463TIP3    H126024   6.295   3.409   0.911 -1.1255  0.5728  0.3307
 1463TIP3    H226025   6.315   3.381   0.764  0.8662  0.1445  0.6545
 1464TIP3   OH226026   6.057   1.930   8.222  0.3523  0.7295  0.0670
 1464TIP3    H126027   6.150   1.937   8.243  0.7482 -0.5607 -1.1324
 1464TIP3    H226028   6.051   1.954   8.130 -0.3594 -0.0424 -0.1057
 1465TIP3   OH226029   1.627   2.481   0.457  0.1731  0.3529  0.4531
 1465TIP3    H126030   1.716   2.474   0.424  0.2065 -0.3388  0.6823
 1465TIP3    H226031   1.632   2.551   0.523  0.5954  0.1449  0.6430
 1466TIP3   OH226032   2.973   1.819   8.510  0.0704 -0.0749  0.0361
 1466TIP3    H126033   2.896   1.804   8.456  0.3432 -0.8811 -0.1395
 1466TIP3    H226034   3.038   1.855   8.450 -0.4794  1.6487  0.3928
 1467TIP3   OH226035   5.470   6.625   0.702  0.1262  0.1670  0.0929
 1467TIP3    H126036   5.549   6.612   0.755 -1.2533 -2.3416  1.7920
 1467TIP3    H226037   5.491   6.585   0.618  0.4280 -1.3720  0.8527
 1468TIP3   OH226038   5.532   3.191   6.753  0.7225  0.5489 -0.4053
 1468TIP3    H126039   5.531   3.244   6.673 -0.4436  1.5519  0.2420
 1468TIP3    H226040   5.521   3.101   6.722 -0.7679  1.0206 -1.3468
 1469TIP3   OH226041   1.738   3.925   7.249  0.3471  0.4648  0.6405
 1469TIP3    H126042   1.667   3.872   7.283  0.6426  0.0157  0.5706
 1469TIP3    H226043   1.742   3.904   7.156  0.0047  1.1490  0.4691
 1470TIP3   OH226044   0.510   0.150   7.077 -0.0348  0.0819 -0.0755
 1470TIP3    H126045   0.535   0.058   7.063  0.8200  0.4437 -1.0603
 1470TIP3    H226046   0.530   0.193   6.994  2.2679  1.7453  1.2429
 1471TIP3   OH226047   3.325   4.587   6.626 -0.1460 -0.1622 -0.5079
 1471TIP3    H126048   3.322   4.570   6.532  0.0739 -1.9015 -0.2337
 1471TIP3    H226049   3.344   4.680   6.633  0.4799 -0.1331 -2.1815
 1472TIP3   OH226050   4.615   1.377   7.437 -0.0269 -0.3332  0.5375
 1472TIP3    H126051   4.595   1.305   7.497  0.6871  0.1270  1.3529
 1472TIP3    H226052   4.564   1.451   7.470  1.3832  0.2855  1.3980
 1473TIP3   OH226053   3.369   0.758   6.901 -0.0019 -0.0781  0.2653
 1473TIP3    H126054   3.395   0.769   6.993 -0.1078 -0.8769  0.3993
 1473TIP3    H226055   3.337   0.668   6.896  1.0846 -0.4269 -0.8150
 1474TIP3   OH226056   2.294   1.482   7.206 -0.3928 -0.1534  0.4031
 1474TIP3    H126057   2.336   1.568   7.193 -0.1566 -0.0096  1.9553
 1474TIP3    H226058   2.348   1.422   7.154 -0.0132  0.4928  0.0271
 1475TIP3   OH226059   5.316   0.802   0.397 -0.1607  0.0723  0.0020
 1475TIP3    H126060   5.359   0.721   0.369 -0.0879  0.0250  0.2537
 1475TIP3    H226061   5.248   0.774   0.458  0.0927  0.2306  0.3576
 1476TIP3   OH226062   5.956   5.537   0.061 -0.1672  0.2250  0.5778
 1476TIP3    H126063   6.048   5.558   0.074 -0.3777  0.3075  2.0398
 1476TIP3    H226064   5.949   5.519  -0.033  0.9639  1.9952  0.1008
 1477TIP3   OH226065   5.450   0.271   7.352  0.1607 -0.3725  0.2848
 1477TIP3    H126066   5.541   0.258   7.327 -0.3900  0.0792 -2.1794
 1477TIP3    H226067   5.415   0.329   7.286 -1.8549 -0.2625  1.3742
 1478TIP3   OH226068   2.927   0.953   7.828  0.4602  0.2220  0.5336
 1478TIP3    H126069   2.883   1.024   7.875 -0.5053  0.7018 -1.0444
 1478TIP3    H226070   2.911   0.876   7.882 -0.1965  0.8420  1.2520
 1479TIP3   OH226071   5.387   5.168   0.434  0.2625  0.2847  0.0386
 1479TIP3    H126072   5.482   5.157   0.446  0.3321 -0.0732 -0.7979
 1479TIP3    H226073   5.380   5.228   0.359 -0.1784  0.2088  0.0199
 1480TIP3   OH226074   3.865   2.931   6.474 -0.4016  0.5145  0.1368
 1480TIP3    H126075   3.788   2.972   6.435 -1.3382 -0.8696  0.4963
 1480TIP3    H226076   3.831   2.864   6.532  0.9592  2.2129  3.1102
 1481TIP3   OH226077   3.159   2.391   6.365  0.2027  0.0974 -0.3352
 1481TIP3    H126078   3.078   2.438   6.380 -0.0929 -0.3268 -0.5980
 1481TIP3    H226079   3.228   2.452   6.392 -0.1686  0.7484 -0.8678
 1482TIP3   OH226080   4.557   0.515   7.039 -0.3224  0.1773 -0.2826
 1482TIP3    H126081   4.505   0.557   6.970 -1.3957 -1.2628 -0.3869
 1482TIP3    H226082   4.581   0.587   7.097  0.8216  1.4699 -2.2559
 1483TIP3   OH226083   0.363   2.082   1.989 -0.3598  0.6105  0.4827
 1483TIP3    H126084   0.377   2.027   2.066 -0.3011  0.8647  0.6553
 1483TIP3    H226085   0.329   2.022   1.922  0.9351  0.0997  0.2547
 1484TIP3   OH226086   5.919   4.416   6.709 -0.4607 -0.3266 -0.1121
 1484TIP3    H126087   5.919   4.511   6.725 -1.7852 -0.3345  0.0565
 1484TIP3    H226088   5.832   4.387   6.738 -0.8751 -1.2544 -2.1146
 1485TIP3   OH226089   0.216   3.571   7.760 -0.2242  0.1949 -0.2543
 1485TIP3    H126090   0.187   3.656   7.727 -1.4766  1.0774  2.7595
 1485TIP3    H226091   0.151   3.509   7.728 -1.0463  0.8963  0.0183
 1486TIP3   OH226092   1.673   4.470   0.642  0.3031 -0.2830  0.0765
 1486TIP3    H126093   1.760   4.431   0.651  0.5330  0.6334  2.5125
 1486TIP3    H226094   1.679   4.554   0.688 -1.1132  1.1252 -2.1242
 1487TIP3   OH226095   2.104   2.953   0.091 -0.6441 -0.3576 -0.8045
 1487TIP3    H126096   2.106   3.049   0.098  1.2745 -0.0951 -3.2959
 1487TIP3    H226097   2.152   2.923   0.168 -3.2494  0.4569  1.2862
 1488TIP3   OH226098   5.717   0.287   7.638  0.0816  0.4239 -0.1606
 1488TIP3    H126099   5.721   0.357   7.703 -1.5154 -0.0973  0.5387
 1488TIP3    H226100   5.707   0.207   7.690  0.3093 -0.1602 -1.0008
 1489TIP3   OH226101   5.017   4.837   6.976 -0.2588  0.7028  0.7218
 1489TIP3    H126102   4.986   4.925   6.959 -3.4278 -0.3412  0.3993
 1489TIP3    H226103   4.951   4.799   7.035 -0.7655 -2.3583 -1.5434
 1490TIP3   OH226104   2.186   0.410   8.621 -0.0440 -0.2666  0.1523
 1490TIP3    H126105   2.169   0.387   8.530 -1.2792  0.1038  0.2640
 1490TIP3    H226106   2.166   0.504   8.626 -0.5274 -0.4026  0.9166
 1491TIP3   OH226107   3.537   6.417   7.842  0.2157  0.4683  0.1990
 1491TIP3    H126108   3.481   6.344   7.816  1.2798  0.5029 -2.5719
 1491TIP3    H226109   3.587   6.384   7.917  0.1038 -1.3884 -0.4873
 1492TIP3   OH226110   5.776   3.670   1.648 -0.5732 -0.2447  0.2082
 1492TIP3    H126111   5.828   3.685   1.726 -1.8125 -0.2253  1.0637
 1492TIP3    H226112   5.792   3.746   1.593  0.7044 -0.5023  0.2038
 1493TIP3   OH226113   1.910   6.456   0.033  0.2938  0.2017 -0.6214
 1493TIP3    H126114   1.951   6.379   0.072  1.1940  0.8445 -0.2506
 1493TIP3    H226115   1.900   6.435  -0.059  1.1465 -0.1145 -0.6492
 1494TIP3   OH226116   2.487   0.875   1.723  0.4424  0.2711 -0.1304
 1494TIP3    H126117   2.425   0.804   1.742  1.6694 -0.9657 -0.6012
 1494TIP3    H226118   2.487   0.928   1.803  0.7636 -1.2296  0.9200
 1495TIP3   OH226119   5.132   5.545   7.678  0.6763 -0.9729 -0.0407
 1495TIP3    H126120   5.169   5.499   7.753  0.9432 -2.3173 -0.9626
 1495TIP3    H226121   5.184   5.625   7.670  1.4382 -1.4074  0.4644
 1496TIP3   OH226122   1.167   2.890   7.253  0.4880  1.0872 -0.2148
 1496TIP3    H126123   1.204   2.872   7.339  0.3409  0.8206 -0.2075
 1496TIP3    H226124   1.242   2.881   7.193  0.1041 -1.3717 -0.4468
 1497TIP3   OH226125   3.884   2.415   0.841 -0.1381  0.1858 -0.3360
 1497TIP3    H126126   3.958   2.360   0.869 -0.2643  0.3912  0.4310
 1497TIP3    H226127   3.891   2.418   0.746  1.4274  1.0070 -0.2215
 1498TIP3   OH226128   4.667   3.817   8.447  0.0602  0.4203 -0.7691
 1498TIP3    H126129   4.571   3.821   8.454 -0.0052 -0.5641 -0.9729
 1498TIP3    H226130   4.685   3.726   8.424  1.0746  0.5195 -0.3821
 1499TIP3   OH226131   6.230   2.529   7.431  0.8951  0.8450 -0.0780
 1499TIP3    H126132   6.297   2.480   7.383  0.1622 -0.5565  0.2627
 1499TIP3    H226133   6.148   2.507   7.386  0.4918  1.4069  0.3752
 1500TIP3   OH226134   5.518   6.110   0.317  0.3988 -0.3285 -0.1516
 1500TIP3    H126135   5.495   6.025   0.354  0.2269 -0.3726 -0.3533
 1500TIP3    H226136   5.475   6.111   0.231  0.8455 -0.2544 -0.3749
 1501TIP3   OH226137   2.154   1.975   8.276 -0.5959  0.6116  0.1776
 1501TIP3    H126138   2.233   1.934   8.241 -1.4134 -0.8319 -0.0877
 1501TIP3    H226139   2.141   2.053   8.222 -1.9005 -1.6102 -2.9849
 1502TIP3   OH226140   1.194   3.437   7.546 -0.2054 -0.0528 -0.1179
 1502TIP3    H126141   1.290   3.440   7.541 -0.2007 -0.0916 -0.0523
 1502TIP3    H226142   1.169   3.526   7.570 -0.1279 -0.2798  0.8219
 1503TIP3   OH226143   5.954   5.231   8.453  0.5608  0.1865 -0.3137
 1503TIP3    H126144   5.946   5.270   8.366  0.2919  0.9530  0.0484
 1503TIP3    H226145   6.001   5.297   8.504  1.5243 -0.6250 -0.1038
 1504TIP3   OH226146   0.712   5.599   8.161 -0.4230  0.1021 -0.0633
 1504TIP3    H126147   0.703   5.577   8.068  0.1140  0.9354 -0.3309
 1504TIP3    H226148   0.675   5.524   8.207  0.5104 -0.9285 -0.9241
 1505TIP3   OH226149   5.591   3.101   6.027 -0.2863  0.4314  0.1478
 1505TIP3    H126150   5.579   3.160   5.953 -1.4286  1.0034  0.7722
 1505TIP3    H226151   5.611   3.016   5.987  1.8194  1.2637 -0.7630
 1506TIP3   OH226152   5.136   4.728   6.223 -0.1748  0.4092  0.0937
 1506TIP3    H126153   5.192   4.793   6.265  1.1176  0.2886 -1.3363
 1506TIP3    H226154   5.197   4.670   6.177 -1.3828 -0.9452  0.1192
 1507TIP3   OH226155   6.900   5.363   7.728  0.5586 -0.2196 -0.0192
 1507TIP3    H126156   6.846   5.310   7.787  1.6867  0.8748  2.1328
 1507TIP3    H226157   6.971   5.396   7.784  2.9371 -0.8011 -2.4614
 1508TIP3   OH226158   1.833   5.608   8.132 -0.8983  0.2715 -0.2873
 1508TIP3    H126159   1.745   5.578   8.110 -1.5538  0.7026  1.5564
 1508TIP3    H226160   1.840   5.695   8.093 -2.0446  1.0486  1.1411
 1509TIP3   OH226161   3.552   5.652   8.426  0.1744  0.0098  0.2382
 1509TIP3    H126162   3.601   5.579   8.387 -0.1437  0.1252 -0.3970
 1509TIP3    H226163   3.462   5.621   8.430 -0.0641  0.5612 -0.5545
 1510TIP3   OH226164   4.733   5.071   7.782 -0.2924 -0.1479  0.0836
 1510TIP3    H126165   4.688   4.990   7.806  2.5703 -2.2028 -0.9132
 1510TIP3    H226166   4.703   5.090   7.693 -2.6082  1.2224  1.0846
 1511TIP3   OH226167   6.775   2.610   6.146 -0.3644 -0.2222 -0.4643
 1511TIP3    H126168   6.854   2.658   6.171  0.1838 -1.2871 -0.1166
 1511TIP3    H226169   6.787   2.591   6.053  0.0886 -0.9303 -0.2655
 1512TIP3   OH226170   2.639   5.220   7.516 -0.7755 -0.0283 -0.1579
 1512TIP3    H126171   2.627   5.311   7.546 -1.9517 -0.5552  1.1304
 1512TIP3    H226172   2.644   5.226   7.421  0.8912  1.5449 -0.0232
 1513TIP3   OH226173   0.637   0.078   7.308 -0.1743  0.1045 -0.0264
 1513TIP3    H126174   0.576   0.113   7.243 -0.0626 -0.7857 -0.6318
 1513TIP3    H226175   0.722   0.078   7.264 -0.3759 -2.0506 -0.5149
 1514TIP3   OH226176   3.123   3.639   1.536 -0.7000 -0.1243 -0.4642
 1514TIP3    H126177   3.182   3.579   1.489  0.2993  0.6038 -0.1675
 1514TIP3    H226178   3.167   3.724   1.533 -1.8894  0.5099 -0.4876
 1515TIP3   OH226179   2.656   0.370   7.412  0.5234  0.7131 -0.1523
 1515TIP3    H126180   2.749   0.368   7.436 -0.0717 -0.1816  2.3420
 1515TIP3    H226181   2.619   0.441   7.464 -0.3984  0.3452 -0.2936
 1516TIP3   OH226182   4.621   5.575   7.553 -0.0160 -0.8273  0.0999
 1516TIP3    H126183   4.699   5.535   7.591  0.3893  1.2710  1.6652
 1516TIP3    H226184   4.648   5.602   7.465  1.8941  1.9832  1.4230
 1517TIP3   OH226185   2.169   6.052   0.776  0.4923  0.0018  0.3375
 1517TIP3    H126186   2.190   6.069   0.684  2.5055  2.0432  1.0937
 1517TIP3    H226187   2.202   5.963   0.791 -1.5577 -1.1467 -1.2902
 1518TIP3   OH226188   4.955   1.798   8.168  0.3668 -0.3411 -0.2603
 1518TIP3    H126189   4.921   1.878   8.128 -2.0701 -0.3354  1.6159
 1518TIP3    H226190   4.955   1.734   8.097  1.1201  0.9328 -1.4717
 1519TIP3   OH226191   0.483   3.839   7.424 -0.0135  0.1890  0.2973
 1519TIP3    H126192   0.497   3.905   7.492 -0.0010 -1.2492  1.7315
 1519TIP3    H226193   0.467   3.890   7.344 -1.2700  1.9312  1.5994
 1520TIP3   OH226194   4.391   1.778   0.953 -0.4748 -0.2424 -0.2169
 1520TIP3    H126195   4.410   1.710   0.888  2.2855 -1.0630  1.2707
 1520TIP3    H226196   4.345   1.733   1.023 -1.8170  0.2454 -0.7593
 1521TIP3   OH226197   1.411   2.602   6.917 -0.2021  0.2793 -0.6374
 1521TIP3    H126198   1.486   2.636   6.869 -0.7075  0.4601 -1.3119
 1521TIP3    H226199   1.341   2.599   6.853 -0.6929 -0.1825 -0.0922
 1522TIP3   OH226200   3.028   3.451   0.828  0.0346  0.5232  0.5545
 1522TIP3    H126201   3.043   3.498   0.911  0.3068  0.3984  0.5784
 1522TIP3    H226202   3.106   3.471   0.775  0.9084 -1.1335  1.1384
 1523TIP3   OH226203   3.533   0.325   7.890  0.1346 -0.6291  0.0821
 1523TIP3    H126204   3.508   0.341   7.799  1.9642  1.0081 -0.1821
 1523TIP3    H226205   3.452   0.341   7.940 -0.2189  1.3846 -1.0154
 1524TIP3   OH226206   0.364   5.346   7.231 -0.1685 -0.5485  0.1252
 1524TIP3    H126207   0.338   5.264   7.190  1.3259 -1.9110  1.7591
 1524TIP3    H226208   0.458   5.337   7.246 -0.3787  0.4467  2.4456
 1525TIP3   OH226209   6.097   0.110   0.102 -0.0773  0.3715 -0.4652
 1525TIP3    H126210   6.187   0.142   0.100 -0.7665  2.6019  0.8518
 1525TIP3    H226211   6.055   0.153   0.027 -0.1461 -0.4084 -0.8839
 1526TIP3   OH226212   3.569   1.652   7.487 -0.3441 -0.2948  0.0680
 1526TIP3    H126213   3.590   1.648   7.580 -0.1658 -2.7846  0.0002
 1526TIP3    H226214   3.574   1.561   7.457 -0.6454  0.3858 -2.3305
 1527TIP3   OH226215   6.812   2.523   6.438 -0.4492 -0.2849  0.0525
 1527TIP3    H126216   6.744   2.460   6.463  0.8317 -1.8557 -0.2554
 1527TIP3    H226217   6.805   2.530   6.343 -0.8408  0.3545  0.1241
 1528TIP3   OH226218   5.331   1.153   0.791 -0.4343  0.6830  0.2743
 1528TIP3    H126219   5.361   1.094   0.861  2.1106  0.9513 -0.5059
 1528TIP3    H226220   5.353   1.107   0.710  1.2467  2.4788 -0.3488
 1529TIP3   OH226221   1.134   6.620   6.350 -0.5954 -0.0973  0.4023
 1529TIP3    H126222   1.100   6.547   6.298 -0.1555  0.3946 -0.5996
 1529TIP3    H226223   1.228   6.619   6.334 -0.7561  1.6457 -0.8816
 1530TIP3   OH226224   0.575   4.521   0.205  0.5177 -0.2170  0.0413
 1530TIP3    H126225   0.664   4.506   0.235  0.5995  0.6931  0.2769
 1530TIP3    H226226   0.583   4.590   0.139  0.3020 -1.9213 -1.8811
 1531TIP3   OH226227   3.988   2.911   1.190 -0.2656 -0.0119 -0.3190
 1531TIP3    H126228   3.943   2.900   1.273 -0.5715 -0.9676 -0.5914
 1531TIP3    H226229   3.934   2.972   1.140 -0.4866 -0.0281 -0.1003
 1532TIP3   OH226230   3.860   5.423   7.527  0.3294 -0.0215  0.1297
 1532TIP3    H126231   3.783   5.480   7.525 -0.9932 -1.6270  1.7940
 1532TIP3    H226232   3.875   5.398   7.436 -1.2986  0.1059 -0.1920
 1533TIP3   OH226233   6.822   1.518   6.651  0.5060 -0.0111 -0.6544
 1533TIP3    H126234   6.913   1.490   6.642  1.2000  0.9778  2.0870
 1533TIP3    H226235   6.827   1.603   6.695 -1.7374 -0.3577  0.4678
 1534TIP3   OH226236   5.483   5.592   1.316  0.2112  0.3106 -0.2921
 1534TIP3    H126237   5.437   5.594   1.399  0.3633 -1.4925 -0.1167
 1534TIP3    H226238   5.539   5.514   1.322  2.4680  1.7805 -0.9168
 1535TIP3   OH226239   6.225   5.410   8.393  0.0287 -0.8223  0.8145
 1535TIP3    H126240   6.289   5.414   8.464 -1.4273 -0.4247  2.1696
 1535TIP3    H226241   6.253   5.477   8.332  1.2848 -1.1238  1.0333
 1536TIP3   OH226242   5.591   0.832   6.594 -0.4351 -0.2717 -0.5636
 1536TIP3    H126243   5.572   0.918   6.557 -1.5075 -0.7307 -1.1312
 1536TIP3    H226244   5.661   0.797   6.538 -2.2198 -1.0689 -2.4347
 1537TIP3   OH226245   4.595   6.366   0.425  0.0849 -0.7797 -0.0395
 1537TIP3    H126246   4.543   6.315   0.487  1.6736 -0.6859  1.4588
 1537TIP3    H226247   4.533   6.429   0.388 -1.1930 -1.6759  0.5138
 1538TIP3   OH226248   2.731   4.589   7.409 -0.4055 -0.2436 -0.3907
 1538TIP3    H126249   2.691   4.663   7.363  0.5835  2.3662  2.6004
 1538TIP3    H226250   2.818   4.581   7.369 -0.6320 -0.0285 -0.9471
 1539TIP3   OH226251   0.284   4.795   8.541  0.4477 -0.8541 -0.7385
 1539TIP3    H126252   0.377   4.772   8.545  1.0235  1.3973 -0.0668
 1539TIP3    H226253   0.253   4.789   8.631  0.3522 -0.0919 -0.7115
 1540TIP3   OH226254   6.517   2.550   1.826 -0.4666  0.6154 -0.1382
 1540TIP3    H126255   6.484   2.466   1.859 -1.0661  0.8204 -0.1979
 1540TIP3    H226256   6.466   2.616   1.873  0.4902  0.9739  0.4187
 1541TIP3   OH226257   0.519   6.787   1.380  0.7313 -0.4267  0.5824
 1541TIP3    H126258   0.498   6.846   1.308  2.1995 -0.8830 -0.2659
 1541TIP3    H226259   0.564   6.843   1.444  0.9626 -0.3597  0.3641
 1542TIP3   OH226260   2.414   2.096   0.483 -0.0214  0.3789 -0.1319
 1542TIP3    H126261   2.375   2.076   0.568 -0.3010 -0.5716 -0.4695
 1542TIP3    H226262   2.485   2.157   0.503 -1.3030  1.7037  0.5582
 1543TIP3   OH226263   0.432   0.623   0.798 -0.2206  0.1012  0.5928
 1543TIP3    H126264   0.519   0.594   0.770 -0.2209  1.1312 -0.5702
 1543TIP3    H226265   0.426   0.713   0.766 -1.7079  0.0540  0.6874
 1544TIP3   OH226266   1.063   3.345   0.986 -0.2309 -0.0675 -0.3538
 1544TIP3    H126267   1.043   3.255   0.961 -0.7620  0.5479 -2.3130
 1544TIP3    H226268   0.984   3.375   1.031 -0.4968 -0.2235 -0.7143
 1545TIP3   OH226269   1.883   3.526   8.514  0.4035  0.6432  0.5556
 1545TIP3    H126270   1.848   3.568   8.592 -0.4789 -0.2848  0.6799
 1545TIP3    H226271   1.908   3.438   8.543  1.0497  0.6366  0.0198
 1546TIP3   OH226272   0.867   3.559   8.622 -0.3814 -0.4739 -0.1779
 1546TIP3    H126273   0.846   3.640   8.575  0.4107  0.4912  1.0611
 1546TIP3    H226274   0.942   3.582   8.676 -0.1275 -2.0611  0.1906
 1547TIP3   OH226275   0.385   2.174   0.160  0.3494 -0.0121  0.2580
 1547TIP3    H126276   0.426   2.237   0.220 -0.2797  0.3704  0.3029
 1547TIP3    H226277   0.363   2.099   0.215  0.7985 -0.1355  0.2732
 1548TIP3   OH226278   3.856   5.088   6.502 -0.0122 -0.5560 -0.1268
 1548TIP3    H126279   3.772   5.085   6.458  0.0410 -2.2712 -0.1624
 1548TIP3    H226280   3.907   5.152   6.452 -0.1766 -1.9559 -2.1629
 1549TIP3   OH226281   6.152   4.028   6.952 -0.9998 -0.1978 -0.5914
 1549TIP3    H126282   6.215   3.956   6.954 -0.5230  0.2270  0.1505
 1549TIP3    H226283   6.199   4.101   6.912 -1.0236  0.1111 -0.0692
 1550TIP3   OH226284   6.043   1.692   1.303  0.0196  0.2589 -0.2617
 1550TIP3    H126285   5.950   1.676   1.318  0.1457  0.0024  0.2650
 1550TIP3    H226286   6.085   1.609   1.322  0.4628  0.6492  0.5188
 1551TIP3   OH226287   4.591   6.159   7.743 -0.8570  0.0449  0.3693
 1551TIP3    H126288   4.642   6.129   7.818  0.9242 -1.4955 -1.3303
 1551TIP3    H226289   4.590   6.254   7.751  1.6714  0.1003  0.9367
 1552TIP3   OH226290   3.583   5.629   0.888  0.4799  0.1955 -0.1386
 1552TIP3    H126291   3.607   5.629   0.981 -1.6545  1.8674  0.4999
 1552TIP3    H226292   3.591   5.721   0.861  1.8370 -0.3781 -1.8665
 1553TIP3   OH226293   5.151   2.868   0.714  0.2980 -0.6918  0.2586
 1553TIP3    H126294   5.127   2.835   0.801  0.0254  1.5681  1.1070
 1553TIP3    H226295   5.072   2.854   0.662 -0.1506 -0.4959  0.8648
 1554TIP3   OH226296   0.292   5.819   8.614  0.3764 -0.7772 -0.4790
 1554TIP3    H126297   0.325   5.731   8.627 -0.5627 -0.9347  1.1245
 1554TIP3    H226298   0.322   5.868   8.690 -2.4839 -0.8018  0.7970
 1555TIP3   OH226299   2.384   5.657   0.351  0.0924  0.3809  0.4793
 1555TIP3    H126300   2.339   5.681   0.432  0.1980  1.3158  0.2689
 1555TIP3    H226301   2.352   5.569   0.331 -0.3477  0.3625  1.2407
 1556TIP3   OH226302   1.021   5.293   7.582 -0.0159  0.6855  0.4959
 1556TIP3    H126303   0.998   5.228   7.648 -1.5745  0.4862 -0.2073
 1556TIP3    H226304   1.113   5.313   7.600  0.7657 -2.2492  0.2577
 1557TIP3   OH226305   2.212   1.300   6.235 -0.1461  0.0038 -0.8194
 1557TIP3    H126306   2.273   1.268   6.301  0.3749  0.3362 -1.1337
 1557TIP3    H226307   2.136   1.330   6.285 -0.0807 -0.4610 -0.4309
 1558TIP3   OH226308   6.732   0.638   7.609  0.0530  0.0878 -0.3734
 1558TIP3    H126309   6.767   0.707   7.664 -0.9845 -1.4156  2.3898
 1558TIP3    H226310   6.795   0.566   7.618 -0.5868 -0.4885 -0.3719
 1559TIP3   OH226311   3.443   1.763   8.265 -0.2982  0.6650 -0.4232
 1559TIP3    H126312   3.477   1.699   8.327  0.5266  0.0563 -1.4726
 1559TIP3    H226313   3.455   1.847   8.308 -0.2246  0.2245  0.4466
 1560TIP3   OH226314   6.552   5.774   1.009 -0.3098 -0.0745 -0.1949
 1560TIP3    H126315   6.571   5.777   1.102 -1.8122  0.7526  0.1221
 1560TIP3    H226316   6.637   5.786   0.966  0.5683 -1.6502  1.0188
 1561TIP3   OH226317   5.397   4.094   0.293  0.1759  0.4022  0.4108
 1561TIP3    H126318   5.403   3.998   0.291 -0.7972  0.3421 -0.8530
 1561TIP3    H226319   5.340   4.116   0.220  0.0911  1.9414  0.9039
 1562TIP3   OH226320   4.023   1.874   7.052  0.0718  0.2652 -0.0962
 1562TIP3    H126321   4.027   1.927   6.972  1.0043 -0.7463 -0.7598
 1562TIP3    H226322   4.018   1.784   7.020  0.8499 -0.1756  0.9809
 1563TIP3   OH226323   3.602   3.035   6.429  0.5308  0.3731  0.7540
 1563TIP3    H126324   3.556   2.951   6.429  0.0566  0.5421  3.5527
 1563TIP3    H226325   3.591   3.069   6.518  1.3315  3.0859 -0.0713
 1564TIP3   OH226326   4.698   6.498   7.966 -0.2929  0.3844  0.3134
 1564TIP3    H126327   4.775   6.506   7.909  0.7699 -2.0952  1.2700
 1564TIP3    H226328   4.683   6.586   7.998  1.8104  1.0433 -0.3490
 1565TIP3   OH226329   3.095   1.158   0.457 -0.2021  0.0346 -0.1995
 1565TIP3    H126330   3.022   1.192   0.406  0.3445  0.2270 -0.8819
 1565TIP3    H226331   3.160   1.228   0.455 -0.3900  0.2703  1.2658
 1566TIP3   OH226332   1.323   0.361   1.869 -0.2107  0.3040 -0.0937
 1566TIP3    H126333   1.233   0.353   1.836 -0.1224 -0.8228 -0.1132
 1566TIP3    H226334   1.321   0.315   1.952  0.0046  1.5868  0.6413
 1567TIP3   OH226335   4.517   3.257   0.077  0.0389 -0.2203 -0.3001
 1567TIP3    H126336   4.505   3.182   0.019  0.5166 -1.1795  0.7943
 1567TIP3    H226337   4.496   3.224   0.164  0.5612  0.8346  0.2485
 1568TIP3   OH226338   1.272   2.430   7.108 -0.1767  0.0275 -0.0178
 1568TIP3    H126339   1.314   2.412   7.193 -3.9139 -0.5515  1.9123
 1568TIP3    H226340   1.333   2.489   7.064  2.9250 -1.2599  2.1543
 1569TIP3   OH226341   5.887   3.763   8.582  0.3614 -0.2274  0.7308
 1569TIP3    H126342   5.809   3.770   8.527  1.4502  1.7235 -0.6960
 1569TIP3    H226343   5.855   3.776   8.671 -1.0732 -0.6303  0.3023
 1570TIP3   OH226344   4.579   5.283   0.007  0.1650  0.5390  0.0748
 1570TIP3    H126345   4.653   5.226  -0.013 -0.1518  0.1575 -0.0381
 1570TIP3    H226346   4.507   5.249  -0.047 -0.3291  0.3543  0.8209
 1571TIP3   OH226347   4.110   1.488   0.322  0.2096 -0.7367  0.3066
 1571TIP3    H126348   4.139   1.403   0.356 -0.3415 -0.7945  0.6409
 1571TIP3    H226349   4.158   1.498   0.240  1.3891 -0.7019  0.9670
 1572TIP3   OH226350   4.753   4.074   1.774  0.3125  0.0704 -0.0992
 1572TIP3    H126351   4.777   4.160   1.739 -0.3253  0.9559  1.5395
 1572TIP3    H226352   4.664   4.086   1.808 -0.4584 -1.7131 -1.3270
 1573TIP3   OH226353   5.823   4.454   7.285  0.2255  0.8643 -0.3973
 1573TIP3    H126354   5.773   4.535   7.280  0.2547  1.3581  3.9604
 1573TIP3    H226355   5.913   4.483   7.302  0.6921 -0.1134 -1.0886
 1574TIP3   OH226356   0.584   6.564   1.198 -0.1874  0.0418 -0.0805
 1574TIP3    H126357   0.565   6.623   1.124  1.3887 -0.6612 -1.1055
 1574TIP3    H226358   0.617   6.623   1.266  1.1579  0.4233 -1.0102
 1575TIP3   OH226359   0.073   1.922   1.630  0.2883  0.4968 -0.1572
 1575TIP3    H126360   0.062   1.890   1.541  2.1479  1.8230 -0.9133
 1575TIP3    H226361   0.097   2.014   1.620  1.2131  0.5003  1.6869
 1576TIP3   OH226362   1.809   5.976   1.174  0.1411  0.2397 -0.0488
 1576TIP3    H126363   1.731   6.010   1.218 -0.3772 -1.5983  0.5441
 1576TIP3    H226364   1.780   5.958   1.085  0.1483  0.4452 -0.0927
 1577TIP3   OH226365   4.132   5.164   6.912 -0.0327 -0.0331 -0.0117
 1577TIP3    H126366   4.226   5.172   6.925  0.0021  0.1963 -0.3869
 1577TIP3    H226367   4.097   5.248   6.942 -0.0717  0.0425 -0.2643
 1578TIP3   OH226368   0.120   4.712   1.286 -0.9759  0.5404 -0.1172
 1578TIP3    H126369   0.086   4.695   1.374 -3.9244  1.9758 -0.8512
 1578TIP3    H226370   0.099   4.633   1.237 -1.8385  0.7944 -0.1688
 1579TIP3   OH226371   3.863   3.464   6.668  0.0383 -0.5941  0.6882
 1579TIP3    H126372   3.821   3.384   6.697  1.5744 -0.8727  2.3032
 1579TIP3    H226373   3.953   3.457   6.700  0.5295  1.2524 -0.1456
 1580TIP3   OH226374   1.850   6.659   8.437  0.2686  0.3876  0.0788
 1580TIP3    H126375   1.785   6.600   8.399  0.8473  0.5499 -1.2399
 1580TIP3    H226376   1.932   6.608   8.434  0.3355  0.4210  1.1034
 1581TIP3   OH226377   2.561   3.030   1.600 -0.1996  0.0442  0.2022
 1581TIP3    H126378   2.613   3.002   1.525 -0.4921 -0.3177  0.1316
 1581TIP3    H226379   2.528   3.117   1.576 -1.1935 -0.5197 -0.5572
 1582TIP3   OH226380   5.654   0.801   0.614 -0.3404  0.0917  0.1414
 1582TIP3    H126381   5.703   0.865   0.665  0.1484 -0.8859  0.9253
 1582TIP3    H226382   5.584   0.853   0.572 -1.2674  0.8122  2.4432
 1583TIP3   OH226383   6.045   2.465   0.405 -0.5712  0.3047  0.2230
 1583TIP3    H126384   6.096   2.511   0.339  0.5220  1.6028  1.9106
 1583TIP3    H226385   5.993   2.533   0.447 -2.4378 -0.7336 -0.2749
 1584TIP3   OH226386   4.601   4.957   0.442 -0.7385 -0.2284 -0.8318
 1584TIP3    H126387   4.620   4.868   0.413  0.5601 -0.2828  0.1108
 1584TIP3    H226388   4.642   5.013   0.375 -0.1615 -0.3551 -0.5935
 1585TIP3   OH226389   4.850   4.637   7.734 -0.2469 -0.0290 -0.6467
 1585TIP3    H126390   4.852   4.726   7.696  1.2972  0.6017  0.8072
 1585TIP3    H226391   4.933   4.599   7.708 -0.0229 -0.2990  0.4332
 1586TIP3   OH226392   1.010   0.052   0.596 -0.3866 -0.0051  0.2372
 1586TIP3    H126393   1.024   0.058   0.501 -0.1706  1.7504  0.3578
 1586TIP3    H226394   0.960  -0.029   0.607 -1.5734  0.4187 -1.5120
 1587TIP3   OH226395   1.996   3.007   1.282  0.5811  0.1433 -0.2844
 1587TIP3    H126396   2.020   2.937   1.343  0.0728 -0.6574 -0.9657
 1587TIP3    H226397   1.939   3.065   1.332 -0.0399 -0.6397 -0.0680
 1588TIP3   OH226398   0.157   4.260   1.521  0.0510  0.1662  0.4451
 1588TIP3    H126399   0.175   4.302   1.437  0.2819 -0.2362  0.2881
 1588TIP3    H226400   0.243   4.235   1.554 -0.1040 -0.4744  0.3806
 1589TIP3   OH226401   5.325   4.885   6.428 -0.1336  0.0163  0.0389
 1589TIP3    H126402   5.400   4.938   6.454 -0.3340 -0.3033  1.3225
 1589TIP3    H226403   5.346   4.797   6.460 -0.9268 -0.1368  0.1454
 1590TIP3   OH226404   0.572   4.249   0.296  0.2664 -0.1117  0.6453
 1590TIP3    H126405   0.583   4.344   0.297  1.0406 -0.1304 -1.3447
 1590TIP3    H226406   0.653   4.216   0.255 -0.7833 -1.4701 -0.4365
 1591TIP3   OH226407   4.228   5.653   7.597  0.4026 -0.2237 -0.2340
 1591TIP3    H126408   4.301   5.591   7.605  1.4945  1.1148  0.6782
 1591TIP3    H226409   4.150   5.601   7.618  1.2289 -1.3980  0.0281
 1592TIP3   OH226410   4.954   3.265   7.325  0.0761 -0.4042 -0.0369
 1592TIP3    H126411   4.966   3.327   7.396  0.0524 -0.4770  0.0311
 1592TIP3    H226412   4.989   3.182   7.359  0.0177 -0.4513 -0.0898
 1593TIP3   OH226413   3.252   4.047   2.189 -0.0003  0.0384  0.1775
 1593TIP3    H126414   3.276   4.108   2.259  1.4318 -0.1469 -0.1366
 1593TIP3    H226415   3.156   4.052   2.186  0.0623  2.2658  0.1593
 1594TIP3   OH226416   0.496   4.726   6.742 -0.0887  0.0014  0.0907
 1594TIP3    H126417   0.580   4.765   6.766  0.6845 -1.7199  0.4059
 1594TIP3    H226418   0.459   4.785   6.677  0.7922  1.4348  0.8317
 1595TIP3   OH226419   3.691   4.659   1.236  0.3685  0.5301 -0.2899
 1595TIP3    H126420   3.710   4.565   1.232  0.5774  0.6191 -1.8075
 1595TIP3    H226421   3.676   4.685   1.145  0.5080  2.0158  0.0843
 1596TIP3   OH226422   4.660   6.146   6.801 -0.1187  0.2077 -0.1166
 1596TIP3    H126423   4.599   6.077   6.776 -1.6443  1.3423  0.3144
 1596TIP3    H226424   4.743   6.120   6.762 -0.7476 -1.6341 -0.3353
 1597TIP3   OH226425   2.500   4.532   0.525 -0.3276  0.0100 -0.3011
 1597TIP3    H126426   2.514   4.615   0.478 -2.1422  1.0029  0.7848
 1597TIP3    H226427   2.434   4.486   0.472  0.0811 -0.3791 -0.4729
 1598TIP3   OH226428   6.865   3.698   0.155  0.0494 -0.3913  0.4533
 1598TIP3    H126429   6.857   3.786   0.118  0.3834 -0.4144  0.3246
 1598TIP3    H226430   6.800   3.647   0.107  0.0632 -0.2840  0.3188
 1599TIP3   OH226431   4.874   3.141   7.861 -0.0260  0.4435 -0.6944
 1599TIP3    H126432   4.833   3.136   7.948  0.5644 -0.5328 -0.4572
 1599TIP3    H226433   4.806   3.179   7.805 -1.1555 -0.8309 -0.2446
 1600TIP3   OH226434   0.335   1.812   8.394  0.3884  0.5049  0.6773
 1600TIP3    H126435   0.384   1.848   8.320  0.2017 -0.0290  0.2867
 1600TIP3    H226436   0.315   1.888   8.448 -1.0959  1.2130 -0.7725
 1601TIP3   OH226437   0.134   4.347   6.215 -0.3556  0.0126  0.0208
 1601TIP3    H126438   0.086   4.273   6.178  1.2011 -0.8223 -0.4356
 1601TIP3    H226439   0.202   4.307   6.269  0.1670  1.1331  0.2239
 1602TIP3   OH226440   3.607   0.609   1.559  0.2996 -0.0601  0.0124
 1602TIP3    H126441   3.630   0.613   1.652 -0.1484 -0.5467  0.1457
 1602TIP3    H226442   3.673   0.552   1.520  0.7368  0.4807 -0.0486
 1603TIP3   OH226443   5.195   1.230   0.509 -0.4020  0.0740  0.2272
 1603TIP3    H126444   5.119   1.195   0.555  0.8536 -0.3661  2.1280
 1603TIP3    H226445   5.177   1.324   0.500 -1.1034  0.0036  0.8026
 1604TIP3   OH226446   5.681   4.878   0.104  0.1377 -0.4140  0.3470
 1604TIP3    H126447   5.686   4.795   0.056 -0.5582 -0.7953  0.9061
 1604TIP3    H226448   5.607   4.924   0.063 -0.0739 -0.4818  0.6475
 1605TIP3   OH226449   1.889   6.261   8.215 -0.6371  0.1477 -0.4419
 1605TIP3    H126450   1.833   6.210   8.157 -0.9096  0.1425 -0.1809
 1605TIP3    H226451   1.962   6.289   8.161 -1.0830  0.4703 -0.8820
 1606TIP3   OH226452   2.194   2.476   6.322  0.8719 -0.0002 -0.0321
 1606TIP3    H126453   2.125   2.437   6.269  1.3819 -0.2465 -0.5266
 1606TIP3    H226454   2.179   2.570   6.316  1.1964 -0.0033 -0.9961
 1607TIP3   OH226455   0.792   4.849   1.464  0.8282 -0.5926  1.0304
 1607TIP3    H126456   0.829   4.767   1.497 -0.7412 -0.8874  2.2313
 1607TIP3    H226457   0.716   4.822   1.413 -0.0832  0.1031  1.9663
 1608TIP3   OH226458   0.306   4.333   7.866 -0.4429  0.3153 -0.2345
 1608TIP3    H126459   0.315   4.424   7.894 -4.3078  0.3184  1.6992
 1608TIP3    H226460   0.265   4.289   7.940 -2.8205 -1.9323 -2.6418
 1609TIP3   OH226461   1.033   2.939   0.554  0.3276 -0.0274  0.3948
 1609TIP3    H126462   1.045   3.011   0.492 -0.5376 -1.0679 -1.0669
 1609TIP3    H226463   1.120   2.901   0.563  0.7664  1.0887  1.0779
 1610TIP3   OH226464   5.229   0.343   7.970  0.2875 -0.5638  0.1110
 1610TIP3    H126465   5.263   0.255   7.986  0.6190 -0.4452  0.0755
 1610TIP3    H226466   5.237   0.355   7.876  1.0023 -0.1952  0.2101
 1611TIP3   OH226467   6.095   0.832   1.683  0.8105 -0.6373 -0.2011
 1611TIP3    H126468   6.186   0.805   1.697  0.7415 -2.6285 -2.8426
 1611TIP3    H226469   6.099   0.889   1.606 -0.0702  0.3882  0.4796
 1612TIP3   OH226470   1.953   2.240   1.744 -0.1421 -0.1932 -0.2096
 1612TIP3    H126471   1.967   2.244   1.838 -2.4280 -0.9741  0.2303
 1612TIP3    H226472   1.955   2.332   1.716 -1.7671  0.2763  1.0417
 1613TIP3   OH226473   1.831   0.989   1.563 -0.0032  0.0967  0.1767
 1613TIP3    H126474   1.906   0.930   1.553  0.4696  0.6764  0.2464
 1613TIP3    H226475   1.757   0.940   1.528  0.4527 -0.4000 -0.1021
 1614TIP3   OH226476   0.717   5.010   0.615  0.5061 -0.1002 -0.0142
 1614TIP3    H126477   0.741   4.978   0.702 -1.7018 -0.1491  0.6329
 1614TIP3    H226478   0.736   4.937   0.556  1.3511 -0.3242  0.5239
 1615TIP3   OH226479   3.910   4.176   6.480  0.1784  0.4461  0.6619
 1615TIP3    H126480   3.961   4.257   6.479  0.3013  0.3856  1.3008
 1615TIP3    H226481   3.974   4.109   6.503  0.5146 -0.1675 -1.7452
 1616TIP3   OH226482   4.071   2.499   7.525 -0.1650 -0.0170 -0.6373
 1616TIP3    H126483   4.021   2.418   7.510 -0.8059 -0.0422  1.3764
 1616TIP3    H226484   4.158   2.479   7.492 -0.6364 -1.1071 -1.2896
 1617TIP3   OH226485   6.529   0.233   1.294 -0.0960 -0.1065 -0.5930
 1617TIP3    H126486   6.442   0.234   1.254 -1.3723 -1.5548  1.9374
 1617TIP3    H226487   6.561   0.144   1.279 -0.0455 -0.2680  0.4188
 1618TIP3   OH226488   5.726   0.224   7.356  0.0979 -0.1587 -0.0592
 1618TIP3    H126489   5.757   0.302   7.310  1.3190 -0.5750  0.0116
 1618TIP3    H226490   5.742   0.243   7.449  0.7261 -0.6100 -0.0650
 1619TIP3   OH226491   2.853   6.314   1.788  0.6259  0.6505 -0.2989
 1619TIP3    H126492   2.840   6.304   1.693  1.6106 -0.0963 -0.3716
 1619TIP3    H226493   2.947   6.302   1.800  0.5038  0.7414  0.7842
 1620TIP3   OH226494   0.229   0.935   0.620  0.0732 -0.0283 -0.1140
 1620TIP3    H126495   0.290   0.882   0.569  0.3127 -1.0814  1.2065
 1620TIP3    H226496   0.179   0.984   0.555 -0.3176 -2.0560 -1.4155
 1621TIP3   OH226497   3.496   1.011   8.608 -0.2407 -0.0614  0.4501
 1621TIP3    H126498   3.452   1.022   8.693  0.2577 -0.8585  0.8262
 1621TIP3    H226499   3.576   0.963   8.629  0.9593  1.5828 -0.1883
 1622TIP3   OH226500   6.219   5.508   1.193 -0.2061  0.1106 -0.8048
 1622TIP3    H126501   6.153   5.479   1.255 -0.3738 -1.4748 -1.6818
 1622TIP3    H226502   6.266   5.428   1.168  0.7421  0.9092 -1.6983
 1623TIP3   OH226503   2.259   5.808   7.395  0.5506  0.0359 -0.6643
 1623TIP3    H126504   2.258   5.804   7.299  3.7413  2.7718 -1.0006
 1623TIP3    H226505   2.329   5.748   7.421 -0.1131 -0.4790 -0.0206
 1624TIP3   OH226506   6.569   5.783   7.881 -0.6833  0.5853 -0.1490
 1624TIP3    H126507   6.529   5.720   7.940 -1.6504  0.4553 -0.9219
 1624TIP3    H226508   6.496   5.835   7.847  0.0626  2.0223  0.3243
 1625TIP3   OH226509   6.762   2.056   0.891  0.2186 -0.3720 -0.1367
 1625TIP3    H126510   6.857   2.058   0.887  0.3782 -0.2166  2.2270
 1625TIP3    H226511   6.740   2.115   0.963 -1.7870  0.8941 -1.6690
 1626TIP3   OH226512   5.798   1.941   0.894 -0.0842 -0.5886 -0.0008
 1626TIP3    H126513   5.826   1.989   0.972  0.1677  0.3804 -0.6679
 1626TIP3    H226514   5.875   1.892   0.867 -0.7686 -2.7066  1.5889
 1627TIP3   OH226515   1.936   3.244   0.380 -0.9472  0.6182 -0.1463
 1627TIP3    H126516   1.956   3.320   0.434 -0.1660 -0.1160  0.6345
 1627TIP3    H226517   1.988   3.173   0.418 -2.7841 -0.6725  0.0709
 1628TIP3   OH226518   5.336   6.216   6.817 -0.0480  1.0258  0.0579
 1628TIP3    H126519   5.409   6.271   6.790  0.2975  0.4166 -0.2808
 1628TIP3    H226520   5.378   6.137   6.851 -0.5460  0.7562  0.0445
 1629TIP3   OH226521   6.889   3.213   7.801 -0.3819 -0.0454 -0.4999
 1629TIP3    H126522   6.921   3.129   7.767 -1.1293 -0.2267 -0.7632
 1629TIP3    H226523   6.925   3.279   7.742 -0.2117 -0.2202 -0.5914
 1630TIP3   OH226524   3.001   4.893   1.672  0.0653 -0.3759 -0.2674
 1630TIP3    H126525   2.927   4.953   1.688 -0.7703 -1.1323 -1.2061
 1630TIP3    H226526   2.992   4.826   1.739 -1.0154 -1.2952 -1.2980
 1631TIP3   OH226527   1.302   1.732   1.109  0.3998 -0.0733  0.5285
 1631TIP3    H126528   1.214   1.765   1.129  1.4100  2.8753  0.5443
 1631TIP3    H226529   1.358   1.770   1.176  1.7009 -2.1094  0.6622
 1632TIP3   OH226530   1.384   4.568   6.386  0.1410  0.1116  0.2874
 1632TIP3    H126531   1.431   4.647   6.360 -0.1682  0.0032 -0.6342
 1632TIP3    H226532   1.427   4.498   6.336 -0.3187 -0.1367  0.2369
 1633TIP3   OH226533   1.620   4.499   1.015  0.1038  0.1670 -0.1078
 1633TIP3    H126534   1.699   4.461   1.054  1.3134  2.7404  0.2145
 1633TIP3    H226535   1.559   4.507   1.088 -0.5222 -1.8859 -0.3664
 1634TIP3   OH226536   6.717   0.457   0.657 -0.3966 -0.5548  0.0851
 1634TIP3    H126537   6.762   0.528   0.703  0.9218 -1.9067  0.9670
 1634TIP3    H226538   6.629   0.491   0.639  0.5453  1.6915 -0.5376
 1635TIP3   OH226539   0.354   6.728   8.602 -0.4626 -0.3769 -0.0031
 1635TIP3    H126540   0.347   6.821   8.580 -1.5676  0.2887  2.6482
 1635TIP3    H226541   0.268   6.707   8.640 -0.0011 -2.3017  0.0440
 1636TIP3   OH226542   0.260   3.368   0.659 -0.0455  0.6525 -0.1943
 1636TIP3    H126543   0.258   3.306   0.732 -1.0851  0.1272 -0.6529
 1636TIP3    H226544   0.236   3.452   0.699 -0.2250  0.4473  0.1350
 1637TIP3   OH226545   1.844   4.185   7.172 -0.2599  0.2799 -0.1673
 1637TIP3    H126546   1.759   4.204   7.133 -1.0412 -0.0535  1.2740
 1637TIP3    H226547   1.837   4.094   7.201  0.6946  0.1620 -0.2585
 1638TIP3   OH226548   5.385   4.584   7.277  0.3090 -0.1576  0.3909
 1638TIP3    H126549   5.379   4.549   7.188  2.4064 -0.9243  0.4890
 1638TIP3    H226550   5.478   4.602   7.289 -0.2135  2.0081  1.6898
 1639TIP3   OH226551   6.261   4.920   8.409  0.5111  0.8288  0.1034
 1639TIP3    H126552   6.174   4.958   8.422  0.6177  0.6832  1.3941
 1639TIP3    H226553   6.320   4.981   8.454  1.0334  0.7275 -0.4385
 1640TIP3   OH226554   2.446   3.498   7.586 -0.3673 -0.1074  0.9375
 1640TIP3    H126555   2.501   3.430   7.627  1.1320 -0.4054 -1.3965
 1640TIP3    H226556   2.501   3.577   7.588 -0.7528  0.1701  0.5723
 1641TIP3   OH226557   0.704   1.912   0.161  0.1260 -0.2511 -0.1625
 1641TIP3    H126558   0.785   1.963   0.167 -0.3890  0.3797  2.7838
 1641TIP3    H226559   0.726   1.826   0.196 -0.8239  0.4955  2.4573
 1642TIP3   OH226560   3.135   1.318   7.113  0.0118 -0.1421  0.2439
 1642TIP3    H126561   3.185   1.259   7.057 -0.5649 -0.6960  0.3016
 1642TIP3    H226562   3.104   1.263   7.185 -0.2305  0.3102  0.4953
 1643TIP3   OH226563   0.575   2.397   2.387 -0.0534 -0.0485  0.2184
 1643TIP3    H126564   0.644   2.369   2.327  0.9833 -0.4138  1.5374
 1643TIP3    H226565   0.565   2.491   2.370  0.0291 -0.1917 -0.6820
 1644TIP3   OH226566   4.411   2.132   1.520 -0.3157 -0.2079 -0.2996
 1644TIP3    H126567   4.492   2.107   1.477  0.6078 -0.1959  1.3795
 1644TIP3    H226568   4.347   2.068   1.490  0.2958 -0.2277 -1.6229
 1645TIP3   OH226569   3.033   3.255   2.671 -0.3918  0.2450 -0.2357
 1645TIP3    H126570   3.060   3.327   2.615  2.0416  0.4283  1.0431
 1645TIP3    H226571   3.092   3.183   2.647  1.6829  0.7280  2.8639
 1646TIP3   OH226572   4.624   1.136   1.600  0.4437 -0.2632  0.6158
 1646TIP3    H126573   4.597   1.217   1.558  0.3757  0.0995  1.3406
 1646TIP3    H226574   4.567   1.129   1.677  0.0249 -1.3161  0.2335
 1647TIP3   OH226575   1.905   1.314   7.854  0.3230  1.1995 -0.4141
 1647TIP3    H126576   1.840   1.384   7.853  0.3050  1.1872 -0.2261
 1647TIP3    H226577   1.879   1.259   7.928  0.2196  0.8819 -0.6828
 1648TIP3   OH226578   6.229   1.190   0.587  0.6543  0.3341  0.2445
 1648TIP3    H126579   6.196   1.255   0.649  1.5821  1.2725 -0.1979
 1648TIP3    H226580   6.315   1.165   0.622  1.2666  1.0097 -0.7178
 1649TIP3   OH226581   4.854   5.186   8.059  0.5197 -0.3305  0.0902
 1649TIP3    H126582   4.843   5.272   8.098 -1.1453 -0.9508  1.0757
 1649TIP3    H226583   4.838   5.199   7.966  0.5206  0.4472  0.1959
 1650TIP3   OH226584   6.078   5.788   7.310 -0.5277  0.1505 -0.0637
 1650TIP3    H126585   6.105   5.698   7.293  3.1995  1.3152 -1.2599
 1650TIP3    H226586   6.093   5.801   7.403  0.1170 -0.1262 -0.1260
 1651TIP3   OH226587   2.441   1.071   7.308 -0.7286  0.4890 -0.5752
 1651TIP3    H126588   2.348   1.069   7.285 -0.5543  0.7019 -1.3148
 1651TIP3    H226589   2.487   1.074   7.224 -0.0775  1.5193 -0.2106
 1652TIP3   OH226590   6.878   5.777   2.198 -0.0624 -0.1705  0.6233
 1652TIP3    H126591   6.872   5.872   2.198  0.3755 -0.0891 -1.4470
 1652TIP3    H226592   6.792   5.748   2.167  0.4173 -0.3247 -0.6357
 1653TIP3   OH226593   4.347   6.533   1.445 -0.0223  0.1059 -0.4171
 1653TIP3    H126594   4.435   6.547   1.409  0.7223  0.6104  1.4727
 1653TIP3    H226595   4.352   6.448   1.489  0.2960  1.1522  1.7035
 1654TIP3   OH226596   6.868   1.994   8.182  0.0629  0.3694  0.5572
 1654TIP3    H126597   6.920   1.971   8.105  1.5290 -0.4690  1.7413
 1654TIP3    H226598   6.920   2.060   8.228  0.6916 -1.2632  2.3217
 1655TIP3   OH226599   6.004   2.802   1.374 -0.3149  0.3687 -0.5098
 1655TIP3    H126600   6.048   2.885   1.387  0.4513  0.1793 -1.8080
 1655TIP3    H226601   5.936   2.800   1.443  0.0609  1.7586 -0.0726
 1656TIP3   OH226602   5.079   5.208   7.418 -0.5152 -0.2548 -0.4256
 1656TIP3    H126603   5.099   5.135   7.478  0.8555 -0.7430 -1.4408
 1656TIP3    H226604   5.136   5.279   7.448  0.0426 -0.4441 -1.0230
 1657TIP3   OH226605   2.938   3.857   1.173 -0.2857  0.0522  0.1073
 1657TIP3    H126606   2.911   3.816   1.090 -0.3421 -1.7951  0.9845
 1657TIP3    H226607   2.856   3.876   1.218 -0.2288 -0.9247  0.6378
 1658TIP3   OH226608   3.848   0.456   7.166 -0.3334  0.1961  0.3811
 1658TIP3    H126609   3.939   0.426   7.153 -0.8717 -2.6989  2.2780
 1658TIP3    H226610   3.800   0.417   7.093 -0.2274  0.7833 -0.0023
 1659TIP3   OH226611   3.523   0.976   7.842 -0.2541 -0.4103 -0.3304
 1659TIP3    H126612   3.464   1.052   7.850 -1.8488 -1.5660 -0.6797
 1659TIP3    H226613   3.606   1.007   7.878 -1.2037  1.1433  0.6517
 1660TIP3   OH226614   1.669   6.113   0.122 -0.0231 -0.4152  0.4499
 1660TIP3    H126615   1.703   6.201   0.137 -1.3154  0.2407 -0.3351
 1660TIP3    H226616   1.699   6.062   0.197  2.5270  0.1491 -0.0941
 1661TIP3   OH226617   6.522   0.460   8.331  0.0512 -0.1882  0.3243
 1661TIP3    H126618   6.594   0.500   8.379 -0.0808 -1.1551  1.3848
 1661TIP3    H226619   6.459   0.531   8.317  1.2461  0.6928 -0.7376
 1662TIP3   OH226620   2.430   0.362   0.062 -0.1249  0.0326 -0.0461
 1662TIP3    H126621   2.439   0.267   0.059 -1.4598 -0.0982 -1.1337
 1662TIP3    H226622   2.343   0.379   0.024 -0.1275  1.6525  0.5964
 1663TIP3   OH226623   1.968   0.649   2.341  0.2316  0.5061 -0.4176
 1663TIP3    H126624   1.961   0.574   2.281 -0.3764  0.0718  0.1813
 1663TIP3    H226625   2.063   0.661   2.353  0.5743  2.5483 -3.8196
 1664TIP3   OH226626   0.358   5.164   1.090 -0.2925 -0.3089 -0.5804
 1664TIP3    H126627   0.409   5.117   1.024  0.6734 -0.8789  0.5439
 1664TIP3    H226628   0.319   5.096   1.144  1.3610  0.0878  1.2508
 1665TIP3   OH226629   0.728   1.176   1.643  0.2447 -0.2601 -0.3271
 1665TIP3    H126630   0.716   1.089   1.682 -0.1438  0.5949  1.5815
 1665TIP3    H226631   0.718   1.161   1.549  0.9424 -2.3905 -0.1255
 1666TIP3   OH226632   2.396   0.241   7.123  0.0249 -0.4609 -0.2895
 1666TIP3    H126633   2.343   0.202   7.053 -1.5442 -2.1213  1.7031
 1666TIP3    H226634   2.436   0.167   7.167  1.2071  0.5686  0.4356
 1667TIP3   OH226635   6.105   6.523   8.338  0.1497  0.3662 -0.1111
 1667TIP3    H126636   6.069   6.566   8.415 -1.5061 -1.4134  0.1992
 1667TIP3    H226637   6.184   6.573   8.317 -2.7572  5.0563 -1.2868
 1668TIP3   OH226638   1.302   5.059   8.371 -0.1565  0.0171 -0.3625
 1668TIP3    H126639   1.230   5.041   8.310  0.1751  0.0264 -0.7636
 1668TIP3    H226640   1.378   5.017   8.331 -0.2117 -1.2800  0.7849
 1669TIP3   OH226641   6.056   2.147   0.211 -0.0631  0.0335  0.1920
 1669TIP3    H126642   6.145   2.159   0.245  0.3165 -3.1608  0.6339
 1669TIP3    H226643   6.001   2.140   0.289 -0.1310 -1.2553  0.0601
 1670TIP3   OH226644   1.017   3.434   6.663  0.0943  0.2782  0.5920
 1670TIP3    H126645   1.057   3.349   6.645 -1.2390 -0.0738 -0.9518
 1670TIP3    H226646   0.937   3.434   6.610  0.7389  3.0260 -0.5046
 1671TIP3   OH226647   1.682   3.759   1.391 -1.0565 -0.3376  0.2705
 1671TIP3    H126648   1.622   3.690   1.363 -2.3203  0.6362  0.5137
 1671TIP3    H226649   1.757   3.751   1.331 -1.6528 -1.2437 -0.3749
 1672TIP3   OH226650   3.385   1.910   8.566 -0.1647 -0.0319 -0.1216
 1672TIP3    H126651   3.369   1.929   8.659  1.2322 -2.2554  0.6511
 1672TIP3    H226652   3.398   1.815   8.563 -1.5588 -0.2205 -2.8468
 1673TIP3   OH226653   4.500   6.556   6.892  0.1286  0.6115 -0.0007
 1673TIP3    H126654   4.412   6.538   6.926  0.6139 -0.5629  0.6893
 1673TIP3    H226655   4.543   6.605   6.962 -0.1568  1.6886 -0.5738
 1674TIP3   OH226656   5.083   5.609   6.218 -0.2732  0.2238 -0.2971
 1674TIP3    H126657   5.140   5.549   6.266  0.5945  1.0937 -0.2145
 1674TIP3    H226658   4.996   5.595   6.256  0.1570 -0.0430  0.6295
 1675TIP3   OH226659   0.681   4.856   7.005  0.1715  0.5755  0.2748
 1675TIP3    H126660   0.743   4.905   7.060  1.1855  0.5065 -0.7505
 1675TIP3    H226661   0.621   4.923   6.972  1.0504  1.0373 -0.4636
 1676TIP3   OH226662   1.525   3.519   1.573  0.2966 -0.3733  0.5461
 1676TIP3    H126663   1.512   3.614   1.575  3.7835  0.2468 -0.4105
 1676TIP3    H226664   1.527   3.497   1.480 -0.4111 -1.4029  0.7591
 1677TIP3   OH226665   0.773   4.319   7.267  0.6408 -0.0344 -0.4559
 1677TIP3    H126666   0.695   4.363   7.299 -0.5353 -1.8094 -0.7618
 1677TIP3    H226667   0.840   4.387   7.266 -1.0520  1.7031 -0.8221
 1678TIP3   OH226668   6.858   5.588   0.414  0.2388 -0.0001  0.0710
 1678TIP3    H126669   6.844   5.682   0.410 -0.7293 -0.1546 -0.9360
 1678TIP3    H226670   6.938   5.573   0.364  1.5316  0.4567  1.9250
 1679TIP3   OH226671   6.393   6.653   0.379  0.1855 -0.3282 -0.4604
 1679TIP3    H126672   6.382   6.747   0.364 -2.6528 -0.1859  1.5989
 1679TIP3    H226673   6.469   6.629   0.327  0.0287  2.7663 -2.3871
 1680TIP3   OH226674   2.780   2.107   7.983 -0.7514 -0.2352 -0.1341
 1680TIP3    H126675   2.847   2.115   8.050 -0.4165  0.8510 -0.5677
 1680TIP3    H226676   2.825   2.066   7.909 -1.0071 -1.0237  0.1328
 1681TIP3   OH226677   6.211   6.234   0.364  0.5666  0.2925 -0.2045
 1681TIP3    H126678   6.306   6.220   0.365  0.3820 -1.1795 -0.4873
 1681TIP3    H226679   6.174   6.147   0.383 -0.7203  0.9822  0.5718
 1682TIP3   OH226680   1.347   0.660   7.532  0.4719  0.2305 -0.1625
 1682TIP3    H126681   1.341   0.739   7.478 -1.1617  0.4062  0.1985
 1682TIP3    H226682   1.382   0.593   7.473 -0.1272  0.7197 -1.1014
 1683TIP3   OH226683   1.310   2.116   7.955  0.1071  0.3075  0.3129
 1683TIP3    H126684   1.361   2.140   8.032  1.0313  1.0967 -0.5125
 1683TIP3    H226685   1.253   2.046   7.985  1.5355 -0.4771  1.3322
 1684TIP3   OH226686   3.164   0.450   8.398  0.4284 -0.3806  0.0877
 1684TIP3    H126687   3.150   0.366   8.354  0.7990  0.9746 -2.8460
 1684TIP3    H226688   3.088   0.502   8.373  0.8996  0.6057  0.6722
 1685TIP3   OH226689   6.558   0.333   8.030  0.2348 -0.2195 -0.0509
 1685TIP3    H126690   6.652   0.315   8.028  0.3630 -0.1895  2.4428
 1685TIP3    H226691   6.535   0.330   8.123 -1.9567  1.2480 -0.4744
 1686TIP3   OH226692   5.025   6.869   1.785  0.3430 -0.0146  0.6590
 1686TIP3    H126693   5.080   6.851   1.861 -1.6526 -2.1894  1.7046
 1686TIP3    H226694   4.954   6.923   1.819  0.6896  1.0450 -0.2360
 1687TIP3   OH226695   1.819   3.464   1.680 -0.2175 -0.0677 -0.3086
 1687TIP3    H126696   1.732   3.491   1.648  0.2433 -0.6809 -2.1994
 1687TIP3    H226697   1.877   3.535   1.653 -0.0695  0.2500  0.7931
 1688TIP3   OH226698   6.788   0.332   8.639  0.0199  0.1305 -1.4025
 1688TIP3    H126699   6.854   0.271   8.607  0.0756 -0.6825  0.1489
 1688TIP3    H226700   6.806   0.414   8.593  2.0866 -0.0828 -1.0775
 1689TIP3   OH226701   3.476   4.041   1.803 -0.0369 -0.2834 -0.0203
 1689TIP3    H126702   3.454   4.076   1.890 -0.4206 -1.8388  0.5497
 1689TIP3    H226703   3.403   4.068   1.747  0.0449  0.4475  0.2172
 1690TIP3   OH226704   1.059   1.667   6.914  0.0077  1.0597  0.0701
 1690TIP3    H126705   1.155   1.661   6.920  0.2043  1.3932 -1.8924
 1690TIP3    H226706   1.044   1.756   6.881 -0.9014  0.6824 -0.5600
 1691TIP3   OH226707   5.981   1.833   0.131 -0.3808  0.2149  0.2163
 1691TIP3    H126708   5.944   1.746   0.118 -0.4496  0.3425 -0.5097
 1691TIP3    H226709   5.916   1.879   0.183 -2.7525  1.3486 -3.3328
 1692TIP3   OH226710   3.707   1.306   2.124 -0.0108  0.1869  0.1148
 1692TIP3    H126711   3.731   1.279   2.035  0.7275  0.9498  0.0599
 1692TIP3    H226712   3.773   1.265   2.180  1.7470  2.5026 -0.0584
 1693TIP3   OH226713   2.886   5.191   1.212  0.1070 -1.0448 -0.3074
 1693TIP3    H126714   2.852   5.187   1.123  1.1318 -0.8400 -0.7157
 1693TIP3    H226715   2.976   5.160   1.205  2.0899  3.8291 -0.3309
 1694TIP3   OH226716   0.228   1.921   6.576  0.4483  0.3239  0.4106
 1694TIP3    H126717   0.195   1.989   6.634  1.5925  1.7947 -0.6073
 1694TIP3    H226718   0.282   1.967   6.512  2.3884 -1.6540  0.4794
 1695TIP3   OH226719   1.052   0.403   1.995 -0.2821  0.3678  0.2072
 1695TIP3    H126720   1.115   0.346   2.039 -1.6047 -0.4970  1.0983
 1695TIP3    H226721   0.997   0.437   2.067 -1.3660  0.3830 -0.6010
 1696TIP3   OH226722   3.739   0.685   7.924 -0.6587 -0.0271  0.5970
 1696TIP3    H126723   3.783   0.605   7.895  0.4770  0.7528  0.1342
 1696TIP3    H226724   3.691   0.715   7.847 -0.0763  0.4139  0.4069
 1697TIP3   OH226725   6.127   6.487   2.098 -0.0476 -0.1356 -0.1991
 1697TIP3    H126726   6.193   6.545   2.136  0.2411 -0.8508  0.4040
 1697TIP3    H226727   6.047   6.505   2.148  0.6257 -1.9421  1.6236
 1698TIP3   OH226728   1.484   1.795   0.886 -0.1631 -0.0909  0.7141
 1698TIP3    H126729   1.425   1.763   0.955  1.3236 -2.5960  0.9090
 1698TIP3    H226730   1.546   1.852   0.932 -2.4897  2.9160  0.4500
 1699TIP3   OH226731   4.395   6.178   7.492 -0.3255  0.1907 -0.1377
 1699TIP3    H126732   4.482   6.200   7.460  0.2240  0.0921  1.2289
 1699TIP3    H226733   4.344   6.160   7.413  0.8051  0.5354 -0.9662
 1700TIP3   OH226734   4.867   2.689   0.945  0.2545 -0.2050 -0.1008
 1700TIP3    H126735   4.775   2.700   0.972  0.6018  2.0047  0.3928
 1700TIP3    H226736   4.866   2.706   0.851  0.2641  0.8186  0.0692
 1701TIP3   OH226737   2.628   0.549   8.046 -0.0637  0.5179 -0.3006
 1701TIP3    H126738   2.544   0.543   8.091  0.4849 -0.5620  0.6237
 1701TIP3    H226739   2.657   0.459   8.036  0.3659  0.7967 -1.8386
 1702TIP3   OH226740   5.727   0.670   1.182  0.4939 -0.0507 -0.5312
 1702TIP3    H126741   5.792   0.637   1.245  0.3619 -0.8889 -0.8204
 1702TIP3    H226742   5.714   0.761   1.207  0.5952 -0.3094  0.5455
 1703TIP3   OH226743   3.097   0.727   7.070  0.2223 -0.2359 -0.8768
 1703TIP3    H126744   3.129   0.638   7.054  1.0617 -0.0937 -0.0886
 1703TIP3    H226745   3.168   0.769   7.118 -0.5371  0.5883 -0.4572
 1704TIP3   OH226746   5.821   1.376   0.383  0.8925  0.3308 -0.3696
 1704TIP3    H126747   5.850   1.340   0.467 -0.8193  0.1790  0.1907
 1704TIP3    H226748   5.794   1.299   0.332  1.8770  0.4275 -1.0521
 1705TIP3   OH226749   1.337   5.092   6.959 -0.5115 -0.2350 -0.2931
 1705TIP3    H126750   1.255   5.129   6.927  0.1508  0.6232 -1.0699
 1705TIP3    H226751   1.404   5.154   6.929  0.2030  0.6658  2.7956
 1706TIP3   OH226752   0.676   1.666   0.334 -0.4246 -0.1163 -0.5343
 1706TIP3    H126753   0.613   1.619   0.390  0.3935  0.4116  0.8887
 1706TIP3    H226754   0.661   1.630   0.247 -0.7137 -2.1002  0.2714
 1707TIP3   OH226755   4.119   0.932   0.663  0.3420 -0.0018 -0.6774
 1707TIP3    H126756   4.099   0.969   0.749 -0.0771 -2.9660  0.5949
 1707TIP3    H226757   4.059   0.978   0.603 -0.1151  1.3476  0.7526
 1708TIP3   OH226758   3.238   2.123   7.144 -0.2218 -0.2506 -0.0612
 1708TIP3    H126759   3.143   2.135   7.139 -0.1988 -0.5362 -2.0593
 1708TIP3    H226760   3.257   2.058   7.076  1.5307  0.6100 -0.4453
 1709TIP3   OH226761   4.481   3.885   1.925 -0.3103  0.2110 -0.2871
 1709TIP3    H126762   4.542   3.829   1.975 -0.0537 -0.6258 -1.4939
 1709TIP3    H226763   4.400   3.834   1.920 -0.4247  0.4117 -0.4911
 1710TIP3   OH226764   1.592   2.491   8.466 -0.3141  0.3291  0.0392
 1710TIP3    H126765   1.545   2.495   8.549 -0.4994 -2.8974  0.2233
 1710TIP3    H226766   1.528   2.520   8.401 -0.8884  0.7833  0.7916
 1711TIP3   OH226767   3.318   1.884   0.154 -0.4468 -0.1201 -0.2998
 1711TIP3    H126768   3.237   1.881   0.205 -1.3875  0.9000 -1.6715
 1711TIP3    H226769   3.386   1.903   0.219 -1.3652 -0.4304  0.7949
 1712TIP3   OH226770   5.666   0.456   0.574  0.1262  0.3560  0.1193
 1712TIP3    H126771   5.696   0.449   0.483  0.5938  0.4944  0.2631
 1712TIP3    H226772   5.746   0.455   0.626 -0.1746 -0.2865  0.5700
 1713TIP3   OH226773   1.616   6.061   0.428  0.3600  0.5818 -0.3353
 1713TIP3    H126774   1.550   6.130   0.424  0.6297  0.9196  0.8522
 1713TIP3    H226775   1.589   6.007   0.502  1.1709  0.4747 -0.1161
 1714TIP3   OH226776   4.622   1.651   1.911  0.2694  0.4422  0.1745
 1714TIP3    H126777   4.684   1.647   1.838  0.7356  0.1113  0.5795
 1714TIP3    H226778   4.611   1.745   1.929  0.9226  0.4931  0.3218
 1715TIP3   OH226779   2.689   2.018   6.810 -0.7190 -0.2542  0.0419
 1715TIP3    H126780   2.771   2.064   6.796 -1.3696  1.0433  0.3615
 1715TIP3    H226781   2.673   1.972   6.727  0.1653 -0.2929 -0.1180
 1716TIP3   OH226782   0.543   5.248   1.615  0.6321 -0.3282 -0.2407
 1716TIP3    H126783   0.466   5.304   1.628 -2.4885 -3.5596 -2.6351
 1716TIP3    H226784   0.591   5.290   1.544  0.8954  1.5483  1.0037
 1717TIP3   OH226785   5.080   4.070   0.632 -0.2951 -0.3433 -0.0735
 1717TIP3    H126786   5.117   3.988   0.599  0.1496 -0.8838  1.6614
 1717TIP3    H226787   5.131   4.138   0.587  1.7656 -1.0637  0.9985
 1718TIP3   OH226788   6.261   3.729   0.911 -0.2187  0.0693 -0.0365
 1718TIP3    H126789   6.280   3.679   0.991  0.7957  0.1693 -0.1991
 1718TIP3    H226790   6.336   3.713   0.854 -0.9047  0.0513 -0.9542
 1719TIP3   OH226791   3.699   4.119   8.262  0.0488 -0.0862  0.1448
 1719TIP3    H126792   3.759   4.045   8.249 -0.8319 -0.8489  0.3315
 1719TIP3    H226793   3.633   4.086   8.322 -1.7974  0.0074 -1.7205
 1720TIP3   OH226794   6.554   1.808   0.122  0.1182  0.5945 -0.0319
 1720TIP3    H126795   6.474   1.859   0.118  0.2472  0.7330 -1.6630
 1720TIP3    H226796   6.620   1.865   0.082  0.2014 -0.8800 -2.1728
 1721TIP3   OH226797   3.962   2.537   1.702 -0.2641 -0.4865  0.4788
 1721TIP3    H126798   3.994   2.455   1.739  1.3587 -0.0947  0.0105
 1721TIP3    H226799   3.910   2.576   1.773 -0.7241 -1.7155  0.8383
 1722TIP3   OH226800   0.905   3.944   0.694 -0.4343  0.0450 -0.3008
 1722TIP3    H126801   0.998   3.938   0.713 -0.5201 -0.4740 -0.0250
 1722TIP3    H226802   0.872   4.011   0.754 -0.3978 -0.4120  0.2436
 1723TIP3   OH226803   4.316   3.124   7.552  0.7659  0.3681  0.0571
 1723TIP3    H126804   4.256   3.063   7.509 -1.0083  2.0372  0.0124
 1723TIP3    H226805   4.363   3.167   7.481  1.4509 -0.3740  0.0531
 1724TIP3   OH226806   2.111   5.294   7.042 -0.3173 -0.3286  0.6477
 1724TIP3    H126807   2.106   5.331   7.130  2.2398 -0.1848  0.7996
 1724TIP3    H226808   2.196   5.322   7.008 -1.2421 -0.3564 -1.9135
 1725TIP3   OH226809   3.088   1.822   0.293  0.6549 -0.0752 -0.5244
 1725TIP3    H126810   3.056   1.807   0.382  4.2182  0.5047  1.0408
 1725TIP3    H226811   3.009   1.842   0.243 -1.4728  0.3864  2.6500
 1726TIP3   OH226812   3.843   4.055   7.794  0.2735 -0.2909 -0.1629
 1726TIP3    H126813   3.790   4.103   7.731  1.2324  1.4963  0.3374
 1726TIP3    H226814   3.932   4.088   7.781  0.8059 -1.2526  0.8542
 1727TIP3   OH226815   3.136   5.631   1.167  0.2087 -0.1466 -0.0175
 1727TIP3    H126816   3.158   5.546   1.130 -0.5437 -0.0832 -0.6320
 1727TIP3    H226817   3.041   5.633   1.167  0.2222  0.6552  0.0937
 1728TIP3   OH226818   4.200   5.747   8.603  0.0842  0.1755  0.0685
 1728TIP3    H126819   4.154   5.776   8.682 -0.9667  1.8674 -1.0841
 1728TIP3    H226820   4.287   5.788   8.610  0.3113 -0.4044  0.7456
 1729TIP3   OH226821   6.827   3.572   1.463  0.2663  0.4043 -0.3728
 1729TIP3    H126822   6.772   3.493   1.463 -1.0057  1.2451 -1.2079
 1729TIP3    H226823   6.798   3.621   1.540  0.3218  0.5320 -0.4329
 1730TIP3   OH226824   2.627   1.762   7.357  0.0170  0.1944 -0.0333
 1730TIP3    H126825   2.691   1.829   7.382 -0.5206  0.8792 -0.4405
 1730TIP3    H226826   2.680   1.692   7.318  0.4784  1.1175 -1.1413
 1731TIP3   OH226827   3.717   0.013   6.533 -0.2000  0.1824  0.2690
 1731TIP3    H126828   3.731  -0.081   6.535 -0.2460  0.1621 -0.2169
 1731TIP3    H226829   3.744   0.040   6.445 -0.4325  0.5835  0.3142
 1732TIP3   OH226830   0.435   1.918   0.292  0.8612 -0.2638  0.0518
 1732TIP3    H126831   0.435   1.849   0.358  1.1222 -0.2820  0.0336
 1732TIP3    H226832   0.527   1.933   0.272  0.7804 -0.4089 -0.4655
 1733TIP3   OH226833   3.621   4.733   6.061 -0.2088 -0.2405  0.4657
 1733TIP3    H126834   3.621   4.813   6.008  2.1500  0.3059  1.1518
 1733TIP3    H226835   3.568   4.755   6.138  2.4144  1.7071  1.9140
 1734TIP3   OH226836   1.824   4.221   1.323  0.3393  0.8466 -0.4065
 1734TIP3    H126837   1.913   4.215   1.356  0.0293 -1.7687  0.1550
 1734TIP3    H226838   1.771   4.238   1.400  0.1633  0.4338 -0.4358
 1735TIP3   OH226839   6.035   3.329   7.583  0.1483 -0.3576 -0.1030
 1735TIP3    H126840   6.110   3.294   7.631  0.0927 -1.6139 -0.8795
 1735TIP3    H226841   5.959   3.311   7.639  0.2117 -0.7790 -0.1543
 1736TIP3   OH226842   3.456   6.499   8.603 -0.3572 -0.3610 -0.0766
 1736TIP3    H126843   3.506   6.418   8.598 -0.0545 -0.1394 -0.7725
 1736TIP3    H226844   3.395   6.494   8.529  0.4311  0.5369 -0.8093
 1737TIP3   OH226845   1.157   3.668   7.766 -0.3976 -0.0795  0.5970
 1737TIP3    H126846   1.240   3.622   7.748 -0.8562 -1.0467  0.8956
 1737TIP3    H226847   1.165   3.696   7.857 -0.2522  0.1528  0.5143
 1738TIP3   OH226848   4.763   1.855   6.944 -0.4874 -0.4736 -0.6748
 1738TIP3    H126849   4.833   1.889   6.888  1.4126 -0.9016  1.3116
 1738TIP3    H226850   4.791   1.766   6.966 -1.9786 -0.8772 -0.3055
 1739TIP3   OH226851   1.684   4.868   7.263  0.0922 -0.3374 -0.4022
 1739TIP3    H126852   1.753   4.921   7.304  1.3983 -1.6880 -0.7665
 1739TIP3    H226853   1.607   4.925   7.264  0.6999  0.5520  1.7055
 1740TIP3   OH226854   0.612   3.374   8.464 -0.1844  0.4402  0.3736
 1740TIP3    H126855   0.602   3.299   8.522 -3.0116 -0.0617 -0.5776
 1740TIP3    H226856   0.613   3.450   8.523  1.9516 -0.2406  1.2909
 1741TIP3   OH226857   5.147   1.837   8.554  0.0600 -0.1012  0.7213
 1741TIP3    H126858   5.143   1.744   8.577  1.3130 -0.1852  0.6429
 1741TIP3    H226859   5.212   1.842   8.484  1.0914  1.0285  1.7165
 1742TIP3   OH226860   5.383   4.692   1.487  0.5411 -0.5888  0.0697
 1742TIP3    H126861   5.475   4.669   1.493  0.4677 -1.0706 -0.5988
 1742TIP3    H226862   5.342   4.648   1.562  0.5407 -1.9692 -0.7176
 1743TIP3   OH226863   3.200   2.993   6.741 -0.0235 -0.2557 -0.2215
 1743TIP3    H126864   3.169   3.063   6.799 -2.1487 -0.5348 -0.9186
 1743TIP3    H226865   3.275   3.030   6.695  0.0127  0.9093  0.7369
 1744TIP3   OH226866   6.351   4.737   8.020  0.4588 -0.2698  0.0180
 1744TIP3    H126867   6.283   4.674   7.997  0.9842 -0.6330 -0.5898
 1744TIP3    H226868   6.418   4.685   8.065  0.3505  0.0758  0.5776
 1745TIP3   OH226869   4.773   6.860   1.118 -0.4593 -0.3273  0.3473
 1745TIP3    H126870   4.771   6.816   1.033 -0.0915  0.7043 -0.2180
 1745TIP3    H226871   4.746   6.950   1.099  1.6426  0.4883  0.9471
 1746TIP3   OH226872   4.841   5.812   7.585 -0.6131 -0.1222 -0.4116
 1746TIP3    H126873   4.866   5.766   7.505 -0.8932 -0.1034 -0.5086
 1746TIP3    H226874   4.806   5.895   7.554  0.6649  0.5260 -0.2070
 1747TIP3   OH226875   6.664   4.695   1.757 -0.2075 -0.2090  0.3341
 1747TIP3    H126876   6.620   4.639   1.694 -0.9258 -0.7579  1.2919
 1747TIP3    H226877   6.751   4.657   1.767  0.3319  0.5598 -1.1563
 1748TIP3   OH226878   4.475   3.993   7.127 -0.5755  0.1046  0.0257
 1748TIP3    H126879   4.491   3.914   7.178 -1.4930 -0.9945 -1.3060
 1748TIP3    H226880   4.504   3.970   7.039 -0.7256  1.3111 -0.3487
 1749TIP3   OH226881   5.052   1.230   1.237  0.6367 -0.5721  0.0987
 1749TIP3    H126882   4.961   1.201   1.226  0.1666  1.3860 -2.0637
 1749TIP3    H226883   5.091   1.219   1.150  1.3956  1.8757  0.0657
 1750TIP3   OH226884   1.260   3.363   8.126  0.4144 -0.6642 -0.1547
 1750TIP3    H126885   1.298   3.449   8.147 -2.9144  0.4326  2.0539
 1750TIP3    H226886   1.195   3.381   8.058 -0.1157 -1.4817  0.1163
 1751TIP3   OH226887   5.861   3.887   8.311  0.2115  0.0881  0.9394
 1751TIP3    H126888   5.868   3.835   8.231  0.3055  2.6093 -0.8188
 1751TIP3    H226889   5.952   3.899   8.340  0.2213 -0.3675  1.0943
 1752TIP3   OH226890   4.370   5.473   0.729 -0.3547  0.1914  0.2768
 1752TIP3    H126891   4.429   5.514   0.793 -0.7948  0.3562  0.5766
 1752TIP3    H226892   4.416   5.392   0.703  0.4250  0.7615 -0.1711
 1753TIP3   OH226893   3.348   6.301   8.405 -0.4057 -0.1325  0.2801
 1753TIP3    H126894   3.380   6.251   8.330 -1.6775 -0.5171 -0.0410
 1753TIP3    H226895   3.375   6.249   8.481  2.6163  1.2401  0.2797
 1754TIP3   OH226896   4.460   3.148   6.948 -0.2149 -0.4231 -0.3036
 1754TIP3    H126897   4.517   3.145   7.025 -1.7476 -1.2024  0.8582
 1754TIP3    H226898   4.436   3.240   6.939  1.8532  0.0831 -1.3518
 1755TIP3   OH226899   1.535   2.554   1.248  0.0523 -0.0776 -0.0397
 1755TIP3    H126900   1.618   2.597   1.228  0.2629 -0.6071 -0.3229
 1755TIP3    H226901   1.482   2.622   1.288  1.0081 -0.0030  1.1565
 1756TIP3   OH226902   0.835   2.527   1.956 -0.5263 -0.6814 -0.1523
 1756TIP3    H126903   0.784   2.470   2.013 -0.7527 -0.7583 -0.4278
 1756TIP3    H226904   0.775   2.597   1.931  0.1509  0.4658  1.3008
 1757TIP3   OH226905   1.446   4.777   6.652 -0.2972  0.1153 -0.2791
 1757TIP3    H126906   1.474   4.792   6.562  1.4344 -0.3482  0.1643
 1757TIP3    H226907   1.366   4.830   6.661 -0.6567 -0.0555 -2.1461
 1758TIP3   OH226908   2.125   2.195   8.090 -0.1877 -0.7117  0.1867
 1758TIP3    H126909   2.173   2.270   8.124  0.3983  0.2978 -2.5881
 1758TIP3    H226910   2.069   2.231   8.021 -0.2006 -2.7440 -0.9618
 1759TIP3   OH226911   0.993   1.366   8.099 -1.0412  0.3199  0.0789
 1759TIP3    H126912   0.932   1.296   8.074 -2.1297  1.8680 -1.9141
 1759TIP3    H226913   0.940   1.446   8.094  0.5151  1.4438  0.9025
 1760TIP3   OH226914   5.423   3.441   1.119  0.2085 -0.3460 -0.0005
 1760TIP3    H126915   5.363   3.466   1.190  0.1916  0.8223 -0.4147
 1760TIP3    H226916   5.367   3.433   1.042  0.4969  0.2449 -0.2794
 1761TIP3   OH226917   5.098   4.689   8.632 -0.2340 -0.0702 -0.2167
 1761TIP3    H126918   5.098   4.659   8.723 -2.4606 -1.9346 -0.7303
 1761TIP3    H226919   5.106   4.609   8.580  0.9702  0.9507 -1.7046
 1762TIP3   OH226920   3.263   6.560   6.775 -0.5551 -0.2904  0.4299
 1762TIP3    H126921   3.168   6.566   6.776 -0.7766 -2.4243 -0.6156
 1762TIP3    H226922   3.281   6.470   6.804  1.0938 -0.1880 -0.1604
 1763TIP3   OH226923   1.982   3.665   1.591  0.5904  0.1460 -0.7014
 1763TIP3    H126924   2.068   3.701   1.614  0.0567  1.1608 -0.2210
 1763TIP3    H226925   1.938   3.736   1.544 -0.5917  0.2359  0.4871
 1764TIP3   OH226926   4.191   0.252   1.673 -0.1574  0.0869 -0.1058
 1764TIP3    H126927   4.206   0.176   1.728 -1.8016  0.9349  1.6219
 1764TIP3    H226928   4.113   0.294   1.710  0.1333  2.0825 -1.5702
 1765TIP3   OH226929   3.663   4.326   6.658  0.6877  0.6943  0.6721
 1765TIP3    H126930   3.575   4.288   6.649  0.2992  1.3267  1.5712
 1765TIP3    H226931   3.721   4.261   6.620  0.0675 -0.9031  2.2948
 1766TIP3   OH226932   6.068   5.636   1.845  0.3496  0.2916  0.3716
 1766TIP3    H126933   6.117   5.718   1.851  1.7087 -0.4373 -0.2998
 1766TIP3    H226934   5.993   5.657   1.789  0.5856  1.1217  0.3600
 1767TIP3   OH226935   5.717   2.006   0.159 -0.6814  0.5017 -0.3373
 1767TIP3    H126936   5.661   2.073   0.198 -0.7618  0.2369  0.0136
 1767TIP3    H226937   5.778   1.983   0.230 -0.3010  0.5977 -0.6298
 1768TIP3   OH226938   0.016   6.860   7.876  0.3957 -0.6115  0.2430
 1768TIP3    H126939   0.065   6.778   7.865 -0.0061 -0.7093 -0.9853
 1768TIP3    H226940  -0.012   6.883   7.787  3.0274  2.4782  0.0421
 1769TIP3   OH226941   2.851   3.189   1.939 -0.5516  0.1398  0.1575
 1769TIP3    H126942   2.833   3.254   1.871 -1.2361 -1.1670 -0.9670
 1769TIP3    H226943   2.940   3.159   1.921 -0.5003  0.2526  0.2253
 1770TIP3   OH226944   5.280   1.964   0.094 -0.1716  0.5871 -0.0005
 1770TIP3    H126945   5.235   1.941   0.175  0.6750  0.6285  0.5020
 1770TIP3    H226946   5.244   1.904   0.029 -1.0223  0.7028  0.3541
 1771TIP3   OH226947   0.605   0.729   7.900 -0.4189 -0.3816 -0.2415
 1771TIP3    H126948   0.645   0.755   7.983  1.9080 -0.9312 -1.1291
 1771TIP3    H226949   0.576   0.812   7.861  1.6758  0.3005 -0.4399
 1772TIP3   OH226950   2.793   3.493   0.713  0.7332 -0.0113  0.2408
 1772TIP3    H126951   2.773   3.418   0.656  2.1445  0.4449 -0.9101
 1772TIP3    H226952   2.880   3.474   0.748  0.7043  0.6571  0.6939
 1773TIP3   OH226953   5.191   1.266   7.059  0.6590 -0.0538 -0.5237
 1773TIP3    H126954   5.267   1.227   7.016  1.3171  1.1030 -0.4661
 1773TIP3    H226955   5.132   1.291   6.988  1.0494  0.4497 -0.6807
 1774TIP3   OH226956   1.438   3.298   8.421 -0.2464 -0.1524  0.2708
 1774TIP3    H126957   1.475   3.381   8.450  0.6690 -1.3394  2.6951
 1774TIP3    H226958   1.483   3.280   8.338  2.0683  0.1627  1.3772
 1775TIP3   OH226959   4.403   4.593   7.419 -0.4765  0.1563 -0.0054
 1775TIP3    H126960   4.346   4.542   7.362 -0.6896  1.2392 -0.8084
 1775TIP3    H226961   4.353   4.673   7.437  0.8656  1.2810 -1.0047
 1776TIP3   OH226962   1.152   2.026   0.881 -0.1438 -0.4492 -0.4110
 1776TIP3    H126963   1.197   2.047   0.963 -0.0658 -0.8429 -0.3530
 1776TIP3    H226964   1.188   2.088   0.817 -1.3756  0.9860  0.1985
 1777TIP3   OH226965   2.242   2.467   1.376  0.3133 -0.1665  0.0653
 1777TIP3    H126966   2.315   2.406   1.369  0.5571  0.1792 -0.4185
 1777TIP3    H226967   2.281   2.553   1.362  0.2938  0.3077  2.4416
 1778TIP3   OH226968   0.424   2.566   0.480  0.5617 -0.0675  0.2048
 1778TIP3    H126969   0.330   2.553   0.487  0.2701  0.7944 -1.4287
 1778TIP3    H226970   0.451   2.597   0.566 -0.8376  0.6851  0.3975
 1779TIP3   OH226971   3.811   2.680   0.566  0.2205  0.0179 -0.0167
 1779TIP3    H126972   3.847   2.593   0.550  0.0803 -0.8633  3.5002
 1779TIP3    H226973   3.878   2.740   0.533  0.8466 -1.4154 -1.4924
 1780TIP3   OH226974   4.084   0.503   6.618 -0.2704 -0.8988 -0.2089
 1780TIP3    H126975   3.989   0.488   6.621  0.0713 -3.6207 -0.0178
 1780TIP3    H226976   4.094   0.598   6.621 -2.9024 -0.5240  3.1434
 1781TIP3   OH226977   2.039   0.503   1.756 -0.0180  0.1915  0.2786
 1781TIP3    H126978   2.002   0.422   1.721 -1.8674  1.2351 -0.3149
 1781TIP3    H226979   2.084   0.543   1.682 -0.6574  0.5623  0.0842
 1782TIP3   OH226980   1.757   6.427   7.446  0.4037  0.2186 -0.6579
 1782TIP3    H126981   1.754   6.405   7.539  1.7183  2.6170  0.0202
 1782TIP3    H226982   1.703   6.360   7.404 -0.5390 -0.7038  1.8584
 1783TIP3   OH226983   5.674   4.645   7.889 -0.2077  0.0191 -0.0317
 1783TIP3    H126984   5.663   4.678   7.800  2.7122 -1.6684 -1.1628
 1783TIP3    H226985   5.586   4.647   7.927 -1.3894  1.6582 -2.5996
 1784TIP3   OH226986   3.723   2.336   7.912 -0.0094 -0.4532 -0.3016
 1784TIP3    H126987   3.724   2.332   7.817 -0.4079 -0.2693 -0.3129
 1784TIP3    H226988   3.815   2.344   7.937  0.0818 -0.3511 -0.6765
 1785TIP3   OH226989   0.672   6.714   1.906  0.5151 -0.3226  0.1044
 1785TIP3    H126990   0.665   6.803   1.941  1.9649 -0.2043  0.1530
 1785TIP3    H226991   0.598   6.667   1.945  0.2163  0.6373  0.7369
 1786TIP3   OH226992   1.824   3.001   0.109  0.2410 -0.0777  0.5362
 1786TIP3    H126993   1.811   2.917   0.153 -1.2601  0.2975  0.8827
 1786TIP3    H226994   1.911   2.995   0.070  0.5374 -1.4292  1.3398
 1787TIP3   OH226995   6.700   5.919   6.563 -0.1684  0.0701 -0.5666
 1787TIP3    H126996   6.774   5.968   6.598 -0.6329  0.3326  0.0630
 1787TIP3    H226997   6.622   5.967   6.594 -0.6112 -0.6521 -0.5328
 1788TIP3   OH226998   1.332   0.385   8.423  0.3871  0.0890 -0.3731
 1788TIP3    H126999   1.238   0.401   8.435  0.6155  1.9946 -0.7600
 1788TIP3    H227000   1.373   0.434   8.494  1.1113 -0.8281 -0.1407
 1789TIP3   OH227001   5.947   1.768   0.713 -0.1377  0.0788 -0.0220
 1789TIP3    H127002   5.863   1.761   0.667 -0.0977  2.6733 -0.6411
 1789TIP3    H227003   6.012   1.745   0.647 -0.2816 -3.1954  0.7890
 1790TIP3   OH227004   3.260   3.078   1.619  0.8199  0.2101  0.2845
 1790TIP3    H127005   3.209   3.086   1.700 -1.0745 -0.5091 -0.7806
 1790TIP3    H227006   3.350   3.095   1.646  0.8238 -3.2470  3.2410
 1791TIP3   OH227007   3.837   3.255   1.635  0.1173 -0.1713  0.5351
 1791TIP3    H127008   3.779   3.332   1.629  1.2766  1.1902  4.2398
 1791TIP3    H227009   3.925   3.291   1.642  0.7853 -1.8617  1.5311
 1792TIP3   OH227010   3.553   4.255   7.288 -0.2278  0.2644  0.0583
 1792TIP3    H127011   3.463   4.260   7.321  0.2071 -1.0490  1.5889
 1792TIP3    H227012   3.577   4.163   7.297  1.5692  0.7274  0.5398
 1793TIP3   OH227013   4.097   0.594   7.379  0.4600 -0.2702  0.2510
 1793TIP3    H127014   4.076   0.529   7.446  1.4710 -0.6479  0.2190
 1793TIP3    H227015   4.089   0.546   7.296 -0.3540  0.0780  0.1233
 1794TIP3   OH227016   3.136   5.477   7.356 -0.3826  0.3423  0.1005
 1794TIP3    H127017   3.134   5.436   7.442  1.6858  0.3937  0.2228
 1794TIP3    H227018   3.177   5.562   7.370 -0.0633  0.3747 -0.9059
 1795TIP3   OH227019   4.637   1.298   0.431  0.4938 -0.0360 -0.1734
 1795TIP3    H127020   4.618   1.389   0.410  0.1283 -0.1983 -0.5660
 1795TIP3    H227021   4.641   1.295   0.526 -2.4808 -0.1804  0.0352
 1796TIP3   OH227022   5.349   5.918   1.693  0.1957 -0.0926  0.1766
 1796TIP3    H127023   5.385   5.867   1.766 -0.6544  1.0763  1.4487
 1796TIP3    H227024   5.377   6.008   1.711 -0.6545  0.3264 -0.5444
 1797TIP3   OH227025   2.346   6.131   7.080  0.2752 -0.2793  0.1282
 1797TIP3    H127026   2.350   6.131   7.175  0.1762 -2.5912  0.1998
 1797TIP3    H227027   2.264   6.175   7.058  0.4414  0.5234  1.0784
 1798TIP3   OH227028   5.099   6.351   6.905 -0.5025  0.4891 -0.4379
 1798TIP3    H127029   5.170   6.295   6.874 -0.0278  0.9589 -0.2285
 1798TIP3    H227030   5.068   6.396   6.826 -0.9838 -0.1716 -0.6280
 1799TIP3   OH227031   2.154   4.841   8.333  0.0321 -0.1667  0.3900
 1799TIP3    H127032   2.173   4.750   8.354  0.5799  0.4266  2.7108
 1799TIP3    H227033   2.186   4.852   8.243  2.5057 -1.5545  1.0177
 1800TIP3   OH227034   3.066   0.616   7.378  0.5761 -0.5073  0.2773
 1800TIP3    H127035   3.047   0.685   7.442 -0.8121  0.0800 -0.7325
 1800TIP3    H227036   3.161   0.606   7.383  0.9777  2.2064 -0.2572
 1801TIP3   OH227037   3.811   5.320   1.122  0.4768 -0.2181  0.5940
 1801TIP3    H127038   3.801   5.406   1.163 -0.4199 -0.5424  1.0865
 1801TIP3    H227039   3.890   5.284   1.163 -0.2814 -0.4479  1.9373
 1802TIP3   OH227040   6.203   3.973   1.425  0.3675 -0.5680  0.6718
 1802TIP3    H127041   6.257   3.903   1.462  0.9956  0.5454  1.9605
 1802TIP3    H227042   6.217   4.047   1.483 -1.7361  0.0982  0.4140
 1803TIP3   OH227043   2.961   3.495   1.335  0.1840 -0.3821 -0.0513
 1803TIP3    H127044   2.944   3.410   1.377  1.6655 -0.4275  0.4993
 1803TIP3    H227045   2.981   3.554   1.408 -0.8890  0.4670 -0.4309
 1804TIP3   OH227046   3.376   4.631   1.313 -0.1278  0.2489  0.1566
 1804TIP3    H127047   3.428   4.706   1.284 -0.0976 -0.2389 -1.1107
 1804TIP3    H227048   3.315   4.668   1.378  2.0130  0.7536  2.0024
 1805TIP3   OH227049   0.802   6.768   8.129  0.3262  0.1434 -0.0894
 1805TIP3    H127050   0.790   6.832   8.058  1.3305 -0.7602 -1.1282
 1805TIP3    H227051   0.748   6.800   8.200 -0.3823  1.3273 -1.1224
 1806TIP3   OH227052   3.977   5.217   7.644 -0.0214 -0.0765 -0.0888
 1806TIP3    H127053   3.935   5.296   7.611  0.8659  0.7399  0.6734
 1806TIP3    H227054   4.070   5.239   7.647  0.0517 -0.4690  1.9352
 1807TIP3   OH227055   5.250   3.823   6.324  0.1077  0.2788  0.0999
 1807TIP3    H127056   5.271   3.736   6.358 -0.0564  0.1129 -0.2242
 1807TIP3    H227057   5.167   3.845   6.366 -0.2187 -0.0298 -0.3739
 1808TIP3   OH227058   3.810   6.266   0.731 -0.2034  0.2849 -0.0441
 1808TIP3    H127059   3.870   6.192   0.743 -1.2926 -0.4767  0.9076
 1808TIP3    H227060   3.723   6.227   0.731 -0.7507  1.4579 -0.6208
 1809TIP3   OH227061   2.368   0.119   8.633 -0.4785 -0.4893  0.4584
 1809TIP3    H127062   2.387   0.045   8.689 -0.9527 -0.4647  0.6583
 1809TIP3    H227063   2.273   0.133   8.643 -0.5769 -0.5127 -0.3764
 1810TIP3   OH227064   2.200   6.221   8.437  1.1673  0.0447 -0.4030
 1810TIP3    H127065   2.148   6.182   8.508  2.5457  0.2821  0.7805
 1810TIP3    H227066   2.177   6.169   8.360  1.9314 -2.3050  0.8560
 1811TIP3   OH227067   0.214   4.006   7.820  0.4549  0.6165 -0.2280
 1811TIP3    H127068   0.192   4.040   7.906  1.4260  0.5256  0.0607
 1811TIP3    H227069   0.308   4.021   7.811  0.7130 -0.9995 -0.5358
 1812TIP3   OH227070   0.215   1.842   0.083 -0.3200 -0.4322  0.2739
 1812TIP3    H127071   0.265   1.863   0.162  0.1542 -1.4522  0.2689
 1812TIP3    H227072   0.240   1.909   0.020  1.6936 -1.3578  0.0183
 1813TIP3   OH227073   4.480   1.107   1.824  0.1811  0.4992  0.0924
 1813TIP3    H127074   4.436   1.032   1.866 -0.6070  1.0546  0.2907
 1813TIP3    H227075   4.530   1.147   1.894  0.0037  0.5950  0.1645
 1814TIP3   OH227076   0.718   6.657   7.256  0.2066 -0.0977 -0.1289
 1814TIP3    H127077   0.770   6.581   7.282  0.3899 -0.2850 -1.0216
 1814TIP3    H227078   0.722   6.715   7.332 -0.1154 -1.0621  0.6547
 1815TIP3   OH227079   4.549   4.672   0.832 -0.3906  0.0707 -0.2387
 1815TIP3    H127080   4.623   4.612   0.843 -0.5684 -0.1323 -0.1430
 1815TIP3    H227081   4.563   4.740   0.897 -1.2102 -0.8994  0.9962
 1816TIP3   OH227082   5.892   3.166   1.169  0.2039  0.4356  0.6823
 1816TIP3    H127083   5.918   3.106   1.099 -1.3579  1.3329 -0.7461
 1816TIP3    H227084   5.857   3.109   1.237  0.8169 -0.4082  0.3099
 1817TIP3   OH227085   5.000   3.973   6.785 -0.3195 -0.0393 -0.1597
 1817TIP3    H127086   4.942   3.916   6.734 -3.1149  1.9495  0.5499
 1817TIP3    H227087   5.036   3.916   6.853 -0.6020 -1.5833 -1.2526
 1818TIP3   OH227088   1.278   4.186   0.942 -0.2537  0.0019 -0.5432
 1818TIP3    H127089   1.345   4.242   0.903 -0.3496  0.6067  0.1321
 1818TIP3    H227090   1.317   4.099   0.943  0.0304  0.1169 -1.2996
 1819TIP3   OH227091   4.618   4.763   7.389 -0.1426  0.3738  0.0015
 1819TIP3    H127092   4.609   4.822   7.314 -0.1967 -0.0019 -0.2917
 1819TIP3    H227093   4.528   4.739   7.412 -0.1068  0.1302 -0.1045
 1820TIP3   OH227094   5.176   2.706   8.626 -0.0112 -0.0713 -0.0798
 1820TIP3    H127095   5.137   2.637   8.679  0.5276 -0.5753 -0.3398
 1820TIP3    H227096   5.135   2.787   8.658  0.1275 -0.3939  0.9269
 1821TIP3   OH227097   2.987   2.533   1.688  0.3042  0.0022 -0.0653
 1821TIP3    H127098   3.052   2.600   1.710  0.9585 -0.7976  0.5084
 1821TIP3    H227099   3.016   2.500   1.603 -0.4914  0.9928 -0.7478
 1822TIP3   OH227100   4.660   1.827   8.516  0.3583 -1.2335 -0.1030
 1822TIP3    H127101   4.736   1.769   8.525 -0.8258 -3.1602 -1.6506
 1822TIP3    H227102   4.586   1.775   8.547 -0.3698  0.6349  1.4596
 1823TIP3   OH227103   1.124   6.089   2.607 -0.1183  0.4460 -0.1342
 1823TIP3    H127104   1.146   6.165   2.661  1.0668  1.0303 -1.3519
 1823TIP3    H227105   1.096   6.127   2.523 -1.4292 -0.4371 -0.1293
 1824TIP3   OH227106   1.086   2.167   6.995  0.4068 -0.5787  0.6005
 1824TIP3    H127107   1.152   2.151   7.062  0.0951 -1.5547  0.6898
 1824TIP3    H227108   1.077   2.083   6.949 -1.9227 -0.9802  1.6414
 1825TIP3   OH227109   3.455   1.565   1.882 -0.4105 -0.5886 -0.0828
 1825TIP3    H127110   3.422   1.556   1.972  1.3930  0.8640  0.7956
 1825TIP3    H227111   3.521   1.634   1.888  1.0740 -1.7249 -2.1864
 1826TIP3   OH227112   3.197   0.133   0.624  0.2005  0.4093 -0.5856
 1826TIP3    H127113   3.109   0.172   0.620 -0.2741 -0.3910  0.9530
 1826TIP3    H227114   3.255   0.207   0.639 -0.6161  0.6690  1.7128
 1827TIP3   OH227115   1.343   5.295   0.090 -0.3451 -0.2165  0.0843
 1827TIP3    H127116   1.409   5.242   0.134  0.2969  0.1591 -0.4032
 1827TIP3    H227117   1.277   5.313   0.157  0.3147 -0.1544  0.7263
 1828TIP3   OH227118   1.119   0.461   0.317  0.0816  0.9646 -0.7497
 1828TIP3    H127119   1.162   0.455   0.402  0.3218 -0.6713 -0.9564
 1828TIP3    H227120   1.168   0.529   0.270  1.2066  0.4941 -0.2829
 1829TIP3   OH227121   5.610   5.547   1.675 -0.0356 -0.3277  0.3619
 1829TIP3    H127122   5.547   5.494   1.625  1.5925 -1.6831 -0.3742
 1829TIP3    H227123   5.604   5.513   1.764 -1.1892  0.4018  0.5823
 1830TIP3   OH227124   6.486   6.572   7.073  0.0042 -0.3287 -0.4057
 1830TIP3    H127125   6.496   6.554   7.166 -0.0888  0.2806 -0.2750
 1830TIP3    H227126   6.566   6.618   7.049  0.7653 -1.8819 -0.9930
 1831TIP3   OH227127   6.493   6.730   7.974 -0.2079 -0.3893  0.3553
 1831TIP3    H127128   6.440   6.734   8.053  0.6305 -0.2683  0.9233
 1831TIP3    H227129   6.582   6.714   8.005 -0.1912 -2.8734 -0.6731
 1832TIP3   OH227130   0.486   6.159   1.548 -0.9171  0.7785  0.4152
 1832TIP3    H127131   0.507   6.090   1.484 -1.9100  1.1047 -0.2794
 1832TIP3    H227132   0.472   6.237   1.495 -0.7370  1.3075  1.1298
 1833TIP3   OH227133   6.728   3.981   1.138 -0.1906  0.0889 -0.4577
 1833TIP3    H127134   6.639   3.944   1.144 -0.1329 -0.1512 -1.0039
 1833TIP3    H227135   6.770   3.955   1.220 -0.7195  0.4602 -0.0623
 1834TIP3   OH227136   1.519   0.671   0.688  0.4775 -0.2921  0.0114
 1834TIP3    H127137   1.592   0.717   0.728 -2.4223  2.6093  2.5865
 1834TIP3    H227138   1.532   0.681   0.594  3.7339 -0.6864  0.3297
 1835TIP3   OH227139   3.268   6.438   0.168 -0.2686 -0.1578 -0.3153
 1835TIP3    H127140   3.296   6.367   0.225  0.6918  0.8956  0.5820
 1835TIP3    H227141   3.290   6.408   0.080  1.2273 -0.5163  0.1443
 1836TIP3   OH227142   0.656   4.541   0.797  0.3031 -0.4943  0.8546
 1836TIP3    H127143   0.743   4.520   0.830 -0.0388 -2.4033  0.6185
 1836TIP3    H227144   0.621   4.458   0.764 -0.0667  0.8954 -2.7456
 1837TIP3   OH227145   0.859   4.554   7.491  0.2476  0.5683  0.5901
 1837TIP3    H127146   0.793   4.540   7.559 -0.7965  2.6832  0.1185
 1837TIP3    H227147   0.817   4.520   7.411  0.4760  0.2965  0.5843
 1838TIP3   OH227148   5.296   2.705   6.237  0.2345  0.5798  0.1233
 1838TIP3    H127149   5.381   2.663   6.247  0.5162  0.8225 -1.1173
 1838TIP3    H227150   5.313   2.798   6.256  0.0271  0.4703  0.8751
 1839TIP3   OH227151   1.341   1.626   0.210 -0.5692  0.0549 -0.4658
 1839TIP3    H127152   1.255   1.667   0.223  0.5235  1.9655  1.5070
 1839TIP3    H227153   1.391   1.690   0.161  0.6958  0.4717  1.2786
 1840TIP3   OH227154   5.311   5.374   7.449  0.8029  0.4741 -0.0292
 1840TIP3    H127155   5.343   5.369   7.540  1.5507 -0.3842 -0.3218
 1840TIP3    H227156   5.334   5.463   7.421  0.2330  0.8792  0.7326
 1841TIP3   OH227157   0.914   3.081   1.384  0.1612  0.4201 -0.2264
 1841TIP3    H127158   0.845   3.065   1.319  0.0639 -0.6352  0.1160
 1841TIP3    H227159   0.868   3.083   1.468  0.5658 -0.6205  0.0385
 1842TIP3   OH227160   0.727   2.225   0.545  0.1641 -0.0797 -0.5420
 1842TIP3    H127161   0.661   2.157   0.532  0.1531 -0.2465  0.3082
 1842TIP3    H227162   0.751   2.252   0.457  0.0786 -1.0922 -0.8910
 1843TIP3   OH227163   6.740   5.045   1.915  0.4958  0.0304 -0.5122
 1843TIP3    H127164   6.794   5.075   1.841  0.0801 -0.0850 -0.8687
 1843TIP3    H227165   6.800   5.043   1.989  0.7236  0.9679 -0.6575
 1844TIP3   OH227166   4.596   3.393   0.871 -0.2349  0.7854  0.5756
 1844TIP3    H127167   4.649   3.469   0.896  0.3901  0.5222  0.0902
 1844TIP3    H227168   4.521   3.395   0.931 -0.2430  1.7982  0.5450
 1845TIP3   OH227169   3.018   2.283   2.122 -0.2300 -0.1198 -0.5894
 1845TIP3    H127170   3.011   2.195   2.083 -0.5813 -0.1621 -0.4340
 1845TIP3    H227171   2.962   2.279   2.199  1.6008 -0.4909  0.7777
 1846TIP3   OH227172   0.944   0.872   7.681 -0.5517 -0.2854 -0.1347
 1846TIP3    H127173   0.873   0.936   7.671 -1.3049 -1.0945 -0.0631
 1846TIP3    H227174   1.012   0.902   7.620 -0.6090  0.9553  0.3925
 1847TIP3   OH227175   1.003   5.991   6.932 -0.7629  0.0815 -0.3468
 1847TIP3    H127176   0.999   6.065   6.871 -0.5108 -0.6080 -1.2165
 1847TIP3    H227177   0.921   5.944   6.918 -1.2632  0.5821  0.7370
 1848TIP3   OH227178   2.465   0.136   1.219  0.2125 -0.0404 -0.3263
 1848TIP3    H127179   2.434   0.213   1.268 -0.2323  0.9470 -2.0596
 1848TIP3    H227180   2.490   0.073   1.287 -1.4779  0.7942  1.1611
 1849TIP3   OH227181   2.878   4.233   7.659  0.3843 -0.3836  0.6017
 1849TIP3    H127182   2.962   4.189   7.649  0.5605  0.1681 -0.4964
 1849TIP3    H227183   2.849   4.252   7.570 -0.2315  0.6893  0.9966
 1850TIP3   OH227184   5.370   3.342   7.265  0.3821  0.4029  0.5426
 1850TIP3    H127185   5.393   3.283   7.337  2.3921  0.5983  0.0991
 1850TIP3    H227186   5.436   3.411   7.267  1.4695 -0.3967 -2.4199
 1851TIP3   OH227187   0.622   6.039   0.216 -0.1008 -0.3617  0.5677
 1851TIP3    H127188   0.638   6.021   0.123  1.1423 -0.1478  0.7242
 1851TIP3    H227189   0.547   6.099   0.216  1.5372  1.8242 -0.4969
 1852TIP3   OH227190   6.126   2.530   1.958  0.1967 -0.2078  0.6606
 1852TIP3    H127191   6.201   2.490   2.003  0.0172 -0.7994  0.4479
 1852TIP3    H227192   6.155   2.618   1.935  0.3575  0.0492  1.7812
 1853TIP3   OH227193   4.364   0.829   7.504  0.3141  0.0738 -0.6589
 1853TIP3    H127194   4.337   0.908   7.549  0.3209  0.2954 -1.0353
 1853TIP3    H227195   4.458   0.841   7.488  0.8358 -1.0140  1.2980
 1854TIP3   OH227196   6.319   2.735   6.738 -0.1111  0.7492  0.4402
 1854TIP3    H127197   6.247   2.794   6.716 -0.6110  0.3505  0.9478
 1854TIP3    H227198   6.360   2.776   6.815  0.4301  1.1555 -0.0583
 1855TIP3   OH227199   5.777   5.812   7.339 -0.1126  0.1510  0.1320
 1855TIP3    H127200   5.865   5.831   7.374 -0.7979  3.3428  0.4095
 1855TIP3    H227201   5.718   5.863   7.394 -1.9945 -0.4533 -1.2372
 1856TIP3   OH227202   0.788   4.965   7.903 -0.4666  0.5284  0.4331
 1856TIP3    H127203   0.796   4.894   7.839 -0.9063 -0.1890  1.1461
 1856TIP3    H227204   0.745   4.924   7.978 -4.8089  2.4515 -0.6551
 1857TIP3   OH227205   4.754   4.343   1.748  0.0110 -0.3333 -0.4306
 1857TIP3    H127206   4.796   4.413   1.699  0.1999 -0.9688 -1.1892
 1857TIP3    H227207   4.666   4.336   1.709 -1.2040  1.5746  1.6995
 1858TIP3   OH227208   2.670   5.372   6.269 -0.2640 -0.6243 -0.7481
 1858TIP3    H127209   2.612   5.354   6.195  0.5199 -1.9663 -1.0576
 1858TIP3    H227210   2.644   5.309   6.336 -1.2241  0.8264  0.3206
 1859TIP3   OH227211   2.425   1.921   8.192  0.2447  0.5934  0.4619
 1859TIP3    H127212   2.511   1.925   8.235  1.5918  0.3631 -2.0267
 1859TIP3    H227213   2.417   1.829   8.166 -0.4977  0.7534  0.1356
 1860TIP3   OH227214   5.093   4.502   7.969  0.0396  0.4658  0.2230
 1860TIP3    H127215   5.112   4.414   8.003  3.9460  1.7723  2.0793
 1860TIP3    H227216   5.101   4.493   7.874  0.4372 -1.1893  0.3787
 1861TIP3   OH227217   3.720   5.132   7.219  0.4432 -0.4624  0.3322
 1861TIP3    H127218   3.798   5.185   7.238  1.1555 -1.9440  1.8697
 1861TIP3    H227219   3.649   5.195   7.210  0.8661  0.7782  3.9029
 1862TIP3   OH227220   2.986   4.930   0.887  0.2288 -0.3236 -0.1681
 1862TIP3    H127221   3.010   4.910   0.977 -1.0712  0.7160  0.4381
 1862TIP3    H227222   2.941   4.851   0.856  0.6554 -0.6732  0.0777
 1863TIP3   OH227223   5.339   6.038   0.895 -0.7679 -0.3098 -0.4229
 1863TIP3    H127224   5.305   6.080   0.816  1.9132 -1.9594 -2.6207
 1863TIP3    H227225   5.330   5.944   0.878  1.5951 -0.7339  0.3398
 1864TIP3   OH227226   5.014   6.278   7.672 -0.1171  0.6022  0.0210
 1864TIP3    H127227   5.017   6.275   7.767 -0.8543  0.5922  0.0511
 1864TIP3    H227228   5.028   6.188   7.644  1.2823  0.7795  0.0634
 1865TIP3   OH227229   5.402   4.508   0.321  0.4494 -0.2433  0.1401
 1865TIP3    H127230   5.356   4.578   0.274 -0.9117 -1.9843 -1.2702
 1865TIP3    H227231   5.455   4.554   0.386 -1.1612  2.0467 -0.0252
 1866TIP3   OH227232   0.758   3.285   2.071 -0.0421 -0.6517 -0.6510
 1866TIP3    H127233   0.843   3.243   2.058 -0.3194 -1.1079 -0.9950
 1866TIP3    H227234   0.763   3.321   2.160  0.1999 -1.4156 -0.3487
 1867TIP3   OH227235   0.682   1.788   7.077 -0.2036 -0.4266 -0.4530
 1867TIP3    H127236   0.642   1.767   6.993  0.7206 -1.7818 -0.6026
 1867TIP3    H227237   0.618   1.842   7.122 -0.8245  0.1180 -1.9196
 1868TIP3   OH227238   2.980   1.975   1.319 -0.3885  0.6066  0.5524
 1868TIP3    H127239   2.932   1.992   1.400 -0.2322 -2.5652  1.4196
 1868TIP3    H227240   2.921   1.922   1.266  1.1361 -1.2037  0.5649
 1869TIP3   OH227241   4.840   4.775   0.653 -0.0158 -0.1725  0.1517
 1869TIP3    H127242   4.867   4.867   0.665  0.9303 -0.5414  0.9467
 1869TIP3    H227243   4.776   4.760   0.722 -1.2602  0.2778 -0.8515
 1870TIP3   OH227244   5.061   5.058   0.367  0.3106 -0.3557 -0.3323
 1870TIP3    H127245   5.014   5.071   0.449  0.2206 -0.5445 -0.3534
 1870TIP3    H227246   5.002   5.005   0.313 -0.0127  0.5365 -0.8677
 1871TIP3   OH227247   2.161   6.797   6.366 -0.0619 -0.0781  0.8688
 1871TIP3    H127248   2.214   6.731   6.322 -2.5118 -0.9427 -1.0476
 1871TIP3    H227249   2.148   6.866   6.301 -0.9965  0.2537  1.3764
 1872TIP3   OH227250   3.829   5.598   6.968 -0.1270 -0.0455 -0.4193
 1872TIP3    H127251   3.858   5.657   7.037 -0.8426  0.4418 -0.5201
 1872TIP3    H227252   3.898   5.601   6.902  1.0815 -1.3357  0.7264
 1873TIP3   OH227253   3.053   2.478   1.423 -0.3747  0.0174 -0.1372
 1873TIP3    H127254   3.031   2.481   1.330  0.9417  1.3114 -0.4316
 1873TIP3    H227255   3.146   2.458   1.425 -0.6722 -1.4138  0.9697
 1874TIP3   OH227256   5.053   5.518   0.701 -1.1212 -0.0351  0.4130
 1874TIP3    H127257   4.996   5.490   0.773  0.4723  0.6265  2.0185
 1874TIP3    H227258   5.133   5.466   0.714 -0.7599  0.2007 -0.8104
 1875TIP3   OH227259   4.370   6.463   8.645  0.2362 -0.6466 -0.5105
 1875TIP3    H127260   4.297   6.524   8.641 -0.3956 -1.3354  0.1211
 1875TIP3    H227261   4.347   6.393   8.584 -0.7098 -1.9570  1.2414
 1876TIP3   OH227262   1.284   2.407   1.388  0.3585  0.1967 -0.4389
 1876TIP3    H127263   1.206   2.416   1.334  1.3040  1.3520 -1.6570
 1876TIP3    H227264   1.317   2.319   1.368  0.0979  0.1994 -0.8940
 1877TIP3   OH227265   1.784   1.363   0.179  0.1202  0.3641  0.4645
 1877TIP3    H127266   1.737   1.441   0.150 -1.0251 -0.3262  0.3804
 1877TIP3    H227267   1.863   1.361   0.124 -0.6155  0.6145 -0.6442
 1878TIP3   OH227268   5.749   6.084   6.767 -0.1376  0.1879 -0.2642
 1878TIP3    H127269   5.787   6.168   6.796 -0.8668  1.0357 -1.6358
 1878TIP3    H227270   5.680   6.110   6.706 -1.2889 -1.4016  0.3206
 1879TIP3   OH227271   0.460   3.575   7.418  0.5010  0.4546 -0.0081
 1879TIP3    H127272   0.486   3.666   7.404 -2.0819  1.5286  1.3623
 1879TIP3    H227273   0.454   3.566   7.513 -0.7665 -0.6479 -0.1553
 1880TIP3   OH227274   4.977   1.990   7.750  0.3072 -0.0648  0.0611
 1880TIP3    H127275   4.981   1.936   7.670  2.1627 -0.3006  0.2738
 1880TIP3    H227276   4.991   2.079   7.719 -2.4354  0.3366 -0.2489
 1881TIP3   OH227277   0.027   1.936   1.952  0.1936  0.3845 -0.2046
 1881TIP3    H127278  -0.025   2.016   1.950  0.5043  0.5916 -2.1410
 1881TIP3    H227279   0.096   1.953   2.017  0.5547  1.8883 -0.9435
 1882TIP3   OH227280   2.367   6.215   7.817  0.5171  0.3813 -0.1018
 1882TIP3    H127281   2.377   6.142   7.878 -2.4647 -0.9803 -1.0379
 1882TIP3    H227282   2.394   6.179   7.733 -1.6356  0.0168 -0.6998
 1883TIP3   OH227283   3.418   3.947   0.600 -0.5093  0.0998  0.0709
 1883TIP3    H127284   3.477   3.990   0.538 -0.2050 -2.3760 -1.4896
 1883TIP3    H227285   3.465   3.948   0.683 -0.1420  1.9147 -0.1271
 1884TIP3   OH227286   1.737   6.747   0.964  0.0837 -0.1391  0.4134
 1884TIP3    H127287   1.775   6.690   1.031  0.0816  0.3375  0.8229
 1884TIP3    H227288   1.796   6.822   0.960 -1.7682  1.5628  2.4338
 1885TIP3   OH227289   3.542   4.035   7.001  0.7795  0.3001  0.5395
 1885TIP3    H127290   3.635   4.059   6.999  1.5414 -2.3802  0.0017
 1885TIP3    H227291   3.531   3.978   6.924 -1.1107 -0.1018  1.0766
 1886TIP3   OH227292   0.498   5.932   1.344 -0.1992 -0.4672 -0.3559
 1886TIP3    H127293   0.427   5.874   1.373 -1.5515  0.5297 -1.4829
 1886TIP3    H227294   0.518   5.902   1.255  1.8887 -1.6767  0.4519
 1887TIP3   OH227295   0.626   0.894   7.517  0.0672  0.7018  0.3643
 1887TIP3    H127296   0.541   0.874   7.477  0.2315 -0.9970  0.7943
 1887TIP3    H227297   0.689   0.884   7.446  0.0220  0.8583  0.3023
 1888TIP3   OH227298   5.229   2.224   0.265  0.4931  0.2793  0.1671
 1888TIP3    H127299   5.289   2.151   0.249 -1.3466 -0.8568 -2.0485
 1888TIP3    H227300   5.228   2.234   0.360  3.8064  0.0943  0.3297
 1889TIP3   OH227301   0.977   4.425   2.464  0.2855  0.7926 -0.0077
 1889TIP3    H127302   0.999   4.518   2.456  0.9739  0.6350 -0.0584
 1889TIP3    H227303   0.942   4.401   2.378  2.3761  0.4482 -0.8285
 1890TIP3   OH227304   1.515   3.798   7.062  0.9032 -1.4055  0.1941
 1890TIP3    H127305   1.454   3.777   7.133  2.1925 -0.3774  1.6615
 1890TIP3    H227306   1.597   3.756   7.087  1.6199 -0.2945 -0.2225
 1891TIP3   OH227307   4.537   4.265   6.618  0.1021  0.0429  0.6428
 1891TIP3    H127308   4.457   4.312   6.642 -0.4715  0.5584 -2.0370
 1891TIP3    H227309   4.571   4.312   6.542 -0.2491 -3.5113 -1.9373
 1892TIP3   OH227310   5.016   2.298   7.406 -0.1824  0.0648  0.3942
 1892TIP3    H127311   5.002   2.217   7.358  1.0889 -0.5623  1.0493
 1892TIP3    H227312   4.968   2.364   7.356 -0.8008 -0.9865 -0.4292
 1893TIP3   OH227313   4.677   4.187   7.366  0.3482  0.4188  0.5729
 1893TIP3    H127314   4.603   4.132   7.339  1.9347 -1.5177 -0.0787
 1893TIP3    H227315   4.643   4.276   7.361 -1.6555 -0.3281 -0.6487
 1894TIP3   OH227316   4.644   0.294   1.391 -0.0127  0.1243  0.9504
 1894TIP3    H127317   4.736   0.288   1.365 -0.4213 -1.2392 -0.3256
 1894TIP3    H227318   4.636   0.231   1.463 -0.6692 -2.7655 -1.4177
 1895TIP3   OH227319   3.224   6.360   6.433 -0.3521 -0.2992  0.1862
 1895TIP3    H127320   3.153   6.308   6.471 -0.5227 -0.1266  0.1071
 1895TIP3    H227321   3.201   6.451   6.454 -0.3673 -0.2144 -0.1964
 1896TIP3   OH227322   5.166   3.491   6.655  0.4127  0.6025 -1.2640
 1896TIP3    H127323   5.087   3.530   6.616 -1.0334 -1.2108 -0.3091
 1896TIP3    H227324   5.182   3.412   6.602 -1.6913 -2.0149  1.6218
 1897TIP3   OH227325   4.008   0.413   8.508  0.1870 -0.0099  0.1662
 1897TIP3    H127326   4.015   0.393   8.415  0.2307 -3.3038  0.7487
 1897TIP3    H227327   3.918   0.390   8.531  0.8703 -1.8261  1.3449
 1898TIP3   OH227328   4.146   3.659   0.495 -0.0425 -0.0335 -0.2365
 1898TIP3    H127329   4.059   3.624   0.516  0.5469 -1.9543 -0.7398
 1898TIP3    H227330   4.137   3.754   0.505 -1.2118 -0.3833  3.2132
 1899TIP3   OH227331   0.902   5.565   8.383  0.1485 -0.3386  0.2310
 1899TIP3    H127332   0.809   5.558   8.365  0.4436 -1.1036 -1.0659
 1899TIP3    H227333   0.945   5.552   8.299  1.3973  1.2891  0.5587
 1900TIP3   OH227334   2.658   2.990   1.351  0.5872  0.2544 -0.4251
 1900TIP3    H127335   2.689   2.904   1.324  0.2821  0.2039 -0.6212
 1900TIP3    H227336   2.640   3.036   1.269 -0.0515  0.2089 -0.3179
 1901TIP3   OH227337   3.723   3.613   1.040  0.1186 -0.2566 -0.1699
 1901TIP3    H127338   3.818   3.602   1.044  0.2391  0.0193 -1.5351
 1901TIP3    H227339   3.689   3.549   1.103  1.1853 -0.8706 -0.1822
 1902TIP3   OH227340   5.754   5.441   7.635 -0.4421  0.3975  0.5525
 1902TIP3    H127341   5.833   5.478   7.675 -0.8418  1.6005  0.2405
 1902TIP3    H227342   5.690   5.439   7.705  0.1054 -1.4461  1.0585
 1903TIP3   OH227343   0.884   1.624   0.966 -0.3893  0.0595 -0.2389
 1903TIP3    H127344   0.898   1.632   0.871  0.9944  0.5444 -0.0189
 1903TIP3    H227345   0.950   1.559   0.993  0.0964  0.8740  0.5655
 1904TIP3   OH227346   1.530   6.116   7.037 -0.2202 -0.2462 -0.4078
 1904TIP3    H127347   1.585   6.193   7.050  0.2862 -0.9807  2.3162
 1904TIP3    H227348   1.465   6.144   6.972  1.9510  1.3417 -2.0392
 1905TIP3   OH227349   6.461   4.851   7.278  0.2192 -0.2276 -0.3866
 1905TIP3    H127350   6.538   4.824   7.227  0.4156  1.5853 -1.1310
 1905TIP3    H227351   6.419   4.769   7.303  3.1966 -1.4201  1.3787
 1906TIP3   OH227352   5.363   2.128   1.227  0.0696 -0.2488 -0.0215
 1906TIP3    H127353   5.291   2.189   1.245 -0.2932 -0.0307 -1.9295
 1906TIP3    H227354   5.442   2.178   1.242 -0.2170  1.0682 -2.4264
 1907TIP3   OH227355   0.504   5.064   6.918  0.6124 -0.3224 -0.2395
 1907TIP3    H127356   0.568   5.135   6.922  0.2715 -0.0180 -0.1973
 1907TIP3    H227357   0.468   5.058   7.007  2.8459 -2.6060  0.6474
 1908TIP3   OH227358   0.360   5.142   8.573 -0.4729 -0.5728  0.3504
 1908TIP3    H127359   0.426   5.074   8.563 -0.0549 -0.0363 -0.8137
 1908TIP3    H227360   0.286   5.112   8.519 -0.2646 -0.1029 -0.2163
 1909TIP3   OH227361   4.866   3.485   8.212 -0.1155  0.2012  0.6902
 1909TIP3    H127362   4.821   3.491   8.296  0.0267 -1.1923  0.8990
 1909TIP3    H227363   4.901   3.395   8.210 -0.7483 -0.0436 -1.1669
 1910TIP3   OH227364   3.351   5.687   0.178  0.4353  0.2496  0.5146
 1910TIP3    H127365   3.286   5.630   0.220 -1.6821 -0.2154 -2.9570
 1910TIP3    H227366   3.415   5.626   0.140 -0.3248  0.2675 -0.8759
 1911TIP3   OH227367   6.460   2.681   0.259  0.4214 -0.0076 -0.3078
 1911TIP3    H127368   6.383   2.723   0.222 -1.0070 -2.1489  0.0527
 1911TIP3    H227369   6.526   2.686   0.190 -0.1105  1.5702 -0.7449
 1912TIP3   OH227370   2.450   1.342   1.644 -0.3383 -0.1476  0.2805
 1912TIP3    H127371   2.450   1.402   1.570  0.0876  0.0948  0.4755
 1912TIP3    H227372   2.522   1.282   1.626 -0.2001 -0.0553  0.5256
 1913TIP3   OH227373   2.885   1.083   0.267 -0.4749 -0.4460 -0.7437
 1913TIP3    H127374   2.853   1.038   0.345 -0.8558  0.8472 -0.1227
 1913TIP3    H227375   2.938   1.018   0.221  2.5260 -0.3237  2.2509
 1914TIP3   OH227376   3.178   2.380   1.876  0.3123  0.6288 -0.2493
 1914TIP3    H127377   3.098   2.387   1.823 -1.1435 -0.3419  1.6726
 1914TIP3    H227378   3.211   2.292   1.858  0.2510  0.5882 -0.1702
 1915TIP3   OH227379   4.124   1.515   8.476  0.1467  0.2733  0.6170
 1915TIP3    H127380   4.160   1.483   8.393 -2.0388 -0.4386 -0.1541
 1915TIP3    H227381   4.113   1.609   8.463  0.4139  0.2656  0.3330
 1916TIP3   OH227382   5.014   0.005   0.527 -0.0248 -0.6259  0.3494
 1916TIP3    H127383   5.030   0.099   0.536  0.1508 -0.1195 -3.5248
 1916TIP3    H227384   4.919  -0.004   0.532 -0.0443 -0.2255  0.7417
 1917TIP3   OH227385   1.716   2.572   6.526 -0.1046  0.4796  0.1331
 1917TIP3    H127386   1.747   2.662   6.526 -0.3784  0.6205  1.9187
 1917TIP3    H227387   1.789   2.521   6.561  0.6536 -0.2879 -2.3780
 1918TIP3   OH227388   4.280   3.357   2.865  0.1367 -0.2031 -0.6818
 1918TIP3    H127389   4.348   3.334   2.801  1.3967  1.0825  0.1195
 1918TIP3    H227390   4.237   3.433   2.826  0.8092  0.4910 -0.1012
 1919TIP3   OH227391   3.821   3.537   2.031 -0.0894 -0.0476 -0.1043
 1919TIP3    H127392   3.914   3.520   2.045 -0.1939 -0.3883  0.2170
 1919TIP3    H227393   3.818   3.618   1.981  0.3466  0.6638  0.9855
 1920TIP3   OH227394   1.913   0.024   0.233 -0.1467 -0.6363  0.0331
 1920TIP3    H127395   1.831   0.060   0.198  0.0399  0.2792  0.4963
 1920TIP3    H227396   1.895  -0.069   0.247 -0.9332 -0.5504 -0.3857
 1921TIP3   OH227397   4.925   4.318   7.488  0.1973 -0.3654 -0.4345
 1921TIP3    H127398   4.848   4.302   7.434  0.6331 -2.0247 -0.6055
 1921TIP3    H227399   4.990   4.355   7.428 -0.2767  0.5749 -0.3913
 1922TIP3   OH227400   0.515   5.110   8.264  0.0290  0.2149  0.4456
 1922TIP3    H127401   0.551   5.152   8.186 -2.4918  0.6952 -0.5533
 1922TIP3    H227402   0.424   5.093   8.242 -0.3946 -0.9737  2.7956
 1923TIP3   OH227403   2.643   3.041   8.553 -0.1609 -0.4166  0.3592
 1923TIP3    H127404   2.642   3.124   8.601 -1.5781  0.5041 -1.1212
 1923TIP3    H227405   2.557   3.003   8.569 -1.2598  0.6255 -2.4537
 1924TIP3   OH227406   2.338   0.689   8.568  0.1370 -0.6211 -0.2762
 1924TIP3    H127407   2.365   0.725   8.652  0.7617  2.3253 -1.6228
 1924TIP3    H227408   2.419   0.659   8.527 -0.2468 -2.6928  0.3681
 1925TIP3   OH227409   4.037   6.686   7.176 -0.5341  0.7597 -0.3484
 1925TIP3    H127410   4.098   6.760   7.176 -0.8394  1.0536 -1.9063
 1925TIP3    H227411   3.951   6.726   7.162 -0.9336  0.2378  0.5345
 1926TIP3   OH227412   3.176   4.687   0.861  0.2252  0.8563  0.2437
 1926TIP3    H127413   3.214   4.708   0.776 -0.6000 -1.2264 -0.6863
 1926TIP3    H227414   3.084   4.668   0.843  0.4059 -1.3139  1.2903
 1927TIP3   OH227415   5.623   4.543   2.700  0.8452 -0.0654  0.2071
 1927TIP3    H127416   5.716   4.541   2.722  1.7298  1.1409 -2.8558
 1927TIP3    H227417   5.603   4.452   2.677  1.6026 -0.1286 -0.2396
 1928TIP3   OH227418   5.703   5.531   8.625  0.8535 -0.1935  0.4363
 1928TIP3    H127419   5.776   5.504   8.681 -0.8895 -1.3750  2.2605
 1928TIP3    H227420   5.660   5.601   8.673  0.7887  0.5610 -0.6717
 1929TIP3   OH227421   0.512   2.723   0.681  0.4149 -0.5660 -0.1315
 1929TIP3    H127422   0.561   2.802   0.701  0.9759 -0.5415 -1.4721
 1929TIP3    H227423   0.421   2.745   0.701  0.9072 -0.6290  2.4228
 1930TIP3   OH227424   6.017   2.355   6.194  0.0639 -0.4204 -0.1006
 1930TIP3    H127425   6.015   2.444   6.158 -1.4965 -0.2286  0.3934
 1930TIP3    H227426   5.981   2.301   6.123 -0.5237 -0.4120  0.1838
 1931TIP3   OH227427   2.858   3.304   7.188  0.0163  0.0034 -0.2404
 1931TIP3    H127428   2.777   3.339   7.226 -0.4584 -0.9703 -0.3091
 1931TIP3    H227429   2.925   3.368   7.211 -0.6466  0.4785  0.4357
 1932TIP3   OH227430   1.890   5.710   1.195 -0.1631  0.0707  0.1463
 1932TIP3    H127431   1.825   5.679   1.131 -1.1640  0.1979  1.0651
 1932TIP3    H227432   1.874   5.804   1.201 -1.4132 -0.2029  1.9659
 1933TIP3   OH227433   5.060   0.794   7.213  0.0729  0.0331  0.3368
 1933TIP3    H127434   5.001   0.755   7.148 -0.7419  0.8423  0.5757
 1933TIP3    H227435   5.114   0.856   7.163 -1.6160  1.8264  0.6375
 1934TIP3   OH227436   6.610   0.668   1.829 -0.1335  0.1416  0.6977
 1934TIP3    H127437   6.689   0.636   1.785  0.3192 -0.8045  2.1421
 1934TIP3    H227438   6.643   0.718   1.904 -0.8808 -1.0238  1.8468
 1935TIP3   OH227439   1.537   4.944   1.724 -0.0426  0.1307  0.1084
 1935TIP3    H127440   1.524   5.037   1.746 -1.6106 -0.1215  0.3811
 1935TIP3    H227441   1.584   4.908   1.798  0.6729  0.7201 -0.0436
 1936TIP3   OH227442   6.384   5.756   7.219 -0.5643 -0.0016 -0.7244
 1936TIP3    H127443   6.478   5.775   7.215 -0.9544  2.2956 -0.4214
 1936TIP3    H227444   6.346   5.834   7.259 -2.8761  0.0476 -2.7949
 1937TIP3   OH227445   6.327   2.540   7.819 -0.0690  0.3770 -0.1109
 1937TIP3    H127446   6.378   2.465   7.789 -1.2412 -0.3003 -0.4354
 1937TIP3    H227447   6.331   2.602   7.746  2.4809  1.5181  0.8420
 1938TIP3   OH227448   5.925   5.597   7.787 -0.0555  0.4087  0.2214
 1938TIP3    H127449   5.987   5.541   7.834  1.1144  1.4090 -0.0856
 1938TIP3    H227450   5.906   5.669   7.848 -0.8176  0.1897  0.2571
 1939TIP3   OH227451   5.486   2.085   0.312 -0.6853 -0.3603 -0.9819
 1939TIP3    H127452   5.520   2.090   0.401 -1.8476 -0.8155 -0.4968
 1939TIP3    H227453   5.499   2.173   0.276 -0.7628 -0.0093 -0.1611
 1940TIP3   OH227454   6.708   5.938   8.032 -0.3722 -0.3108 -0.6694
 1940TIP3    H127455   6.725   5.915   8.124  0.0865  1.0651 -0.3853
 1940TIP3    H227456   6.656   5.865   7.999 -1.4117 -0.3778  0.9688
 1941TIP3   OH227457   1.806   5.332   7.976  0.1895 -0.1251 -0.0461
 1941TIP3    H127458   1.735   5.391   8.000  0.3797 -0.1386  0.5753
 1941TIP3    H227459   1.771   5.245   7.990  0.5321 -0.1242  0.9052
 1942TIP3   OH227460   2.362   6.662   2.336  0.9306  0.7628  0.0159
 1942TIP3    H127461   2.445   6.617   2.350 -0.7357 -1.9053  2.8443
 1942TIP3    H227462   2.356   6.725   2.408 -0.3471 -0.7597  1.3568
 1943TIP3   OH227463   2.297   2.268   7.195  0.0361  0.0541 -0.3571
 1943TIP3    H127464   2.291   2.187   7.245 -0.5522 -0.3279 -1.0319
 1943TIP3    H227465   2.230   2.260   7.128  1.3155  0.2318 -1.6937
 1944TIP3   OH227466   3.041   1.656   2.237 -0.4024  0.4046 -0.0506
 1944TIP3    H127467   2.987   1.700   2.172 -0.7015  1.1443  0.6895
 1944TIP3    H227468   3.070   1.726   2.296  1.2808  0.0180 -0.3623
 1945TIP3   OH227469   4.405   5.189   0.920  0.0409 -0.1863 -0.0842
 1945TIP3    H127470   4.325   5.203   0.870 -0.0308  1.5805  0.4553
 1945TIP3    H227471   4.454   5.124   0.870  0.4575  2.2414 -3.0998
 1946TIP3   OH227472   0.076   6.123   7.923 -0.1162 -0.0115 -0.4998
 1946TIP3    H127473   0.015   6.151   7.855 -1.3049 -1.7051 -0.2070
 1946TIP3    H227474   0.040   6.040   7.954  2.4233 -1.1288 -0.3591
 1947TIP3   OH227475   1.457   5.671   1.400  0.0812  0.1254  0.0451
 1947TIP3    H127476   1.476   5.702   1.489 -1.0908 -1.0588  0.7223
 1947TIP3    H227477   1.435   5.751   1.352  1.6723  0.9108  0.5267
 1948TIP3   OH227478   3.671   4.964   0.420  0.4858  0.0454  0.0189
 1948TIP3    H127479   3.606   5.032   0.436 -0.2951  0.5037 -3.9303
 1948TIP3    H227480   3.753   5.013   0.407  1.1654 -0.3254  2.5041
 1949TIP3   OH227481   5.390   4.104   1.816  0.1015 -0.0964 -0.2796
 1949TIP3    H127482   5.353   4.192   1.826 -0.8014 -0.5074  0.0434
 1949TIP3    H227483   5.444   4.110   1.737 -1.5277  0.2272 -1.4204
 1950TIP3   OH227484   0.406   1.859   7.450 -0.0091 -0.4178 -0.1471
 1950TIP3    H127485   0.399   1.947   7.488  0.2281 -0.4236 -0.0919
 1950TIP3    H227486   0.315   1.828   7.447 -0.0152 -0.4842  0.5795
 1951TIP3   OH227487   0.237   5.139   2.212  0.1491 -0.1267  0.1305
 1951TIP3    H127488   0.197   5.215   2.256  1.0764 -0.2448  1.2153
 1951TIP3    H227489   0.328   5.139   2.242  1.3312  0.7322 -3.0806
 1952TIP3   OH227490   1.310   4.692   8.498 -0.0987  0.4885 -0.9077
 1952TIP3    H127491   1.335   4.700   8.590 -0.1092 -1.8664 -0.6473
 1952TIP3    H227492   1.386   4.725   8.450 -0.0587  1.6535 -0.0837
 1953TIP3   OH227493   1.686   3.297   7.938 -0.0608  0.1008 -1.0410
 1953TIP3    H127494   1.695   3.371   7.998 -0.1113  0.1047 -1.0383
 1953TIP3    H227495   1.635   3.233   7.987 -2.5384  1.1823 -2.0501
 1954TIP3   OH227496   2.299   6.687   0.039  0.7963 -0.0428  0.3922
 1954TIP3    H127497   2.212   6.719   0.064  1.0192  1.4364 -0.6239
 1954TIP3    H227498   2.284   6.597   0.011 -0.1850 -0.2328  1.4253
 1955TIP3   OH227499   5.163   1.730   0.921 -0.6986 -0.5182  0.6400
 1955TIP3    H127500   5.234   1.745   0.858 -3.2982  1.3490 -2.1254
 1955TIP3    H227501   5.186   1.648   0.965  2.4076 -0.7192 -1.1100
 1956TIP3   OH227502   4.951   1.533   7.655  0.0743 -0.0427 -0.4880
 1956TIP3    H127503   4.966   1.476   7.730  0.5563  1.0588  0.2679
 1956TIP3    H227504   5.029   1.522   7.600 -0.7888 -1.7459 -1.4633
 1957TIP3   OH227505   1.020   0.305   7.723 -0.1462  0.1325  0.0806
 1957TIP3    H127506   1.007   0.384   7.775  0.6341 -0.9313  2.0086
 1957TIP3    H227507   0.955   0.243   7.758  1.5118 -1.1486  1.0409
 1958TIP3   OH227508   1.677   0.815   0.451  0.3685  0.4181  0.2902
 1958TIP3    H127509   1.717   0.866   0.522  1.3456  0.5712 -0.3651
 1958TIP3    H227510   1.738   0.744   0.434 -0.2527 -0.0916  0.1325
 1959TIP3   OH227511   1.721   3.154   8.415 -0.6368 -0.5766 -0.2971
 1959TIP3    H127512   1.745   3.226   8.474 -1.3422  0.3019 -1.0354
 1959TIP3    H227513   1.669   3.197   8.346 -0.0729 -1.6167 -1.3953
 1960TIP3   OH227514   6.548   6.166   2.207  0.4167  0.1770 -0.3041
 1960TIP3    H127515   6.475   6.108   2.226  2.6956 -2.1868  2.2060
 1960TIP3    H227516   6.528   6.246   2.255 -0.6886 -0.3062  0.0671
 1961TIP3   OH227517   4.429   0.268   7.716 -0.3235  0.1095  0.5220
 1961TIP3    H127518   4.457   0.176   7.708 -0.7540  0.0530 -0.3971
 1961TIP3    H227519   4.507   0.318   7.691 -0.7959 -0.0460 -1.4465
 1962TIP3   OH227520   2.035   1.778   6.817 -0.6989 -0.1230 -0.2817
 1962TIP3    H127521   2.008   1.813   6.732 -1.9016 -1.1109 -0.3288
 1962TIP3    H227522   1.990   1.694   6.823 -0.2611 -0.2676  1.1464
 1963TIP3   OH227523   0.661   6.368   7.807  0.3433 -0.2425 -0.6500
 1963TIP3    H127524   0.756   6.363   7.793  0.3192  0.0028 -0.8996
 1963TIP3    H227525   0.625   6.300   7.751  0.3048  0.2481 -1.2257
 1964TIP3   OH227526   4.243   6.649   6.995  0.4273 -0.0595 -0.2073
 1964TIP3    H127527   4.187   6.670   6.920  0.3285  0.3801 -0.0116
 1964TIP3    H227528   4.189   6.668   7.071 -0.1613 -2.2726  0.0044
 1965TIP3   OH227529   6.897   1.145   0.293 -0.6225  0.2454 -0.2757
 1965TIP3    H127530   6.961   1.073   0.288 -0.5465  0.2855  0.0406
 1965TIP3    H227531   6.935   1.215   0.241  0.4798  0.9253  1.3356
 1966TIP3   OH227532   5.641   3.832   7.245 -0.6514  0.1237 -0.3791
 1966TIP3    H127533   5.570   3.857   7.304 -0.5207  1.0072 -0.5775
 1966TIP3    H227534   5.706   3.902   7.255  0.0293 -0.4920 -0.4681
 1967TIP3   OH227535   6.186   2.473   1.121 -0.2766  0.0472  0.0715
 1967TIP3    H127536   6.183   2.567   1.103  2.1904  0.4554  1.2794
 1967TIP3    H227537   6.177   2.466   1.216  1.6538 -0.6967  0.2518
 1968TIP3   OH227538   4.533   6.164   0.203 -0.6659 -0.3113  0.3919
 1968TIP3    H127539   4.572   6.247   0.229  1.4346 -1.5723  1.5870
 1968TIP3    H227540   4.588   6.133   0.131 -0.2925 -1.4412  1.1217
 1969TIP3   OH227541   1.465   0.630   1.807 -0.4297 -0.4454  0.3195
 1969TIP3    H127542   1.421   0.700   1.759  0.4251  0.8520  1.3583
 1969TIP3    H227543   1.395   0.570   1.832 -1.1787  0.0108 -0.6124
 1970TIP3   OH227544   1.145   4.371   1.942  0.0862  0.3539 -0.3625
 1970TIP3    H127545   1.185   4.449   1.981  0.1519  0.6305 -0.9729
 1970TIP3    H227546   1.194   4.358   1.860  1.2501 -1.3447  0.5473
 1971TIP3   OH227547   6.654   2.624   1.232  0.1499 -0.0877  0.4536
 1971TIP3    H127548   6.700   2.667   1.305 -0.9987  2.6400 -0.2926
 1971TIP3    H227549   6.718   2.621   1.162  0.5591 -0.5981  0.8386
 1972TIP3   OH227550   2.789   4.906   0.589 -0.3827  0.5086 -0.1477
 1972TIP3    H127551   2.853   4.946   0.530  1.3969  0.9968  1.9820
 1972TIP3    H227552   2.790   4.813   0.566 -0.1886  0.7835 -1.2739
 1973TIP3   OH227553   0.467   2.227   8.553  0.4634 -0.1745 -0.2229
 1973TIP3    H127554   0.558   2.199   8.561  1.1604  2.1011  1.0207
 1973TIP3    H227555   0.444   2.259   8.641 -1.4082 -0.3223 -0.6116
 1974TIP3   OH227556   3.571   1.706   1.111  0.3958  0.6177 -0.0235
 1974TIP3    H127557   3.642   1.752   1.156 -0.8551  0.8852  1.7984
 1974TIP3    H227558   3.533   1.650   1.179 -2.9637  2.6258  0.0031
 1975TIP3   OH227559   3.752   0.127   7.066 -0.3192 -0.1386  0.3213
 1975TIP3    H127560   3.740   0.056   7.002 -0.5949 -1.0055  1.2992
 1975TIP3    H227561   3.845   0.149   7.060 -0.3992 -0.0143 -0.5723
 1976TIP3   OH227562   5.010   5.510   8.078 -0.1981  0.3171  0.2596
 1976TIP3    H127563   5.049   5.547   8.158 -0.6523  0.4884  0.4012
 1976TIP3    H227564   4.916   5.509   8.094 -0.2421 -0.3094  0.0013
 1977TIP3   OH227565   5.979   5.191   1.387  0.7208  0.0022 -0.2308
 1977TIP3    H127566   6.005   5.176   1.478  0.0235 -2.3609 -0.3490
 1977TIP3    H227567   6.048   5.150   1.335 -0.7667 -2.1401 -0.6335
 1978TIP3   OH227568   0.669   1.929   6.315  0.7548  0.2054 -0.2471
 1978TIP3    H127569   0.627   1.927   6.401 -0.8689 -0.1067 -0.9932
 1978TIP3    H227570   0.719   1.848   6.310  1.7370  0.7205  0.7840
 1979TIP3   OH227571   5.186   6.482   1.433 -0.1154 -0.2592  0.1243
 1979TIP3    H127572   5.159   6.510   1.521 -0.2253 -0.3671  0.1248
 1979TIP3    H227573   5.120   6.417   1.407 -0.6050  0.4416 -0.4159
 1980TIP3   OH227574   4.090   0.788   1.324 -0.2295 -0.2450 -0.0597
 1980TIP3    H127575   4.138   0.848   1.266  0.7670  0.1284  1.0986
 1980TIP3    H227576   4.097   0.829   1.411  1.3737 -2.5041  0.9726
 1981TIP3   OH227577   6.887   5.667   7.766  0.1034 -0.6948  0.1708
 1981TIP3    H127578   6.962   5.671   7.825 -0.7286  1.0780  1.1721
 1981TIP3    H227579   6.811   5.658   7.823 -0.6756  0.3860 -0.6591
 1982TIP3   OH227580   5.176   3.424   7.122 -0.5565 -0.0575  0.0779
 1982TIP3    H127581   5.242   3.480   7.081 -0.8690  0.7754  0.6836
 1982TIP3    H227582   5.224   3.377   7.190 -0.6105  0.7294  0.6843
 1983TIP3   OH227583   3.078   5.238   8.027  0.2741  0.6062  0.0892
 1983TIP3    H127584   3.147   5.241   8.094  1.0638  2.4432 -0.7332
 1983TIP3    H227585   3.048   5.147   8.028  0.5772  0.4567  2.5896
 1984TIP3   OH227586   3.232   4.847   1.058  0.0269 -0.2737 -0.4435
 1984TIP3    H127587   3.196   4.800   0.983  1.5700  1.0802 -2.1183
 1984TIP3    H227588   3.314   4.884   1.026 -0.9068  3.2954  0.8204
 1985TIP3   OH227589   5.801   0.686   6.505 -0.1436 -0.4539 -0.5942
 1985TIP3    H127590   5.774   0.612   6.559 -0.4681 -0.2017 -0.4115
 1985TIP3    H227591   5.879   0.654   6.460 -0.3747 -0.9701 -0.6475
 1986TIP3   OH227592   1.058   2.722   7.034 -0.3935 -0.1112 -0.5375
 1986TIP3    H127593   1.089   2.792   6.977 -0.8097  0.3280 -0.2300
 1986TIP3    H227594   1.020   2.767   7.110  1.0434 -0.6926  0.5747
 1987TIP3   OH227595   3.545   5.138   1.555  0.5442 -0.0432 -0.3752
 1987TIP3    H127596   3.615   5.105   1.499  0.8165 -0.8338  0.4172
 1987TIP3    H227597   3.521   5.222   1.516  0.2724 -0.8608 -2.0675
 1988TIP3   OH227598   3.775   1.015   1.003  0.7816 -0.3662 -0.3921
 1988TIP3    H127599   3.738   1.102   1.019  2.3193  0.4403 -1.0242
 1988TIP3    H227600   3.768   0.970   1.087 -1.1144 -0.0951 -0.3531
 1989TIP3   OH227601   1.787   3.157   1.434 -0.9015  0.0496  0.1052
 1989TIP3    H127602   1.746   3.216   1.371 -0.8066  0.7978  0.7230
 1989TIP3    H227603   1.732   3.078   1.432 -1.9798  0.7637  0.4018
 1990TIP3   OH227604   0.866   5.839   8.427 -0.1851  0.4419  0.0685
 1990TIP3    H127605   0.882   5.745   8.426 -0.8498  0.3266 -1.2138
 1990TIP3    H227606   0.784   5.850   8.475 -1.0970  0.1721 -1.3744
 1991TIP3   OH227607   1.388   0.003   0.427 -0.1381 -0.9804 -0.1853
 1991TIP3    H127608   1.446  -0.057   0.474  0.3453 -0.6732 -0.3853
 1991TIP3    H227609   1.405   0.089   0.465  0.6639 -0.6319 -1.2702
 1992TIP3   OH227610   0.360   3.957   7.052  0.5403 -0.5717  0.5531
 1992TIP3    H127611   0.303   3.897   7.003 -0.0444  0.9671 -0.7516
 1992TIP3    H227612   0.427   3.983   6.989 -0.3120  1.5755  0.4436
 1993TIP3   OH227613   4.173   0.550   0.009 -0.1643 -0.2712 -0.3347
 1993TIP3    H127614   4.105   0.499  -0.035 -0.5817 -0.3241  0.3532
 1993TIP3    H227615   4.132   0.634   0.028  0.8318  0.7424 -2.3562
 1994TIP3   OH227616   3.364   3.096   7.607  0.2051  0.2637 -0.4212
 1994TIP3    H127617   3.449   3.053   7.598  1.0366  0.4921  3.9811
 1994TIP3    H227618   3.304   3.027   7.634 -1.0053  0.2109 -2.9657
 1995TIP3   OH227619   5.169   6.657   6.511  0.1370  0.0573  0.0874
 1995TIP3    H127620   5.203   6.732   6.559 -0.9245 -0.2395  1.3387
 1995TIP3    H227621   5.224   6.652   6.432  1.4396  0.9974  0.9005
 1996TIP3   OH227622   6.535   4.967   6.698 -0.8172  0.9689 -0.4607
 1996TIP3    H127623   6.481   4.998   6.771 -0.1771  1.0675 -0.0196
 1996TIP3    H227624   6.624   4.993   6.721 -0.3468 -0.5774 -0.4127
 1997TIP3   OH227625   4.617   0.712   1.073 -0.0510 -0.0530 -0.0711
 1997TIP3    H127626   4.528   0.721   1.107  0.1634  1.3904  0.1988
 1997TIP3    H227627   4.672   0.747   1.143  0.4816  1.9960 -1.4256
 1998TIP3   OH227628   3.392   3.011   8.352 -0.1931 -0.5158  0.3696
 1998TIP3    H127629   3.462   3.028   8.416  1.9863 -1.4772 -1.6055
 1998TIP3    H227630   3.351   3.097   8.339  1.2625  0.3069  0.9052
 1999TIP3   OH227631   5.622   1.624   7.806  0.5232  0.4700 -0.5007
 1999TIP3    H127632   5.687   1.649   7.741 -1.0276  4.1927 -0.8938
 1999TIP3    H227633   5.602   1.533   7.787  3.9874 -0.1845 -1.6660
 2000TIP3   OH227634   1.879   4.731   1.348 -0.0719 -0.1622 -1.0059
 2000TIP3    H127635   1.832   4.673   1.408  0.3068 -2.0428 -2.4398
 2000TIP3    H227636   1.810   4.785   1.309 -0.2763  1.4312  1.3774
 2001TIP3   OH227637   0.783   5.079   1.644  0.6338 -0.1432  0.6718
 2001TIP3    H127638   0.693   5.111   1.653  1.4502  2.7635 -0.4443
 2001TIP3    H227639   0.774   5.000   1.590 -1.2180  0.4912 -0.0475
 2002TIP3   OH227640   0.684   3.532   6.954 -0.1256  0.5385 -0.5126
 2002TIP3    H127641   0.679   3.549   6.860  2.1944  0.2154 -0.7399
 2002TIP3    H227642   0.640   3.607   6.995 -0.8413  0.8580 -1.8208
 2003TIP3   OH227643   1.465   1.672   8.361  0.1363  0.3809  0.1691
 2003TIP3    H127644   1.500   1.598   8.411 -0.6644  1.4168  2.3785
 2003TIP3    H227645   1.405   1.716   8.422  0.7967  3.0189 -0.9635
 2004TIP3   OH227646   5.492   2.326   7.597 -0.0200  0.1391 -0.1117
 2004TIP3    H127647   5.412   2.361   7.558  0.3443  0.8093 -0.2710
 2004TIP3    H227648   5.527   2.398   7.650 -0.1362 -0.5250  0.9038
 2005TIP3   OH227649   4.140   0.271   8.264  0.2973  0.7431 -0.3933
 2005TIP3    H127650   4.212   0.218   8.299 -0.5029 -1.6915 -2.1041
 2005TIP3    H227651   4.174   0.307   8.183  0.5717  2.2814  0.3735
 2006TIP3   OH227652   4.636   3.455   6.917 -0.3414  0.3624  0.6060
 2006TIP3    H127653   4.685   3.410   6.986  1.1648  1.9655  0.6145
 2006TIP3    H227654   4.700   3.471   6.848 -1.3981  0.4667 -0.3767
 2007TIP3   OH227655   3.466   3.291   1.391 -0.0886 -0.2272 -0.1936
 2007TIP3    H127656   3.554   3.256   1.397 -0.4686 -1.0941  0.5830
 2007TIP3    H227657   3.417   3.225   1.343 -0.3105  0.2658 -0.6535
 2008TIP3   OH227658   5.613   5.465   6.774  0.5431 -0.2149 -0.1387
 2008TIP3    H127659   5.542   5.529   6.784  0.1649 -0.6156 -0.2638
 2008TIP3    H227660   5.638   5.471   6.682  2.1721  1.5041  0.3641
 2009TIP3   OH227661   3.083   1.335   1.767 -0.1446 -0.3602  0.0338
 2009TIP3    H127662   3.104   1.416   1.720 -1.0347  0.7545  1.4822
 2009TIP3    H227663   3.106   1.354   1.858 -3.2829 -0.5755  0.9618
 2010TIP3   OH227664   0.072   1.612   2.302  0.0210 -0.4540  0.2135
 2010TIP3    H127665   0.088   1.688   2.246  0.2808  0.2951  1.2793
 2010TIP3    H227666   0.096   1.537   2.247  0.6869  0.2807 -0.5361
 2011TIP3   OH227667   1.073   2.561   0.818 -0.1529 -0.2578  0.7993
 2011TIP3    H127668   1.000   2.589   0.874 -0.4862  2.1401 -0.6720
 2011TIP3    H227669   1.032   2.508   0.749 -0.1562 -0.7994  1.2124
 2012TIP3   OH227670   6.774   1.740   7.204  0.3846  0.4703  0.0114
 2012TIP3    H127671   6.783   1.795   7.282 -0.0299 -1.3976  1.4515
 2012TIP3    H227672   6.714   1.788   7.148 -1.7122  0.5621  2.1546
 2013TIP3   OH227673   1.944   2.415   6.593  0.1109  0.6160  0.2806
 2013TIP3    H127674   1.979   2.464   6.518  0.5312  0.8805  0.6456
 2013TIP3    H227675   1.960   2.324   6.571 -3.9592  0.2473 -2.1435
 2014TIP3   OH227676   0.320   0.493   0.145 -0.4590 -0.7062 -0.0041
 2014TIP3    H127677   0.321   0.398   0.137 -0.2239 -0.7728  0.7477
 2014TIP3    H227678   0.393   0.523   0.091 -0.5896 -0.9398 -0.3145
 2015TIP3   OH227679   5.017   1.628   7.957 -0.2534 -0.4065  0.0116
 2015TIP3    H127680   4.998   1.536   7.938  1.3756 -0.8924  0.5360
 2015TIP3    H227681   5.096   1.647   7.906  0.4434  0.1501  1.2497
 2016TIP3   OH227682   4.866   0.915   7.356 -0.3341 -0.0596 -0.7336
 2016TIP3    H127683   4.929   0.865   7.303  0.9780 -1.0007  1.5641
 2016TIP3    H227684   4.903   1.003   7.360  0.3968 -0.3779 -0.1599
 2017TIP3   OH227685   4.892   4.171   1.166 -0.5702 -0.1511  0.2084
 2017TIP3    H127686   4.802   4.203   1.168 -0.7546 -0.2435 -2.4108
 2017TIP3    H227687   4.941   4.240   1.122  0.1326 -1.1085 -0.5628
 2018TIP3   OH227688   1.824   6.266   0.620 -0.1769  0.1496  0.0281
 2018TIP3    H127689   1.823   6.170   0.619 -1.1467  0.1566 -0.3141
 2018TIP3    H227690   1.882   6.288   0.694  0.9480 -0.6807 -0.5663
 2019TIP3   OH227691   1.604   1.530   1.319  0.2864  0.0645  0.3447
 2019TIP3    H127692   1.531   1.469   1.331 -1.4617  1.8571 -0.6335
 2019TIP3    H227693   1.624   1.561   1.407 -2.9772  2.5978  0.3693
 2020TIP3   OH227694   3.216   0.901   7.499 -0.2483  0.3465 -0.0560
 2020TIP3    H127695   3.276   0.836   7.538  0.1229  1.1852  0.8127
 2020TIP3    H227696   3.164   0.932   7.573  0.4384  1.9479 -0.2249
 2021TIP3   OH227697   0.097   0.099   1.316  0.1641 -0.3503  0.0499
 2021TIP3    H127698   0.110   0.136   1.229 -0.3780  1.2871  0.6224
 2021TIP3    H227699   0.137   0.012   1.312 -0.6877 -0.6977 -2.0962
 2022TIP3   OH227700   5.226   2.952   7.950 -0.2056  0.4611  0.0454
 2022TIP3    H127701   5.233   2.958   8.045  0.0783 -0.5188  0.0920
 2022TIP3    H227702   5.193   2.864   7.933  1.9623 -0.2353 -0.8467
 2023TIP3   OH227703   0.105   4.315   7.062 -0.1809  0.1450 -0.2144
 2023TIP3    H127704   0.070   4.231   7.030 -4.1421  1.3727  0.3070
 2023TIP3    H227705   0.076   4.320   7.153  0.7332  1.7046  0.0194
 2024TIP3   OH227706   1.029   6.815   6.493  0.5020  0.0515 -0.3190
 2024TIP3    H127707   1.064   6.743   6.440 -1.5296  0.9794 -3.1801
 2024TIP3    H227708   1.074   6.892   6.461  1.0049  0.3911  1.1198
 2025TIP3   OH227709   2.099   5.478   0.652 -0.5470 -0.1706 -0.0682
 2025TIP3    H127710   2.038   5.550   0.636 -0.1117  0.5868  1.4138
 2025TIP3    H227711   2.074   5.410   0.590 -1.0230  1.2299 -1.4876
 2026TIP3   OH227712   4.989   3.699   0.304  0.5013  0.0759  0.1257
 2026TIP3    H127713   4.961   3.618   0.347  1.5320 -0.2770  0.1498
 2026TIP3    H227714   4.915   3.723   0.249 -0.1797 -0.3795  0.8212
 2027TIP3   OH227715   5.591   3.295   6.315  0.0126  0.2498 -0.1893
 2027TIP3    H127716   5.509   3.272   6.358 -0.0664  0.6752 -0.1112
 2027TIP3    H227717   5.601   3.389   6.331  1.0717  0.0023  0.7704
 2028TIP3   OH227718   5.321   6.876   0.539 -0.1443 -0.1058 -0.0409
 2028TIP3    H127719   5.348   6.806   0.479  1.3343  1.0022 -0.7332
 2028TIP3    H227720   5.242   6.913   0.498 -0.2895 -0.6308 -0.2502
 2029TIP3   OH227721   5.034   2.193   0.062  0.6547 -0.5247  0.2261
 2029TIP3    H127722   5.012   2.103   0.037  1.1257 -0.5637 -0.0705
 2029TIP3    H227723   5.077   2.184   0.147  2.3177 -0.7904 -0.5923
 2030TIP3   OH227724   4.335   3.323   7.328  0.6455 -0.0091  0.0806
 2030TIP3    H127725   4.331   3.417   7.314 -4.2939 -0.2202 -2.1476
 2030TIP3    H227726   4.336   3.286   7.239  0.1731 -2.0082  0.8415
 2031TIP3   OH227727   0.909   4.567   7.227 -0.1506  0.4977  0.7514
 2031TIP3    H127728   0.937   4.657   7.238  1.8575 -0.0788  0.7397
 2031TIP3    H227729   0.883   4.561   7.135  1.9951  0.5240  0.0923
 2032TIP3   OH227730   0.433   4.955   0.183  0.8263  0.7533  0.6645
 2032TIP3    H127731   0.500   4.916   0.127  1.7097  1.5708  1.1329
 2032TIP3    H227732   0.358   4.968   0.124  1.3640  0.5966 -0.0652
 2033TIP3   OH227733   4.807   2.495   7.361  0.3597 -0.2606  0.0493
 2033TIP3    H127734   4.775   2.584   7.375  0.9726  0.2375 -1.5210
 2033TIP3    H227735   4.728   2.442   7.351 -0.0133  0.0372  1.2627
 2034TIP3   OH227736   0.952   2.287   8.023 -0.4048 -0.5674 -0.0231
 2034TIP3    H127737   0.980   2.223   7.958  0.3809 -0.3856  0.1213
 2034TIP3    H227738   0.862   2.262   8.045  0.2164 -2.2111  0.7642
 2035TIP3   OH227739   6.237   3.796   8.472  0.2987 -0.4611  0.2369
 2035TIP3    H127740   6.277   3.793   8.559  0.3974 -0.4279  0.1915
 2035TIP3    H227741   6.278   3.725   8.424  0.7559 -0.0297 -0.0091
 2036TIP3   OH227742   5.137   1.373   8.231 -0.3720 -0.2776  0.4151
 2036TIP3    H127743   5.083   1.355   8.154 -0.7647  0.7624  0.4305
 2036TIP3    H227744   5.222   1.398   8.195 -0.7924  1.0072  0.2682
 2037TIP3   OH227745   4.835   3.526   1.908 -0.6726  0.3471 -0.7871
 2037TIP3    H127746   4.847   3.518   1.813  0.6072 -0.1166 -0.5973
 2037TIP3    H227747   4.866   3.614   1.929 -1.4743  0.6571 -0.8633
 2038TIP3   OH227748   5.368   1.374   8.095 -0.1880 -0.0026 -0.1463
 2038TIP3    H127749   5.339   1.395   8.006  1.1566  3.5409  0.0878
 2038TIP3    H227750   5.454   1.334   8.084  1.1232  2.6740 -0.5349
 2039TIP3   OH227751   4.026   3.604   7.306  0.1886  0.0859  0.7543
 2039TIP3    H127752   4.091   3.597   7.236 -1.3420  2.6253 -1.0724
 2039TIP3    H227753   3.948   3.562   7.270 -0.1331 -0.0770  1.6268
 2040TIP3   OH227754   2.397   3.028   8.675 -0.2192 -0.3820 -0.3295
 2040TIP3    H127755   2.391   3.110   8.626  0.8469  1.8441  2.8994
 2040TIP3    H227756   2.311   2.988   8.665 -1.0338  1.5187 -1.4372
 2041TIP3   OH227757   0.516   5.895   6.741  0.1614 -0.0901  0.6776
 2041TIP3    H127758   0.435   5.942   6.722 -0.1670 -0.4390  1.2118
 2041TIP3    H227759   0.551   5.871   6.655 -0.0042  0.5552  0.4273
 2042TIP3   OH227760   5.510   0.631   7.354 -0.0839  0.1988  0.7880
 2042TIP3    H127761   5.576   0.570   7.320  0.1224 -0.4266  2.2494
 2042TIP3    H227762   5.536   0.647   7.445  0.2784  3.0594  0.2842
 2043TIP3   OH227763   1.985   0.558   6.911 -0.4487  0.0419 -0.0530
 2043TIP3    H127764   1.997   0.532   7.003  0.2921 -0.7687 -0.3610
 2043TIP3    H227765   2.046   0.502   6.863  1.5357  2.6050 -0.7585
 2044TIP3   OH227766   4.246   1.109   8.216  0.1170 -0.3408  0.4414
 2044TIP3    H127767   4.163   1.061   8.211 -1.1170  1.5388  1.3124
 2044TIP3    H227768   4.295   1.083   8.139 -2.0918 -0.1533 -1.1008
 2045TIP3   OH227769   2.950   5.615   8.416 -0.1783  0.2676 -0.0451
 2045TIP3    H127770   2.976   5.684   8.476 -1.6495 -0.7399  1.8578
 2045TIP3    H227771   2.992   5.536   8.450  0.2239 -0.0630 -1.2670
 2046TIP3   OH227772   6.892   6.400   0.526 -0.1286  0.3388  0.0202
 2046TIP3    H127773   6.891   6.446   0.610  1.9654  0.3036  0.1139
 2046TIP3    H227774   6.823   6.335   0.533 -0.7058  1.0511  1.2852
 2047TIP3   OH227775   0.039   6.895   7.393 -1.0313  0.3530  0.3916
 2047TIP3    H127776  -0.006   6.870   7.313 -1.9748  2.1532  0.3170
 2047TIP3    H227777   0.131   6.877   7.375 -1.3306 -0.1606 -0.7357
 2048TIP3   OH227778   3.415   1.786   0.539  0.0870  0.4230 -0.0394
 2048TIP3    H127779   3.339   1.770   0.595  0.8671 -1.3380  0.5795
 2048TIP3    H227780   3.487   1.803   0.600  0.6034  0.1296 -0.5644
 2049TIP3   OH227781   2.229   5.604   7.189 -0.0841  0.6101 -0.0857
 2049TIP3    H127782   2.294   5.594   7.120  0.2752  0.3158  0.2907
 2049TIP3    H227783   2.252   5.537   7.254 -0.9283  0.3129 -0.0783
 2050TIP3   OH227784   1.441   3.965   2.590  0.1674  0.2644  0.2303
 2050TIP3    H127785   1.359   3.998   2.626  0.4160 -0.8637  1.9768
 2050TIP3    H227786   1.502   4.038   2.600 -0.1728  0.4942  0.6784
 2051TIP3   OH227787   1.470   4.357   0.468 -0.3910 -0.5976  0.1252
 2051TIP3    H127788   1.528   4.402   0.529 -0.4788 -1.8836  1.1927
 2051TIP3    H227789   1.508   4.375   0.382  0.0430  0.7941  0.5790
 2052TIP3   OH227790   2.235   4.145   1.739  0.1510 -0.3224  0.2193
 2052TIP3    H127791   2.254   4.122   1.648 -0.1717  0.9535 -0.1911
 2052TIP3    H227792   2.321   4.151   1.780  0.2529 -2.8174  0.5450
 2053TIP3   OH227793   0.371   3.453   8.337 -0.1386 -0.1480 -0.3099
 2053TIP3    H127794   0.458   3.416   8.356 -0.5176 -0.1105  1.8206
 2053TIP3    H227795   0.316   3.377   8.319 -0.1623 -0.3918  0.7044
 2054TIP3   OH227796   0.700   4.176   1.694 -0.1115 -0.5560 -0.4652
 2054TIP3    H127797   0.636   4.180   1.765 -0.5466 -0.0881 -0.8739
 2054TIP3    H227798   0.774   4.128   1.731 -0.6914 -1.0976  0.0194
 2055TIP3   OH227799   2.786   2.494   1.479 -0.1564  0.3510 -0.8682
 2055TIP3    H127800   2.872   2.453   1.471 -1.4843 -4.0217  2.6890
 2055TIP3    H227801   2.799   2.565   1.542  0.8179 -1.0080  0.5528
 2056TIP3   OH227802   0.013   1.326   7.669 -0.2753 -0.5406 -0.6776
 2056TIP3    H127803   0.080   1.261   7.651 -0.9350 -1.3330 -0.3334
 2056TIP3    H227804   0.015   1.338   7.764 -0.4748 -0.4193 -0.6872
 2057TIP3   OH227805   1.423   6.658   1.025 -0.2185 -0.4960  0.1577
 2057TIP3    H127806   1.479   6.729   0.996  0.7561 -1.3894 -0.2271
 2057TIP3    H227807   1.340   6.671   0.979  0.0427  0.2130 -0.1194
 2058TIP3   OH227808   2.564   3.573   8.143  0.4304  0.1995 -0.4003
 2058TIP3    H127809   2.594   3.610   8.226 -1.3557 -0.7863  0.7538
 2058TIP3    H227810   2.625   3.502   8.125  1.2107  0.8268 -0.2877
 2059TIP3   OH227811   3.623   6.654   1.758 -0.4439  0.3985  0.8007
 2059TIP3    H127812   3.631   6.737   1.710 -0.6325  0.3264  0.6440
 2059TIP3    H227813   3.547   6.611   1.719  2.7257 -2.4441 -3.0928
 2060TIP3   OH227814   1.633   5.382   1.550 -0.1291 -0.0186  0.0704
 2060TIP3    H127815   1.657   5.412   1.638 -0.4785 -0.4981  0.3329
 2060TIP3    H227816   1.542   5.411   1.538  0.3236  1.1803 -0.6472
 2061TIP3   OH227817   0.196   1.386   6.509 -0.2512 -0.8171 -0.2108
 2061TIP3    H127818   0.286   1.380   6.540 -0.0522  0.7962 -0.3666
 2061TIP3    H227819   0.199   1.351   6.420 -0.0017 -1.7456  0.1569
 2062TIP3   OH227820   4.237   4.411   8.157 -0.0497 -0.8416 -0.0567
 2062TIP3    H127821   4.330   4.428   8.143 -0.2311 -1.1294 -1.8814
 2062TIP3    H227822   4.218   4.447   8.243  1.5629  0.0192 -0.0364
 2063TIP3   OH227823   6.472   6.453   8.195 -0.3312  0.2582 -0.0335
 2063TIP3    H127824   6.403   6.507   8.157 -0.9767  0.2304  1.0919
 2063TIP3    H227825   6.490   6.493   8.280 -0.1846 -0.7726  0.4263
 2064TIP3   OH227826   3.799   3.134   2.413  0.1017  0.5909 -0.2352
 2064TIP3    H127827   3.806   3.228   2.400 -0.5867  1.1012  2.4539
 2064TIP3    H227828   3.731   3.123   2.479 -0.0020 -1.8221 -0.6241
 2065TIP3   OH227829   5.405   3.740   1.438  0.1547 -0.0181  0.2614
 2065TIP3    H127830   5.436   3.830   1.434 -0.7658  0.3688  1.2577
 2065TIP3    H227831   5.373   3.729   1.528 -0.2361 -1.1630  0.0052
 2066TIP3   OH227832   0.209   6.177   8.316  0.2053  0.1475  0.7048
 2066TIP3    H127833   0.255   6.233   8.253 -1.8385 -2.0166 -3.0234
 2066TIP3    H227834   0.135   6.231   8.346  0.0884  0.5767 -0.3076
 2067TIP3   OH227835   3.645   4.455   6.911  0.1709 -0.1951 -0.3273
 2067TIP3    H127836   3.651   4.394   6.838 -2.2705 -1.5436  0.4961
 2067TIP3    H227837   3.626   4.540   6.870 -1.8109 -1.0443 -1.2766
 2068TIP3   OH227838   2.625   3.825   8.003  0.6019 -0.1958  0.2581
 2068TIP3    H127839   2.582   3.746   8.034 -0.2225  1.3061  3.3273
 2068TIP3    H227840   2.563   3.863   7.940  0.2182 -1.0706  0.0951
 2069TIP3   OH227841   6.783   2.543   7.434  0.5366  0.5285 -0.8065
 2069TIP3    H127842   6.720   2.613   7.416 -0.2870  0.1442  0.4143
 2069TIP3    H227843   6.838   2.539   7.356  1.4323  3.3895 -0.4326
 2070TIP3   OH227844   3.172   5.749   7.333  0.1238 -0.1449 -0.4533
 2070TIP3    H127845   3.163   5.782   7.244 -3.1142 -0.9661 -0.5522
 2070TIP3    H227846   3.123   5.811   7.387  2.0767  0.3742  0.8607
 2071TIP3   OH227847   3.351   1.333   0.421 -0.4263  0.1740  0.0604
 2071TIP3    H127848   3.396   1.385   0.354  0.8665  0.0105  0.7699
 2071TIP3    H227849   3.303   1.397   0.473 -0.1158  0.4811 -0.0296
 2072TIP3   OH227850   6.657   5.188   7.581  0.2906  0.3218 -0.1859
 2072TIP3    H127851   6.736   5.201   7.634 -0.9989  2.1043  1.4217
 2072TIP3    H227852   6.603   5.265   7.599 -2.0234 -1.0425 -0.9061
 2073TIP3   OH227853   6.004   6.306   8.562  0.2263  0.0510 -0.2394
 2073TIP3    H127854   5.931   6.364   8.544  0.4856  0.1720 -0.8951
 2073TIP3    H227855   6.062   6.357   8.619  0.9320  0.7998 -1.5974
 2074TIP3   OH227856   4.931   0.487   8.451 -0.3614 -0.7565 -0.0708
 2074TIP3    H127857   4.912   0.409   8.399 -0.1014 -0.8129 -0.0827
 2074TIP3    H227858   4.898   0.560   8.399 -0.7855 -0.8697  0.0275
 2075TIP3   OH227859   2.939   1.459   0.371  0.1717  0.0034  0.1254
 2075TIP3    H127860   2.927   1.408   0.451 -0.4082  1.5061  1.0409
 2075TIP3    H227861   2.936   1.550   0.400 -1.3802  0.6342 -1.7700
 2076TIP3   OH227862   0.386   4.184   1.147 -0.0789  0.0926 -0.2644
 2076TIP3    H127863   0.407   4.191   1.053 -1.2359  1.2234 -0.4523
 2076TIP3    H227864   0.295   4.210   1.154 -0.1462 -0.4221  1.1406
 2077TIP3   OH227865   6.411   0.220   8.406  0.5982 -0.5277  0.5124
 2077TIP3    H127866   6.334   0.242   8.457  0.3081 -1.1224  0.3443
 2077TIP3    H227867   6.452   0.305   8.386 -1.3832  0.0496 -1.5404
 2078TIP3   OH227868   1.774   0.117   7.236  0.3494 -0.2878 -0.1603
 2078TIP3    H127869   1.719   0.190   7.266  1.5024  0.4850  0.1410
 2078TIP3    H227870   1.725   0.079   7.163  0.2252  1.5160 -1.0820
 2079TIP3   OH227871   3.945   0.179   7.969  0.3560  0.1550  0.2587
 2079TIP3    H127872   4.036   0.210   7.964  0.2001  0.3903 -1.4061
 2079TIP3    H227873   3.941   0.133   8.053  1.4525  1.9110  1.3383
 2080TIP3   OH227874   2.987   3.609   8.242  0.1306 -0.3492 -0.4307
 2080TIP3    H127875   3.064   3.638   8.291  0.6611 -0.1408 -1.3631
 2080TIP3    H227876   2.951   3.689   8.204  0.1569 -0.5957 -0.9855
 2081TIP3   OH227877   5.022   0.871   6.346 -0.5224 -0.0430  0.3950
 2081TIP3    H127878   5.031   0.921   6.265  0.1939 -2.2994 -1.0257
 2081TIP3    H227879   4.945   0.816   6.332 -0.2355 -0.6521  1.1092
 2082TIP3   OH227880   1.073   5.215   6.090 -1.0152  0.2370  0.2720
 2082TIP3    H127881   1.076   5.199   5.996  0.2738 -0.7587  0.4529
 2082TIP3    H227882   1.032   5.136   6.126 -0.5850  0.1631  0.6169
 2083TIP3   OH227883   2.492   0.181   6.617  0.2196 -0.3038 -0.6167
 2083TIP3    H127884   2.414   0.228   6.588 -0.0487  0.4909  1.2315
 2083TIP3    H227885   2.561   0.248   6.621  0.8820 -0.8839 -1.6918
 2084TIP3   OH227886   5.796   5.376   7.956  0.3475 -0.4078  0.3874
 2084TIP3    H127887   5.862   5.386   7.888  0.8338 -0.4850  0.8495
 2084TIP3    H227888   5.766   5.285   7.947  2.2932 -1.2736  1.9639
 2085TIP3   OH227889   2.809   5.209   0.912  0.6760 -0.1131  0.0586
 2085TIP3    H127890   2.884   5.262   0.938  0.7787 -0.8537  1.3798
 2085TIP3    H227891   2.832   5.175   0.825  1.1250  1.0063 -0.2694
 2086TIP3   OH227892   0.744   4.444   8.104  0.7729  0.0666  0.3430
 2086TIP3    H127893   0.735   4.420   8.196  3.1060  0.0890  0.6351
 2086TIP3    H227894   0.763   4.538   8.105  0.3726  0.1613 -0.2040
 2087TIP3   OH227895   5.544   2.259   7.304  0.3449  0.4213  0.8062
 2087TIP3    H127896   5.555   2.354   7.298  0.4214  0.3239 -2.8986
 2087TIP3    H227897   5.449   2.246   7.297  0.4580  0.2230 -0.6906
 2088TIP3   OH227898   2.133   5.586   1.040 -0.4818 -0.2504 -0.1695
 2088TIP3    H127899   2.041   5.602   1.018 -0.6219 -1.3685 -0.4502
 2088TIP3    H227900   2.135   5.495   1.068 -0.0364  0.6306  3.1029
 2089TIP3   OH227901   6.564   4.638   7.786  0.3330  1.1422 -0.4977
 2089TIP3    H127902   6.569   4.662   7.693  0.8477  1.8150 -0.3106
 2089TIP3    H227903   6.473   4.656   7.811  0.6054  2.6133 -0.4624
 2090TIP3   OH227904   1.753   0.439   6.518  0.4159  0.7253 -0.3700
 2090TIP3    H127905   1.844   0.410   6.521  0.8038  1.9328  0.7351
 2090TIP3    H227906   1.758   0.534   6.509 -0.6711  0.9948  1.2275
 2091TIP3   OH227907   5.213   3.965   2.383  0.4689 -0.3253 -0.2796
 2091TIP3    H127908   5.123   3.966   2.415  0.5196 -0.8210 -0.1080
 2091TIP3    H227909   5.246   3.878   2.407  0.9024 -0.2512 -0.5883
 2092TIP3   OH227910   5.097   6.523   0.065  0.1867 -0.3055  0.6107
 2092TIP3    H127911   5.017   6.491   0.022  0.4321 -0.4693  0.2694
 2092TIP3    H227912   5.065   6.579   0.135 -0.2288 -0.1033  0.2690
 2093TIP3   OH227913   0.456   5.621   0.874  0.2857  0.3065 -0.3697
 2093TIP3    H127914   0.404   5.664   0.941 -1.6362 -0.1613 -1.5077
 2093TIP3    H227915   0.535   5.591   0.921  0.6341  2.9737  0.9028
 2094TIP3   OH227916   5.317   3.957   2.025  0.2065 -0.3621 -0.1565
 2094TIP3    H127917   5.335   4.015   1.951 -0.0454 -1.0168 -0.7472
 2094TIP3    H227918   5.359   4.000   2.100 -0.7738  1.0545 -0.3803
 2095TIP3   OH227919   5.874   3.559   8.081  0.3891  0.0079 -0.1944
 2095TIP3    H127920   5.853   3.645   8.044 -2.2691 -0.0312  0.9678
 2095TIP3    H227921   5.926   3.579   8.159  1.7925  0.3813 -1.2014
 2096TIP3   OH227922   0.524   3.835   7.933 -0.4742 -0.7531  0.3568
 2096TIP3    H127923   0.557   3.913   7.977 -0.4723 -0.5362 -0.0213
 2096TIP3    H227924   0.546   3.848   7.840 -2.2612 -0.2372 -0.0353
 2097TIP3   OH227925   2.858   5.983   7.059  0.1855  0.1540 -0.1530
 2097TIP3    H127926   2.845   5.892   7.035  0.3662  0.5682 -1.9206
 2097TIP3    H227927   2.947   5.986   7.094 -0.0554 -0.4461  0.5426
 2098TIP3   OH227928   4.019   1.292   0.823 -0.1124 -0.3749  0.3450
 2098TIP3    H127929   4.110   1.310   0.847 -0.2177  1.5859 -0.4792
 2098TIP3    H227930   3.968   1.352   0.878 -0.8258 -0.6907  0.0393
 2099TIP3   OH227931   5.507   3.702   6.734  0.3466  0.4902 -0.8740
 2099TIP3    H127932   5.557   3.724   6.655 -1.9643  0.8293 -2.3529
 2099TIP3    H227933   5.421   3.743   6.720 -0.6559 -0.7781  1.1060
 2100TIP3   OH227934   4.416   0.434   1.033  0.5883 -0.1467  0.0451
 2100TIP3    H127935   4.354   0.361   1.036  0.7703 -0.3292 -0.5057
 2100TIP3    H227936   4.396   0.485   1.112 -0.9552  0.3533 -0.6186
 2101TIP3   OH227937   5.007   2.298   1.931 -0.7092  0.2619  0.3103
 2101TIP3    H127938   4.978   2.235   1.997  0.6420  0.4076  1.0643
 2101TIP3    H227939   4.997   2.383   1.973 -2.7126  0.6373 -0.7722
 2102TIP3   OH227940   4.189   4.218   2.308 -0.0785 -0.1151 -0.8090
 2102TIP3    H127941   4.185   4.125   2.282 -0.9822 -0.6083  0.9680
 2102TIP3    H227942   4.101   4.251   2.288  0.1575  0.3046 -1.1668
 2103TIP3   OH227943   3.938   6.125   7.159  0.3055  0.1836  0.0828
 2103TIP3    H127944   3.898   6.038   7.159 -0.6441  0.6127 -0.3721
 2103TIP3    H227945   3.949   6.146   7.066 -2.0720  1.7011  0.0654
 2104TIP3   OH227946   0.170   0.929   0.314 -0.4462 -0.2874 -0.7061
 2104TIP3    H127947   0.226   0.884   0.377 -0.2526  1.1746  0.2054
 2104TIP3    H227948   0.117   0.859   0.275 -1.7032 -1.0851  2.1944
 2105TIP3   OH227949   0.772   2.645   7.566 -0.6012  0.1490  0.0271
 2105TIP3    H127950   0.746   2.623   7.655 -1.4846  0.1642 -0.2081
 2105TIP3    H227951   0.803   2.735   7.571  0.0193 -0.0844  0.4401
 2106TIP3   OH227952   1.405   2.972   6.746 -0.2872  0.3230  0.6316
 2106TIP3    H127953   1.427   2.896   6.693 -1.4740  0.0897  0.4527
 2106TIP3    H227954   1.399   3.045   6.684  1.3265  0.6838  0.8646
 2107TIP3   OH227955   6.445   5.778   8.440 -0.0970  0.2928  0.5516
 2107TIP3    H127956   6.436   5.811   8.530 -0.2578 -0.2821  0.7552
 2107TIP3    H227957   6.363   5.802   8.397  0.7594  2.3343 -0.0518
 2108TIP3   OH227958   3.237   3.881   7.779 -0.7464  0.5642  0.0384
 2108TIP3    H127959   3.331   3.897   7.773 -0.8371  1.6479  1.2345
 2108TIP3    H227960   3.227   3.788   7.759  0.6201  0.3476  0.3277
 2109TIP3   OH227961   1.106   0.071   7.903 -0.1002  0.2325  0.4141
 2109TIP3    H127962   1.055   0.043   7.827 -0.9795  1.1560  0.6408
 2109TIP3    H227963   1.078   0.161   7.919 -1.0997 -0.4219  2.7564
 2110TIP3   OH227964   6.784   5.200   6.012 -0.8143 -0.3020 -0.7854
 2110TIP3    H127965   6.768   5.110   6.039 -0.0582 -0.5713 -1.2058
 2110TIP3    H227966   6.879   5.209   6.010 -0.8756  0.3896 -1.1230
 2111TIP3   OH227967   4.074   4.500   7.421 -0.5311  0.1694 -0.5512
 2111TIP3    H127968   4.089   4.494   7.327 -0.0764  2.5759 -0.7011
 2111TIP3    H227969   3.981   4.479   7.432 -0.1708 -2.0411 -1.2387
 2112TIP3   OH227970   6.859   1.832   0.274  0.3315  0.2782 -0.0670
 2112TIP3    H127971   6.826   1.742   0.267 -1.8309  1.0496 -0.8609
 2112TIP3    H227972   6.925   1.838   0.205 -0.5353 -0.3277 -0.9905
 2113TIP3   OH227973   0.147   5.520   1.926  0.5317  0.3595 -0.5007
 2113TIP3    H127974   0.056   5.549   1.934 -0.2408 -2.2131  0.9143
 2113TIP3    H227975   0.157   5.495   1.834 -0.3655  0.0950 -0.5256
 2114TIP3   OH227976   6.122   2.995   0.828 -0.0259  0.4752  0.1765
 2114TIP3    H127977   6.064   3.034   0.763 -0.1619  0.9773  0.5966
 2114TIP3    H227978   6.206   2.985   0.782 -0.2661  0.3431 -0.2320
 2115TIP3   OH227979   4.048   0.586   2.073 -0.3294 -0.7185 -0.5678
 2115TIP3    H127980   3.977   0.648   2.090  0.9476  0.7604 -0.4102
 2115TIP3    H227981   4.004   0.506   2.045 -2.0963 -0.1992  0.5896
 2116TIP3   OH227982   6.035   1.702   0.415  0.0872 -0.1929 -0.0885
 2116TIP3    H127983   5.942   1.714   0.394  0.6221  1.2251 -1.9210
 2116TIP3    H227984   6.065   1.637   0.351  0.5021 -0.1269  0.0399
 2117TIP3   OH227985   0.720   5.528   0.744 -0.2989 -0.0821 -0.5665
 2117TIP3    H127986   0.706   5.453   0.686 -1.4123 -0.6028  0.3432
 2117TIP3    H227987   0.797   5.504   0.796 -1.3088 -1.1117  0.4963
 2118TIP3   OH227988   6.574   4.907   2.304  0.1230 -0.0366 -0.2978
 2118TIP3    H127989   6.545   4.832   2.253  0.4584  1.0631 -2.2039
 2118TIP3    H227990   6.655   4.879   2.346 -0.2180 -1.0025 -0.2797
 2119TIP3   OH227991   4.461   2.899   7.687  0.3049  0.1239 -0.1630
 2119TIP3    H127992   4.437   2.889   7.595  0.7478  0.1099 -0.2790
 2119TIP3    H227993   4.384   2.939   7.727  0.2180  0.4055 -0.6016
 2120TIP3   OH227994   2.019   2.028   8.524  0.0384 -0.6153  0.1744
 2120TIP3    H127995   2.095   2.043   8.579  0.2198 -1.1159  0.0722
 2120TIP3    H227996   2.056   1.996   8.441 -0.3107 -1.8874  0.4770
 2121TIP3   OH227997   0.414   5.031   7.186  0.4041 -0.0582  0.2910
 2121TIP3    H127998   0.323   5.061   7.187  0.2598 -0.1700 -2.3270
 2121TIP3    H227999   0.407   4.936   7.199  0.0711 -0.1425 -0.4296
 2122TIP3   OH228000   1.963   3.618   0.300  0.2722  0.1225 -0.1850
 2122TIP3    H128001   2.033   3.553   0.297  0.8672  0.7597 -0.3496
 2122TIP3    H228002   1.996   3.686   0.359 -0.9297 -0.3851  1.1265
 2123TIP3   OH228003   4.869   3.951   8.325  0.5247 -0.7333  0.6999
 2123TIP3    H128004   4.860   3.918   8.236  1.5077 -0.1951  0.3884
 2123TIP3    H228005   4.799   3.908   8.374 -2.3488  1.6012 -1.0562
 2124TIP3   OH228006   0.726   1.018   0.175 -0.0718  0.1507  0.0678
 2124TIP3    H128007   0.702   0.926   0.167 -1.7922  0.6858 -1.4480
 2124TIP3    H228008   0.653   1.057   0.223  0.1239  0.9175 -0.2520
 2125TIP3   OH228009   0.912   6.861   1.773  0.1537  0.4525 -0.2644
 2125TIP3    H128010   0.990   6.846   1.826 -0.8015 -0.0845  1.0531
 2125TIP3    H228011   0.854   6.787   1.792 -1.0287  1.2685 -0.5254
 2126TIP3   OH228012   5.772   1.607   2.143  0.2025 -0.4190  0.0726
 2126TIP3    H128013   5.697   1.551   2.164  1.5117 -2.6151 -0.6952
 2126TIP3    H228014   5.733   1.688   2.109 -1.8699 -1.8917 -1.3461
 2127TIP3   OH228015   5.186   0.730   0.650  0.1847  0.1096  0.1737
 2127TIP3    H128016   5.202   0.798   0.716 -0.2360  0.5760 -0.1993
 2127TIP3    H228017   5.110   0.761   0.601  0.1021 -0.5443 -0.1207
 2128TIP3   OH228018   3.985   6.352   6.544 -0.3528  0.2600 -0.0545
 2128TIP3    H128019   3.953   6.421   6.603 -1.1861 -0.2843  0.1483
 2128TIP3    H228020   3.946   6.272   6.578 -0.9088 -0.0569 -1.3838
 2129TIP3   OH228021   0.501   6.043   6.966 -0.2072 -0.0575 -0.3526
 2129TIP3    H128022   0.444   6.115   6.940 -2.2656 -0.8964  1.4763
 2129TIP3    H228023   0.520   5.997   6.884 -4.3928 -1.2256 -0.8951
 2130TIP3   OH228024   2.747   1.927   0.486  0.3007  0.5015  0.3248
 2130TIP3    H128025   2.699   1.876   0.420 -0.6167  1.4612  0.2269
 2130TIP3    H228026   2.745   2.017   0.453  1.0041  0.7747  1.0001
 2131TIP3   OH228027   3.852   3.127   8.190  0.0011  0.3198 -0.5689
 2131TIP3    H128028   3.918   3.128   8.260 -1.7618  0.4008  1.2029
 2131TIP3    H228029   3.882   3.059   8.130  0.7050 -1.0650  1.2329
 2132TIP3   OH228030   1.940   0.591   7.460  0.1658 -0.0502 -0.1777
 2132TIP3    H128031   1.997   0.634   7.524 -0.2572  0.8598 -0.4062
 2132TIP3    H228032   1.858   0.639   7.464 -1.1288 -2.2116  1.1664
 2133TIP3   OH228033   1.757   1.773   1.224 -1.2531  0.3223 -0.7272
 2133TIP3    H128034   1.704   1.699   1.254 -0.5548  0.5476  1.1997
 2133TIP3    H228035   1.822   1.734   1.165 -0.8322 -0.6503  0.3468
 2134TIP3   OH228036   0.451   6.271   7.629 -0.5054 -0.1584  0.3362
 2134TIP3    H128037   0.388   6.271   7.557  1.2581 -2.7101 -1.3799
 2134TIP3    H228038   0.405   6.229   7.702 -1.6801  0.6846  0.1091
 2135TIP3   OH228039   2.644   3.623   7.389  0.7564  0.4226 -0.3821
 2135TIP3    H128040   2.569   3.658   7.340 -0.1750 -0.5551  0.2968
 2135TIP3    H228041   2.640   3.669   7.473  0.1830 -0.5088  0.1055
 2136TIP3   OH228042   0.433   3.729   0.179 -0.1469  0.0829 -0.5939
 2136TIP3    H128043   0.359   3.778   0.214  0.5920  0.1160  0.9915
 2136TIP3    H228044   0.418   3.638   0.206 -0.7235 -0.3418 -2.2052
 2137TIP3   OH228045   0.906   2.621   8.211  0.2319  0.0927 -0.4793
 2137TIP3    H128046   0.928   2.603   8.120  1.4101 -0.4063 -0.1202
 2137TIP3    H228047   0.838   2.557   8.233 -1.4332  1.4122 -1.5088
 2138TIP3   OH228048   0.384   6.393   0.746  0.1577  0.0304 -0.1565
 2138TIP3    H128049   0.438   6.381   0.824  0.5587  1.9786 -0.0734
 2138TIP3    H228050   0.298   6.359   0.771 -0.1301  1.9153  1.7109
 2139TIP3   OH228051   1.451   2.501   1.567  0.0807  0.3829  0.1579
 2139TIP3    H128052   1.460   2.429   1.629 -1.0197 -0.1564 -0.2902
 2139TIP3    H228053   1.387   2.470   1.503 -0.5549  1.8292  0.0624
 2140TIP3   OH228054   4.642   4.526   1.539 -0.2362  0.0263 -0.3559
 2140TIP3    H128055   4.593   4.460   1.588  1.6122 -3.1513 -2.3364
 2140TIP3    H228056   4.578   4.592   1.516 -2.7903 -2.1242  0.0584
 2141TIP3   OH228057   5.751   5.517   5.957 -0.4603 -0.0426  0.0445
 2141TIP3    H128058   5.668   5.472   5.945 -1.7336  1.7468  1.6282
 2141TIP3    H228059   5.756   5.535   6.050  0.6359  1.8439 -0.3287
 2142TIP3   OH228060   4.699   5.540   8.381  0.2269 -0.3058  0.2760
 2142TIP3    H128061   4.756   5.586   8.443  1.2609 -1.3363  0.1112
 2142TIP3    H228062   4.610   5.559   8.412  0.6142  1.6074  0.3318
 2143TIP3   OH228063   0.940   0.163   2.880  0.1920  0.1454 -0.6616
 2143TIP3    H128064   0.995   0.092   2.914 -0.6699 -0.1453  0.1663
 2143TIP3    H228065   0.999   0.214   2.824  1.8612  0.9979  1.7350
 2144TIP3   OH228066   4.847   6.494   6.398  0.3781 -0.0432 -0.3304
 2144TIP3    H128067   4.787   6.493   6.323 -2.3281  0.5457  1.6739
 2144TIP3    H228068   4.814   6.565   6.454  1.0181 -1.7206  2.3514
 2145TIP3   OH228069   5.551   5.688   0.126 -0.0205 -0.3915  0.2835
 2145TIP3    H128070   5.542   5.780   0.103  0.0435 -0.8574 -1.8155
 2145TIP3    H228071   5.461   5.657   0.136 -0.0654 -0.2757  0.2401
 2146TIP3   OH228072   4.668   1.160   6.840 -0.1588 -0.2773  0.2932
 2146TIP3    H128073   4.578   1.183   6.861  0.4959  0.9070  2.0890
 2146TIP3    H228074   4.714   1.165   6.924  1.2899 -2.3782 -0.2833
 2147TIP3   OH228075   0.355   5.317   2.013 -0.7203 -0.1170  0.0530
 2147TIP3    H128076   0.291   5.388   2.008 -0.6534 -0.0908 -0.4576
 2147TIP3    H228077   0.311   5.248   2.062 -1.2511 -0.2115 -0.5499
 2148TIP3   OH228078   5.648   3.442   7.549  0.4207  0.4916  0.0468
 2148TIP3    H128079   5.568   3.493   7.544  0.1817  0.0508 -0.7739
 2148TIP3    H228080   5.636   3.371   7.487  2.1432  1.4184 -1.4832
 2149TIP3   OH228081   3.434   2.585   1.495  0.2175 -0.3445 -0.4174
 2149TIP3    H128082   3.370   2.656   1.496 -0.1461 -0.6698  0.4878
 2149TIP3    H228083   3.382   2.505   1.491  0.4710 -0.6646  1.4933
 2150TIP3   OH228084   4.037   5.220   1.252  0.6610  0.0231  0.4588
 2150TIP3    H128085   4.122   5.175   1.252  1.2626  1.1188  0.4378
 2150TIP3    H228086   4.058   5.311   1.231 -0.2298  0.8407  2.8318
 2151TIP3   OH228087   2.709   6.056   1.130 -0.1391  0.4112  0.2463
 2151TIP3    H128088   2.745   6.001   1.200  0.3147  0.9476  0.4403
 2151TIP3    H228089   2.725   6.006   1.050  0.5597  0.4043  0.3875
 2152TIP3   OH228090   4.467   3.312   2.686 -0.1474  0.2690  0.8933
 2152TIP3    H128091   4.493   3.374   2.617  1.4848 -0.0243  1.1855
 2152TIP3    H228092   4.484   3.226   2.648 -0.2594  0.0730  1.2892
 2153TIP3   OH228093   3.555   0.694   0.418 -0.2662  0.2161  0.2150
 2153TIP3    H128094   3.475   0.644   0.432 -1.5271  1.1960 -2.7780
 2153TIP3    H228095   3.618   0.630   0.385 -0.2838 -0.2631  1.0828
 2154TIP3   OH228096   2.580   3.639   0.038 -0.5785  0.8443 -0.2520
 2154TIP3    H128097   2.618   3.716   0.080 -0.5756  1.1621 -0.8298
 2154TIP3    H228098   2.503   3.672  -0.009  1.0062  1.0504 -2.8939
 2155TIP3   OH228099   4.329   2.342   0.651 -0.1615 -0.4255  0.5523
 2155TIP3    H128100   4.367   2.333   0.563 -1.7629  0.5738 -0.2799
 2155TIP3    H228101   4.301   2.253   0.673  0.1676 -0.6707  0.0255
 2156TIP3   OH228102   2.638   0.615   1.858 -0.0002  0.3234  0.1496
 2156TIP3    H128103   2.625   0.529   1.898 -1.7849  1.0527  1.2686
 2156TIP3    H228104   2.571   0.670   1.897  0.0813  1.8561 -1.7123
 2157TIP3   OH228105   1.060   5.827   7.651 -0.2282  0.5329 -0.0691
 2157TIP3    H128106   1.043   5.848   7.559 -1.9812 -1.5110 -0.2720
 2157TIP3    H228107   1.029   5.904   7.699 -0.7896  0.9549 -1.0787
 2158TIP3   OH228108   5.693   1.255   0.687 -0.0171  0.2732  0.0677
 2158TIP3    H128109   5.629   1.317   0.653 -2.1408 -0.9371  1.6443
 2158TIP3    H228110   5.669   1.242   0.778  1.0240 -2.0239  0.1026
 2159TIP3   OH228111   2.353   1.740   8.495  0.5288 -0.5073 -0.0931
 2159TIP3    H128112   2.382   1.726   8.405  2.8423  4.0461 -0.3146
 2159TIP3    H228113   2.262   1.766   8.487  0.8960  0.5008 -1.2319
 2160TIP3   OH228114   5.838   5.688   1.691 -0.4310 -0.1739  0.1211
 2160TIP3    H128115   5.761   5.632   1.680 -0.0403 -0.8102  0.5713
 2160TIP3    H228116   5.804   5.777   1.681 -0.9161 -0.5067 -1.4675
 2161TIP3   OH228117   0.692   4.889   6.244 -0.0751  0.2982  0.3255
 2161TIP3    H128118   0.622   4.833   6.209 -1.1111  2.0161 -0.5145
 2161TIP3    H228119   0.645   4.960   6.288  1.1236  1.6070 -0.4352
 2162TIP3   OH228120   0.037   4.276   2.122  0.4876 -0.2317  0.1438
 2162TIP3    H128121  -0.013   4.195   2.111  1.0497 -0.7051  0.9911
 2162TIP3    H228122   0.122   4.247   2.157  0.0947  0.8563  2.0916
 2163TIP3   OH228123   2.089   0.082   0.007 -0.1778 -0.3844 -0.0958
 2163TIP3    H128124   2.016   0.127   0.051  0.4553 -1.0332  1.6857
 2163TIP3    H228125   2.053  -0.003  -0.018 -0.9963  0.5307 -2.3328
 2164TIP3   OH228126   2.786   4.781   1.385  0.1118 -0.3318  0.0217
 2164TIP3    H128127   2.733   4.738   1.452  0.0679 -0.7273 -0.2668
 2164TIP3    H228128   2.874   4.786   1.424  0.1165 -0.6811  0.0537
 2165TIP3   OH228129   0.520   2.036   0.585  0.9849 -0.1076 -0.0572
 2165TIP3    H128130   0.531   2.027   0.680  1.2755 -1.2181 -0.1829
 2165TIP3    H228131   0.431   2.006   0.568  1.1583 -0.5349 -0.2127
 2166TIP3   OH228132   5.643   5.429   0.688  0.2371  0.1592  0.1893
 2166TIP3    H128133   5.634   5.384   0.772 -0.4377  1.8700  1.0722
 2166TIP3    H228134   5.694   5.507   0.708  0.0830  0.5879 -1.0101
 2167TIP3   OH228135   0.649   4.604   2.287 -0.0377 -0.0794 -0.1009
 2167TIP3    H128136   0.677   4.683   2.333 -0.6455 -1.0809  2.1472
 2167TIP3    H228137   0.594   4.636   2.215  2.3162  1.6383 -1.2515
 2168TIP3   OH228138   5.618   6.872   0.248  0.1166 -0.1775 -0.8629
 2168TIP3    H128139   5.694   6.826   0.213 -0.6978 -0.7564 -1.9298
 2168TIP3    H228140   5.577   6.913   0.172 -0.5947  0.1761 -0.3066
 2169TIP3   OH228141   3.958   4.470   1.169  0.5198  0.3365 -0.1028
 2169TIP3    H128142   3.954   4.484   1.263  0.9337 -0.1401 -0.0061
 2169TIP3    H228143   3.930   4.553   1.131  2.3359  1.2521  0.4324
 2170TIP3   OH228144   4.232   6.753   1.306 -0.6334  0.0227  0.3996
 2170TIP3    H128145   4.298   6.821   1.316 -0.5813 -0.0388  0.4640
 2170TIP3    H228146   4.265   6.678   1.355 -0.4593 -0.2141 -0.0730
 2171TIP3   OH228147   0.193   6.323   8.569 -0.2230 -0.1454 -0.0436
 2171TIP3    H128148   0.172   6.230   8.567  0.7466 -0.4791  2.3804
 2171TIP3    H228149   0.136   6.360   8.636  0.6242  0.6492  0.2651
 2172TIP3   OH228150   5.327   3.911   7.774 -0.5506 -0.2843 -0.7001
 2172TIP3    H128151   5.349   3.943   7.687  1.0269 -0.3520 -0.3580
 2172TIP3    H228152   5.234   3.890   7.769 -0.2777 -1.3333 -2.6993
 2173TIP3   OH228153   3.992   3.450   1.351 -0.3246  0.4482 -0.3404
 2173TIP3    H128154   4.039   3.368   1.336 -0.4038  0.2207  0.6171
 2173TIP3    H228155   3.937   3.461   1.273 -1.5498 -1.2571  0.2441
 2174TIP3   OH228156   2.708   6.757   6.914 -0.4667  0.0486 -0.4029
 2174TIP3    H128157   2.635   6.784   6.859 -0.4852  0.8360 -0.0022
 2174TIP3    H228158   2.670   6.743   7.000 -0.2942 -0.3697 -0.3933
 2175TIP3   OH228159   5.384   3.352   0.300 -0.0773 -0.0074 -0.2869
 2175TIP3    H128160   5.401   3.312   0.385 -0.0621 -0.2070 -0.3829
 2175TIP3    H228161   5.459   3.409   0.285 -0.4365  0.6003  0.1684
 2176TIP3   OH228162   3.249   3.344   1.107  0.2534  0.8358 -0.2845
 2176TIP3    H128163   3.207   3.281   1.165  1.4179 -0.1071 -0.4460
 2176TIP3    H228164   3.280   3.413   1.166 -0.8075  1.1651 -0.0841
 2177TIP3   OH228165   5.987   2.376   0.059  0.0489  0.4737 -0.0126
 2177TIP3    H128166   6.026   2.426   0.131 -0.1999 -0.5198  0.8346
 2177TIP3    H228167   6.028   2.290   0.065 -1.2503 -0.1641  0.0297
 2178TIP3   OH228168   2.639   0.267   1.725  0.1706 -0.1916 -0.7664
 2178TIP3    H128169   2.667   0.179   1.751  1.9967  0.7328  0.5750
 2178TIP3    H228170   2.706   0.295   1.662 -1.2933 -0.3327 -2.4631
 2179TIP3   OH228171   6.283   1.841   7.875  0.3551  0.2642 -0.0089
 2179TIP3    H128172   6.267   1.872   7.786  1.1243  1.8532  0.3647
 2179TIP3    H228173   6.345   1.768   7.864  0.5292  0.5168 -0.7566
 2180TIP3   OH228174   1.156   0.980   7.548  0.2348  0.0039 -0.3829
 2180TIP3    H128175   1.218   1.000   7.618  1.0320  0.3601 -1.1656
 2180TIP3    H228176   1.210   0.943   7.478 -0.7140 -1.5692 -0.3383
 2181TIP3   OH228177   6.571   6.526   7.320  0.7978 -0.3378  0.7691
 2181TIP3    H128178   6.551   6.612   7.356  0.5895 -0.0532  0.0005
 2181TIP3    H228179   6.535   6.464   7.384 -1.5301  0.1476  0.0391
 2182TIP3   OH228180   0.204   4.389   6.789  0.1039 -0.1337  0.5750
 2182TIP3    H128181   0.189   4.410   6.881  1.2314  0.9528  0.5283
 2182TIP3    H228182   0.295   4.415   6.772 -0.0278 -0.4746 -0.7979
 2183TIP3   OH228183   1.498   3.160   7.587  0.0922 -0.0130  0.3807
 2183TIP3    H128184   1.474   3.176   7.495  0.3881 -0.3314  0.2474
 2183TIP3    H228185   1.573   3.217   7.602 -2.2865  3.1314  1.6005
 2184TIP3   OH228186   6.478   4.141   7.087 -0.7443  0.6926 -0.3559
 2184TIP3    H128187   6.490   4.153   7.181 -0.4595  0.0887 -0.3101
 2184TIP3    H228188   6.468   4.230   7.053 -2.3064  0.8370  0.4238
 2185TIP3   OH228189   1.399   3.307   7.810 -0.3581  0.3409  0.3383
 2185TIP3    H128190   1.353   3.248   7.870 -1.6424  2.1651  1.2347
 2185TIP3    H228191   1.409   3.256   7.730  2.0361 -2.4764  2.1863
 2186TIP3   OH228192   6.579   3.140   1.641 -0.1220  0.0696 -0.0379
 2186TIP3    H128193   6.575   3.121   1.735 -1.1229  0.4642  0.0168
 2186TIP3    H228194   6.517   3.079   1.602  0.4806 -0.2687 -0.4867
 2187TIP3   OH228195   3.860   4.899   1.449 -0.0950  0.2484  0.2411
 2187TIP3    H128196   3.820   4.984   1.430  0.9253  1.0693  1.5960
 2187TIP3    H228197   3.787   4.845   1.478 -0.9547  0.2603 -1.7102
 2188TIP3   OH228198   4.197   2.267   7.134 -0.3343 -0.0528  0.2699
 2188TIP3    H128199   4.239   2.318   7.204  1.6724 -1.0775 -0.0812
 2188TIP3    H228200   4.232   2.304   7.053  0.1676 -1.1399 -0.0277
 2189TIP3   OH228201   4.347   5.824   7.836  0.1993 -0.5152  0.2252
 2189TIP3    H128202   4.417   5.808   7.899  0.9711 -0.9807 -0.7081
 2189TIP3    H228203   4.338   5.741   7.789 -0.5000 -0.2463 -0.1268
 2190TIP3   OH228204   6.377   2.356   7.226 -0.3210  0.1738 -0.1163
 2190TIP3    H128205   6.472   2.358   7.224 -0.1254 -0.3830  3.5333
 2190TIP3    H228206   6.354   2.270   7.260 -2.0694  0.7052  0.1866
 2191TIP3   OH228207   2.675   4.783   7.760 -1.0594  0.6143 -0.0143
 2191TIP3    H128208   2.770   4.795   7.768 -1.1494  0.2731  2.3439
 2191TIP3    H228209   2.665   4.693   7.730 -0.6291  0.5643 -0.0224
 2192TIP3   OH228210   3.315   0.102   1.619 -0.1478 -0.1584 -0.3202
 2192TIP3    H128211   3.319   0.044   1.695 -2.4373  0.2641  0.1933
 2192TIP3    H228212   3.254   0.058   1.559  0.4113  0.2834 -1.2196
 2193TIP3   OH228213   1.789   5.231   7.675 -0.3910 -0.6704  0.4532
 2193TIP3    H128214   1.866   5.186   7.642 -2.2793 -2.7326 -1.4715
 2193TIP3    H228215   1.800   5.230   7.770  0.4766 -3.8463  0.4277
 2194TIP3   OH228216   5.958   4.544   7.915 -0.1820  0.5284 -0.1181
 2194TIP3    H128217   5.896   4.597   7.966 -0.8883 -0.0782 -0.3350
 2194TIP3    H228218   5.910   4.520   7.836  0.4345  0.2861 -0.4299
 2195TIP3   OH228219   5.887   4.805   7.278  0.3589 -0.0230 -0.0055
 2195TIP3    H128220   5.951   4.807   7.349 -0.1115 -0.3668  0.4414
 2195TIP3    H228221   5.871   4.897   7.258  1.1822  0.0652 -0.3105
 2196TIP3   OH228222   6.563   6.322   7.525  0.2567 -0.1085  0.0864
 2196TIP3    H128223   6.608   6.342   7.607  0.4329  0.7491 -0.2096
 2196TIP3    H228224   6.475   6.297   7.551  0.8967 -1.8615  0.6817
 2197TIP3   OH228225   6.624   0.298   7.699  0.0322 -0.3867  0.0917
 2197TIP3    H128226   6.575   0.259   7.772 -0.2301  2.8835  1.8512
 2197TIP3    H228227   6.566   0.288   7.623 -0.1223 -2.9468  0.4323
 2198TIP3   OH228228   4.655   2.104   7.054  0.0431 -0.2834  0.4740
 2198TIP3    H128229   4.711   2.031   7.027  0.8883  0.3038  0.5998
 2198TIP3    H228230   4.601   2.067   7.124  1.7646 -0.3302  1.8558
 2199TIP3   OH228231   2.570   1.419   7.741 -0.2647 -0.2439  0.5681
 2199TIP3    H128232   2.659   1.407   7.706 -0.5127  0.8315 -0.5157
 2199TIP3    H228233   2.513   1.399   7.667 -0.8139  1.9699  0.3245
 2200TIP3   OH228234   2.470   2.674   1.142 -0.7873  0.3035  0.7359
 2200TIP3    H128235   2.429   2.749   1.099 -1.8994 -0.1399  0.9859
 2200TIP3    H228236   2.497   2.618   1.069 -2.5348 -0.3759  0.5590
 2201TIP3   OH228237   5.075   1.900   7.486  0.5308 -0.1148 -0.4679
 2201TIP3    H128238   5.145   1.963   7.505  0.7248 -0.6623  0.7234
 2201TIP3    H228239   5.120   1.821   7.458  0.4110 -0.5073  0.4118
 2202TIP3   OH228240   3.456   1.127   7.536 -0.3233 -0.4994 -0.1437
 2202TIP3    H128241   3.367   1.092   7.539  0.1697 -1.9545 -1.4728
 2202TIP3    H228242   3.483   1.130   7.628 -2.1603  1.2024  0.4107
 2203TIP3   OH228243   5.177   4.589   1.784 -0.3265  0.1097 -0.2199
 2203TIP3    H128244   5.178   4.627   1.871  0.1320 -0.8727  0.2188
 2203TIP3    H228245   5.270   4.572   1.764 -0.4564 -0.0133 -0.7449
 2204TIP3   OH228246   3.677   5.214   0.043  0.1503 -0.7998 -0.6024
 2204TIP3    H128247   3.620   5.158   0.096  0.3396 -3.0389 -2.5865
 2204TIP3    H228248   3.688   5.294   0.095 -1.0918 -2.1235  1.8621
 2205TIP3   OH228249   4.955   1.660   1.981 -0.0193 -0.0124 -0.0733
 2205TIP3    H128250   4.983   1.729   2.042 -2.1959  0.2472  0.7243
 2205TIP3    H228251   4.992   1.580   2.018  1.2017  0.4940 -0.1235
 2206TIP3   OH228252   2.769   0.285   0.413 -0.5059  0.0321  0.2735
 2206TIP3    H128253   2.763   0.248   0.325  1.6432  0.0111  0.0879
 2206TIP3    H228254   2.809   0.371   0.400 -1.3495  0.5779  1.1353
 2207TIP3   OH228255   6.701   2.122   0.133 -0.1426  0.5659 -0.5312
 2207TIP3    H128256   6.642   2.179   0.082 -0.6062  0.6537  0.0888
 2207TIP3    H228257   6.783   2.172   0.139 -0.1133  0.5951 -1.1054
 2208TIP3   OH228258   3.504   2.569   8.112 -0.7243  0.4603  0.1790
 2208TIP3    H128259   3.532   2.558   8.021  0.6428 -0.5162  0.7020
 2208TIP3    H228260   3.409   2.579   8.106 -1.0665 -2.5922 -1.1591
 2209TIP3   OH228261   4.633   0.715   8.473  0.7809  0.7725  0.3148
 2209TIP3    H128262   4.652   0.797   8.427 -1.3398  1.2978  0.2776
 2209TIP3    H228263   4.662   0.731   8.563  0.8553  1.3662  0.1874
 2210TIP3   OH228264   0.037   0.217   8.218  0.5223  0.6603 -0.6027
 2210TIP3    H128265   0.087   0.296   8.236 -1.5886  1.7903  0.6136
 2210TIP3    H228266   0.028   0.217   8.122 -0.0575  2.3017 -0.5789
 2211TIP3   OH228267   4.186   1.041   2.117 -0.0914 -0.0538  0.2320
 2211TIP3    H128268   4.277   1.063   2.139  0.1183 -0.8170  0.1586
 2211TIP3    H228269   4.187   0.947   2.103 -0.4622  0.2042 -1.8746
 2212TIP3   OH228270   6.370   2.921   7.030  0.3681 -0.0967 -0.4517
 2212TIP3    H128271   6.309   2.871   7.084 -0.0255  0.3609 -0.4648
 2212TIP3    H228272   6.319   2.995   6.998  1.1411  0.7633  0.2311
 2213TIP3   OH228273   0.345   2.675   1.861  0.1873 -0.1034  0.3752
 2213TIP3    H128274   0.314   2.758   1.898 -0.5949 -1.2036  2.3698
 2213TIP3    H228275   0.388   2.631   1.934  0.3209 -1.5726 -0.5489
 2214TIP3   OH228276   3.573   4.540   0.191  0.0731 -0.7180 -0.6977
 2214TIP3    H128277   3.537   4.501   0.270 -1.0976 -1.2782 -1.4756
 2214TIP3    H228278   3.604   4.626   0.218 -1.1778 -0.5248  0.1833
 2215TIP3   OH228279   3.054   5.322   8.515  0.2375 -0.1689 -0.5900
 2215TIP3    H128280   3.099   5.271   8.583 -0.9121 -0.0894  0.2633
 2215TIP3    H228281   2.999   5.258   8.469  1.9910 -0.4898 -2.3798
 2216TIP3   OH228282   5.825   5.201   0.895 -0.1474 -0.3859 -0.2302
 2216TIP3    H128283   5.882   5.169   0.965  1.1883  0.3777 -0.9199
 2216TIP3    H228284   5.875   5.185   0.815 -0.5533  1.0365 -0.7887
 2217TIP3   OH228285   2.716   5.423   8.430 -0.0546 -0.1555 -0.2970
 2217TIP3    H128286   2.703   5.486   8.359 -0.1665  0.8330  0.5683
 2217TIP3    H228287   2.751   5.476   8.502  1.5941 -1.4065 -0.1189
 2218TIP3   OH228288   6.310   6.073   0.087  0.1641 -0.1922  0.0330
 2218TIP3    H128289   6.220   6.089   0.115 -0.3460 -1.8495 -0.5397
 2218TIP3    H228290   6.337   6.154   0.044 -0.4039  0.9726  1.7398
 2219TIP3   OH228291   2.796   4.154   0.814 -0.4502  1.0186  0.0038
 2219TIP3    H128292   2.707   4.118   0.819 -0.1780  0.4907  1.8742
 2219TIP3    H228293   2.791   4.220   0.745 -1.7766 -0.3676 -1.2894
 2220TIP3   OH228294   6.488   5.574   0.346 -0.2398  0.0170  0.2195
 2220TIP3    H128295   6.400   5.541   0.326 -0.8516  1.6648  0.0589
 2220TIP3    H228296   6.474   5.646   0.407  1.0851 -0.2324  0.8658
 2221TIP3   OH228297   2.600   1.708   7.746 -0.1385  0.1809 -0.2909
 2221TIP3    H128298   2.598   1.613   7.754  0.8377  0.1616 -0.1878
 2221TIP3    H228299   2.542   1.727   7.673 -1.4600 -0.3776  0.5744
 2222TIP3   OH228300   3.603   2.337   1.975 -0.0120 -0.7488  0.4262
 2222TIP3    H128301   3.580   2.303   1.889 -2.3020  0.8041  0.3407
 2222TIP3    H228302   3.668   2.274   2.009  1.0474 -1.3272 -2.4063
 2223TIP3   OH228303   3.506   4.620   0.463  0.3639  0.2620  0.2920
 2223TIP3    H128304   3.417   4.643   0.438  0.8367  0.9900 -0.8123
 2223TIP3    H228305   3.535   4.692   0.518  1.2054  1.5004 -1.6548
 2224TIP3   OH228306   6.080   2.002   0.586 -0.5345  0.5082 -0.0417
 2224TIP3    H128307   6.093   1.951   0.666  2.3268 -0.6792 -1.0895
 2224TIP3    H228308   6.135   2.079   0.598  0.1539  0.1747 -0.9079
 2225TIP3   OH228309   6.698   2.455   6.743  0.2780 -0.1646  0.5568
 2225TIP3    H128310   6.773   2.508   6.716 -0.9948  1.9728  1.0261
 2225TIP3    H228311   6.650   2.438   6.661  0.5283 -0.3476  0.4467
 2226TIP3   OH228312   1.654   2.725   2.411  0.4072 -0.0081  0.0468
 2226TIP3    H128313   1.690   2.775   2.337 -2.0366  2.4074  0.3267
 2226TIP3    H228314   1.612   2.649   2.371 -0.4893  1.0260 -1.0726
 2227TIP3   OH228315   5.099   0.367   0.358  0.0715 -0.0375  0.3628
 2227TIP3    H128316   5.036   0.296   0.346  0.2835 -0.2392  0.4164
 2227TIP3    H228317   5.144   0.373   0.274  0.6838 -0.5915  0.6368
 2228TIP3   OH228318   2.175   3.202   7.247  0.1128 -0.1594  0.1263
 2228TIP3    H128319   2.175   3.286   7.294 -0.2545  1.3165 -2.3458
 2228TIP3    H228320   2.105   3.151   7.289  0.8885  0.3949  2.2060
 2229TIP3   OH228321   1.901   2.930   8.455 -0.4454  0.2545 -0.0661
 2229TIP3    H128322   1.828   2.868   8.454 -0.9084  0.6464  2.4308
 2229TIP3    H228323   1.862   3.013   8.428 -1.1094  0.5654  1.6928
 2230TIP3   OH228324   1.391   4.810   1.143  0.0138  1.1090 -0.3726
 2230TIP3    H128325   1.465   4.836   1.197 -0.3574 -1.4947  1.5657
 2230TIP3    H228326   1.316   4.857   1.179 -0.3359 -1.0153  1.9365
 2231TIP3   OH228327   6.814   6.085   2.157 -0.2286  0.1283  0.1662
 2231TIP3    H128328   6.727   6.102   2.193 -0.3148  2.9455 -1.0939
 2231TIP3    H228329   6.874   6.116   2.224 -0.2413  0.1264  0.1786
 2232TIP3   OH228330   2.970   0.967   6.770 -0.2355 -0.4866  0.8303
 2232TIP3    H128331   3.002   0.969   6.680 -1.4179  0.2669  0.3910
 2232TIP3    H228332   2.984   0.877   6.799  0.8040 -0.5585  0.1386
 2233TIP3   OH228333   0.594   2.862   1.057 -0.6381  0.2681 -0.5031
 2233TIP3    H128334   0.665   2.809   1.093 -0.9710 -0.4992 -0.9749
 2233TIP3    H228335   0.611   2.864   0.963 -0.4312  1.3046 -0.4665
 2234TIP3   OH228336   4.229   4.151   6.870  0.0450  0.1693  0.0866
 2234TIP3    H128337   4.306   4.098   6.848  0.3700  0.1699  1.1726
 2234TIP3    H228338   4.254   4.241   6.846 -0.0920  0.0083 -0.7080
 2235TIP3   OH228339   3.572   1.555   8.378 -0.3714  0.0025  0.3064
 2235TIP3    H128340   3.513   1.483   8.400 -0.7062  0.4624  0.9271
 2235TIP3    H228341   3.657   1.528   8.414 -0.2086 -0.5991 -0.4745
 2236TIP3   OH228342   5.831   0.196   0.222  0.1805 -0.3301 -0.1801
 2236TIP3    H128343   5.863   0.133   0.157  1.6823  1.3546 -1.1881
 2236TIP3    H228344   5.871   0.169   0.304 -0.5833 -1.6645 -0.2241
 2237TIP3   OH228345   5.973   2.614   1.624  0.3435  0.5925  0.5942
 2237TIP3    H128346   6.031   2.640   1.553 -0.4200 -0.0610 -0.2988
 2237TIP3    H228347   5.956   2.696   1.672 -2.7755  2.1810 -2.7017
 2238TIP3   OH228348   6.858   2.355   1.575  0.7668  0.3688 -0.0364
 2238TIP3    H128349   6.917   2.390   1.642  0.1882  0.8051  0.2561
 2238TIP3    H228350   6.908   2.287   1.531  1.4385  0.6411  0.3021
 2239TIP3   OH228351   3.612   3.306   7.310 -0.0066  0.1494 -1.2327
 2239TIP3    H128352   3.613   3.313   7.406 -0.1487 -1.1324 -1.1141
 2239TIP3    H228353   3.524   3.331   7.284 -0.0194  0.3318 -1.0163
 2240TIP3   OH228354   0.870   0.537   0.031 -0.4113  0.3631  0.0966
 2240TIP3    H128355   0.858   0.576  -0.056 -2.3521  3.5146  1.5781
 2240TIP3    H228356   0.963   0.516   0.035  0.0148  1.4511 -2.2417
 2241TIP3   OH228357   0.831   0.943   1.965  0.4605  0.1403 -0.1939
 2241TIP3    H128358   0.887   1.020   1.980  2.3555 -0.8544 -1.6322
 2241TIP3    H228359   0.744   0.979   1.951  1.3509  2.0850 -1.1733
 2242TIP3   OH228360   5.272   2.675   6.624 -0.0144  0.1844  0.1819
 2242TIP3    H128361   5.332   2.716   6.561  1.0386 -0.1242  0.9568
 2242TIP3    H228362   5.209   2.629   6.569  1.6373 -1.1688 -0.6953
 2243TIP3   OH228363   1.982   2.227   2.027  0.3540  0.1981 -0.2337
 2243TIP3    H128364   1.896   2.242   2.067 -0.4994  1.1411 -2.3116
 2243TIP3    H228365   2.044   2.245   2.098 -1.0584  2.2644  0.5928
 2244TIP3   OH228366   5.634   2.985   0.211 -0.3195 -0.4604 -0.2318
 2244TIP3    H128367   5.586   2.959   0.289 -0.4388  0.4328  0.0088
 2244TIP3    H228368   5.566   3.014   0.150 -0.1170  0.9462  0.1626
 2245TIP3   OH228369   2.936   3.682   7.508 -0.2394 -0.3259  0.4859
 2245TIP3    H128370   2.898   3.745   7.569  0.4578 -0.7110  1.3484
 2245TIP3    H228371   2.947   3.730   7.427 -2.8805 -0.2871  0.0621
 2246TIP3   OH228372   1.552   2.740   0.852 -0.4830  0.3419  0.1057
 2246TIP3    H128373   1.579   2.826   0.884 -0.0125  0.3523 -0.3075
 2246TIP3    H228374   1.490   2.708   0.917 -0.4129  0.8566  0.4259
 2247TIP3   OH228375   5.824   1.050   0.465  0.4990  0.0588 -0.0789
 2247TIP3    H128376   5.773   1.055   0.546  0.4168  0.6937 -0.1668
 2247TIP3    H228377   5.833   0.956   0.448 -0.8394 -0.0597 -0.1975
 2248TIP3   OH228378   3.660   0.289   1.856 -0.3169 -0.0370 -0.2849
 2248TIP3    H128379   3.592   0.330   1.802 -0.7506 -0.6232 -0.2024
 2248TIP3    H228380   3.622   0.205   1.881  1.2382 -1.2993 -1.9207
 2249TIP3   OH228381   2.202   0.294   7.342 -0.2392  0.6504  0.5311
 2249TIP3    H128382   2.267   0.318   7.409  1.7133  1.3884 -1.5067
 2249TIP3    H228383   2.118   0.312   7.383  0.8687  1.1421  2.7601
 2250TIP3   OH228384   0.912   2.578   0.390  0.4574  0.3856  0.2184
 2250TIP3    H128385   0.993   2.625   0.369 -0.3642  0.7172 -2.6673
 2250TIP3    H228386   0.847   2.646   0.404 -0.1224  0.1754 -1.2581
 2251TIP3   OH228387   2.130   0.249   0.216  0.0495 -0.4784 -0.3009
 2251TIP3    H128388   2.118   0.247   0.121 -0.6947  1.8857 -0.3233
 2251TIP3    H228389   2.132   0.342   0.237  2.7794 -0.8875  1.7222
 2252TIP3   OH228390   5.315   5.216   7.715 -0.4699  0.3256  0.3024
 2252TIP3    H128391   5.361   5.138   7.747  0.8618  0.8917 -0.1815
 2252TIP3    H228392   5.229   5.212   7.759 -1.1151 -2.2801 -0.9696
 2253TIP3   OH228393   0.234   2.495   6.678  0.1013 -0.2100 -0.4164
 2253TIP3    H128394   0.304   2.483   6.614  0.7618  1.3768 -0.0176
 2253TIP3    H228395   0.234   2.414   6.729  0.7562 -0.7607 -1.2668
 2254TIP3   OH228396   1.601   3.079   8.673 -0.0678  0.0866 -0.0088
 2254TIP3    H128397   1.672   3.051   8.730  0.7314  0.0818 -0.9720
 2254TIP3    H228398   1.644   3.102   8.590 -1.2641 -0.7008 -0.8907
 2255TIP3   OH228399   2.126   5.922   7.910  0.2323 -0.5650  0.4808
 2255TIP3    H128400   2.120   5.985   7.838  0.3924 -0.0470  0.9129
 2255TIP3    H228401   2.181   5.852   7.876  1.9843  0.6223  0.7635
 2256TIP3   OH228402   0.234   1.289   1.467  0.5275  0.4958 -0.0258
 2256TIP3    H128403   0.325   1.287   1.438  0.3914 -0.4943 -0.4033
 2256TIP3    H228404   0.189   1.226   1.412  0.1588 -1.1339  2.0053
 2257TIP3   OH228405   4.994   2.939   1.400  0.2910 -0.1447 -0.0899
 2257TIP3    H128406   5.033   2.974   1.320  1.7178 -0.0432  0.6213
 2257TIP3    H228407   5.067   2.901   1.448 -0.7166 -1.1863  0.6686
 2258TIP3   OH228408   1.287   3.983   0.011  0.1783 -0.0838 -0.0108
 2258TIP3    H128409   1.269   3.893   0.037 -0.3436 -0.2915 -1.0445
 2258TIP3    H228410   1.220   4.035   0.057  0.3649 -0.2375  0.4388
 2259TIP3   OH228411   3.524   2.120   7.194  0.0984  0.0508  0.0614
 2259TIP3    H128412   3.562   2.059   7.257  0.2910 -0.5633 -0.6365
 2259TIP3    H228413   3.429   2.107   7.202 -0.0478  1.7975  2.0163
 2260TIP3   OH228414   4.493   2.831   8.187 -0.1877  0.0623  0.3449
 2260TIP3    H128415   4.464   2.848   8.098 -0.3975  1.1774  0.6081
 2260TIP3    H228416   4.469   2.910   8.236  0.8147 -0.1169  1.1758
 2261TIP3   OH228417   5.500   2.904   6.694  0.5471  0.1111  0.2407
 2261TIP3    H128418   5.593   2.896   6.718  0.7433  0.4645 -0.3783
 2261TIP3    H228419   5.489   2.842   6.622  0.5923  0.9139 -0.4746
 2262TIP3   OH228420   1.414   3.496   0.913 -0.1989 -0.3283 -0.1563
 2262TIP3    H128421   1.495   3.542   0.893  0.2336  0.1893  2.4515
 2262TIP3    H228422   1.387   3.531   0.998 -2.9868 -0.7432 -0.7725
 2263TIP3   OH228423   0.265   0.976   7.069 -0.9461  0.1423 -0.4509
 2263TIP3    H128424   0.312   0.906   7.023 -1.3913 -0.5277  0.0924
 2263TIP3    H228425   0.198   1.005   7.007  0.9669  2.0456 -1.7773
 2264TIP3   OH228426   0.567   3.548   6.191 -0.1583  0.3751 -0.0465
 2264TIP3    H128427   0.652   3.568   6.153  1.3594 -1.5159  2.0539
 2264TIP3    H228428   0.568   3.453   6.203 -1.5387  0.5590  2.1853
 2265TIP3   OH228429   3.963   6.720   7.593  0.1899 -0.1106 -0.0535
 2265TIP3    H128430   3.872   6.728   7.565  0.4214 -0.1133 -0.8471
 2265TIP3    H228431   3.975   6.626   7.606  0.6144 -0.3504 -1.9110
 2266TIP3   OH228432   4.653   3.384   0.343  0.5121 -0.4018  0.1439
 2266TIP3    H128433   4.723   3.325   0.315  1.4989 -0.5309  2.6910
 2266TIP3    H228434   4.698   3.459   0.382 -0.7661  0.0361  0.8308
 2267TIP3   OH228435   3.804   4.109   6.919  0.7076 -0.1724 -0.4141
 2267TIP3    H128436   3.795   4.187   6.864  1.4363  0.1919 -0.0342
 2267TIP3    H228437   3.866   4.054   6.871  0.4761 -0.3533 -0.5044
 2268TIP3   OH228438   6.508   3.733   0.349  0.3646 -0.3601 -0.4504
 2268TIP3    H128439   6.471   3.658   0.302  0.3850  0.0597 -1.1410
 2268TIP3    H228440   6.504   3.707   0.441 -1.0269 -0.5966 -0.5504
 2269TIP3   OH228441   0.684   0.974   6.923 -0.0383  0.3522 -0.0684
 2269TIP3    H128442   0.658   0.911   6.990 -0.3930  0.7465  0.1687
 2269TIP3    H228443   0.606   1.029   6.911 -0.2196 -0.1457 -1.2987
 2270TIP3   OH228444   5.429   4.974   1.473  0.1236 -0.1400  0.4027
 2270TIP3    H128445   5.365   5.035   1.436  2.0598  0.8780 -1.4818
 2270TIP3    H228446   5.382   4.891   1.478 -1.3656  0.5577 -0.8862
 2271TIP3   OH228447   4.358   1.821   8.170  0.0189 -0.2385 -0.0980
 2271TIP3    H128448   4.398   1.781   8.093 -0.0845 -3.5628  1.3961
 2271TIP3    H228449   4.280   1.865   8.137 -1.2687 -3.4351 -1.7741
 2272TIP3   OH228450   1.431   2.509   0.736  0.3113  0.6215  0.2009
 2272TIP3    H128451   1.442   2.604   0.744 -2.7331  1.0600  0.6766
 2272TIP3    H228452   1.372   2.499   0.660 -2.2495 -0.5235  2.1896
 2273TIP3   OH228453   6.469   2.486   1.399 -0.1001  0.0993  0.7150
 2273TIP3    H128454   6.513   2.437   1.468  0.4087 -1.4476 -0.6451
 2273TIP3    H228455   6.539   2.515   1.341 -0.6424 -0.0947 -0.0597
 2274TIP3   OH228456   5.117   0.514   0.969 -0.1839 -0.6379 -0.0721
 2274TIP3    H128457   5.022   0.502   0.963 -0.4091 -0.7135  2.5031
 2274TIP3    H228458   5.129   0.609   0.975 -0.1136 -0.6305 -0.3490
 2275TIP3   OH228459   0.687   5.368   7.734  0.3694  0.0557 -0.1336
 2275TIP3    H128460   0.611   5.427   7.729 -0.1504 -0.3400  2.0582
 2275TIP3    H228461   0.665   5.296   7.676 -1.0125 -0.0920  0.5254
 2276TIP3   OH228462   0.552   1.281   0.175  0.1029  0.3500  0.0499
 2276TIP3    H128463   0.489   1.212   0.152  0.2978  0.1525  0.1016
 2276TIP3    H228464   0.525   1.356   0.122 -0.9511  0.6750  1.0174
 2277TIP3   OH228465   2.446   2.329   7.694  0.0663  0.0283  0.4018
 2277TIP3    H128466   2.387   2.404   7.698 -0.9219 -0.7383  0.5820
 2277TIP3    H228467   2.528   2.360   7.734  0.0436  1.3266 -0.5073
 2278TIP3   OH228468   5.361   1.487   6.871 -0.3952 -0.8842  0.1934
 2278TIP3    H128469   5.456   1.472   6.867 -0.2703 -0.4438  1.2649
 2278TIP3    H228470   5.336   1.504   6.781  0.8867  1.0107  0.1376
 2279TIP3   OH228471   0.243   6.061   7.301 -0.1309  0.2882 -0.3084
 2279TIP3    H128472   0.233   6.121   7.375  0.4431 -0.1494  0.1332
 2279TIP3    H228473   0.332   6.026   7.310 -0.8589 -1.5608  0.1484
 2280TIP3   OH228474   0.596   4.061   8.075 -0.0654 -0.0100  0.1128
 2280TIP3    H128475   0.637   4.037   8.158  0.2315  0.7499  0.1907
 2280TIP3    H228476   0.502   4.055   8.093 -0.0301  1.1236  0.8254
 2281TIP3   OH228477   5.174   5.869   6.208  0.2049  0.3407 -0.0851
 2281TIP3    H128478   5.146   5.777   6.201  1.3201 -0.1684  1.6519
 2281TIP3    H228479   5.269   5.866   6.198  0.0871  1.6300 -2.3151
 2282TIP3   OH228480   1.757   5.500   8.664 -0.8090 -0.2678 -0.2372
 2282TIP3    H128481   1.782   5.461   8.579 -0.6278  1.4658 -1.0152
 2282TIP3    H228482   1.802   5.445   8.729  2.2929  0.6356 -1.4379
 2283TIP3   OH228483   3.886   2.767   6.878  0.1429  0.1157 -0.0890
 2283TIP3    H128484   3.963   2.715   6.854 -0.6921 -0.8840 -0.7211
 2283TIP3    H228485   3.812   2.713   6.851 -0.7756  1.4757 -0.4112
 2284TIP3   OH228486   4.879   6.134   7.033  0.6728 -0.3939  0.2488
 2284TIP3    H128487   4.908   6.127   7.124 -0.3689  1.1051  0.7425
 2284TIP3    H228488   4.924   6.212   7.000  0.9668 -0.8718 -0.4978
 2285TIP3   OH228489   6.594   3.341   7.784 -0.4049  0.0945 -0.3159
 2285TIP3    H128490   6.687   3.317   7.791 -0.5662 -0.3790  0.2866
 2285TIP3    H228491   6.559   3.324   7.871 -0.9055  0.9492 -0.3420
 2286TIP3   OH228492   0.470   5.679   6.503 -0.1094  0.0678 -0.5116
 2286TIP3    H128493   0.557   5.667   6.541  0.0667 -0.8761 -1.1718
 2286TIP3    H228494   0.412   5.626   6.558 -0.5305  1.7588  0.7546
 2287TIP3   OH228495   6.832   4.067   1.398 -0.3002 -0.7910 -0.2134
 2287TIP3    H128496   6.880   4.035   1.474  0.1931 -1.7183 -0.8946
 2287TIP3    H228497   6.740   4.050   1.418 -0.8693  3.6353  2.4108
 2288TIP3   OH228498   2.030   1.305   0.045  0.1923  0.1634 -0.3081
 2288TIP3    H128499   2.019   1.329  -0.047  0.8102 -2.1065 -1.0349
 2288TIP3    H228500   2.121   1.324   0.065  0.3047 -0.2178 -0.4531
 2289TIP3   OH228501   1.491   5.895   1.240  0.9961  0.1797 -0.1220
 2289TIP3    H128502   1.542   5.887   1.160 -0.8513  0.0128 -1.3604
 2289TIP3    H228503   1.473   5.989   1.247 -1.0860 -0.0375 -1.4869
 2290TIP3   OH228504   5.319   3.809   8.259 -0.2942 -0.0380  0.1267
 2290TIP3    H128505   5.409   3.806   8.225 -0.5045  0.6735 -0.5319
 2290TIP3    H228506   5.313   3.734   8.318  0.8759  0.1807  0.5441
 2291TIP3   OH228507   2.223   1.060   1.945 -0.1986 -0.1046  0.6825
 2291TIP3    H128508   2.319   1.059   1.940 -0.1728 -1.6107  0.7763
 2291TIP3    H228509   2.204   1.044   2.037 -0.5613  1.0473  0.8215
 2292TIP3   OH228510   6.278   4.086   7.601  0.7397 -0.4877 -0.0061
 2292TIP3    H128511   6.320   4.008   7.637  0.1297 -0.9632 -0.3089
 2292TIP3    H228512   6.349   4.134   7.559  0.7647 -1.9875 -1.7791
 2293TIP3   OH228513   1.324   5.598   7.836  0.3008 -0.5989 -0.3781
 2293TIP3    H128514   1.277   5.536   7.781 -0.0524  0.2089 -1.0266
 2293TIP3    H228515   1.415   5.591   7.808  0.3460 -1.2092 -0.0689
 2294TIP3   OH228516   1.378   0.831   8.230 -0.1283 -0.1446 -0.1763
 2294TIP3    H128517   1.406   0.833   8.322  0.6455 -0.9525 -0.3790
 2294TIP3    H228518   1.444   0.776   8.186 -2.3787 -2.7208 -0.5914
 2295TIP3   OH228519   4.021   3.926   7.557  0.1342 -0.0225  0.2824
 2295TIP3    H128520   4.058   4.008   7.525  1.3739  0.0129  1.6671
 2295TIP3    H228521   3.949   3.952   7.614  0.2047  0.0737  0.3273
 2296TIP3   OH228522   2.053   0.458   1.440  0.1800  0.4866  0.4279
 2296TIP3    H128523   2.097   0.463   1.355  0.7427 -0.9265  0.5981
 2296TIP3    H228524   2.073   0.540   1.483  1.5933  0.3910 -0.0131
 2297TIP3   OH228525   2.373   2.238   8.363 -0.5445 -0.7606  0.2870
 2297TIP3    H128526   2.388   2.161   8.419  0.4540 -0.8442 -0.0747
 2297TIP3    H228527   2.278   2.248   8.361 -0.7668 -2.6896 -0.6002
 2298TIP3   OH228528   3.152   2.696   0.821 -0.4751  0.6677 -0.0815
 2298TIP3    H128529   3.148   2.726   0.912 -0.9670  0.1475  0.0791
 2298TIP3    H228530   3.097   2.618   0.820  1.0321 -0.4202 -0.4157
 2299TIP3   OH228531   4.022   3.143   2.195  0.0255 -0.0625  0.7251
 2299TIP3    H128532   3.935   3.159   2.160 -0.3888 -1.1218  1.2210
 2299TIP3    H228533   4.039   3.216   2.254 -0.1704  0.5865 -0.0144
 2300TIP3   OH228534   5.584   4.384   1.926 -0.4158  0.4833 -0.0678
 2300TIP3    H128535   5.587   4.295   1.959  0.7851  0.1364 -1.0178
 2300TIP3    H228536   5.670   4.421   1.947 -0.4755  1.0108 -0.6991
 2301TIP3   OH228537   0.700   2.981   0.177  0.0266  0.2856 -0.1360
 2301TIP3    H128538   0.791   2.982   0.204  0.5602 -1.1974 -1.6630
 2301TIP3    H228539   0.652   3.019   0.250  1.7384  0.0011  1.1883
 2302TIP3   OH228540   6.844   0.499   0.385  0.8298  0.1414 -0.2043
 2302TIP3    H128541   6.813   0.424   0.334  2.1720  0.5083 -1.6330
 2302TIP3    H228542   6.806   0.486   0.472 -2.7367  0.2295 -1.5779
 2303TIP3   OH228543   6.149   4.742   0.640 -0.2912  0.0649  0.8642
 2303TIP3    H128544   6.169   4.685   0.565 -2.1092 -2.3447  2.0628
 2303TIP3    H228545   6.187   4.697   0.715  1.0185  2.1564  1.5467
 2304TIP3   OH228546   2.126   5.964   0.297  0.1261  0.4591  0.6742
 2304TIP3    H128547   2.166   5.887   0.257  1.2072  1.3533 -0.0263
 2304TIP3    H228548   2.034   5.939   0.310  0.2459 -0.6332 -0.3728
 2305TIP3   OH228549   4.780   3.717   0.109 -0.1335  0.0954 -0.0759
 2305TIP3    H128550   4.706   3.656   0.106  0.3429 -0.5856  1.4453
 2305TIP3    H228551   4.849   3.674   0.058 -0.2492  0.0045 -0.1563
 2306TIP3   OH228552   6.109   6.729   0.181 -0.1484  0.1352 -0.0057
 2306TIP3    H128553   6.200   6.704   0.166 -0.3918 -0.9136  0.2092
 2306TIP3    H228554   6.103   6.818   0.146  1.4459  1.0163  1.7849
 2307TIP3   OH228555   0.497   2.160   1.235  0.3100 -0.2616  0.1821
 2307TIP3    H128556   0.578   2.133   1.192  1.0583  1.5368  0.3798
 2307TIP3    H228557   0.446   2.202   1.166 -0.2952 -1.0210  0.1520
 2308TIP3   OH228558   1.865   6.278   8.493 -0.1354  0.5206 -0.3848
 2308TIP3    H128559   1.796   6.212   8.503  0.8729 -0.3316  1.4615
 2308TIP3    H228560   1.879   6.284   8.399 -2.6671  0.6878 -0.8251
 2309TIP3   OH228561   5.564   4.897   1.041  0.0155 -0.1006  0.0400
 2309TIP3    H128562   5.499   4.944   0.990  0.8645  1.2785  0.1650
 2309TIP3    H228563   5.514   4.832   1.090 -1.2227  0.7042 -0.1019
 2310TIP3   OH228564   0.737   6.108   6.787 -0.3891  0.2055 -0.4503
 2310TIP3    H128565   0.671   6.153   6.735 -1.7084 -0.9870  0.1283
 2310TIP3    H228566   0.739   6.019   6.752  1.7532  0.4789 -1.1945
 2311TIP3   OH228567   5.351   5.412   8.426 -0.0783 -0.0258 -0.0827
 2311TIP3    H128568   5.442   5.393   8.405  0.0104 -1.4586  1.4230
 2311TIP3    H228569   5.303   5.336   8.392 -0.6723  0.5169 -0.4806
 2312TIP3   OH228570   0.483   3.887   0.972 -0.1496 -0.4484 -0.2081
 2312TIP3    H128571   0.481   3.914   0.880 -0.8449  2.1395  0.4930
 2312TIP3    H228572   0.391   3.879   0.996  0.0145 -2.6250 -0.0572
 2313TIP3   OH228573   1.108   0.863   7.036  0.1441 -0.3033 -0.3542
 2313TIP3    H128574   1.120   0.807   6.960 -1.4168  0.5208 -1.2788
 2313TIP3    H228575   1.087   0.803   7.107  2.3537 -1.1488 -0.3505
 2314TIP3   OH228576   4.872   4.678   0.171  0.3700  1.0723 -0.0716
 2314TIP3    H128577   4.867   4.588   0.139  1.6241  1.1883 -0.6696
 2314TIP3    H228578   4.809   4.725   0.117  0.0771  0.6425 -0.1102
 2315TIP3   OH228579   2.406   4.947   8.331 -0.1215  0.0317  0.2463
 2315TIP3    H128580   2.325   4.926   8.379 -0.8279 -0.0754 -0.9477
 2315TIP3    H228581   2.390   5.034   8.295 -0.0468 -0.3313 -0.6885
 2316TIP3   OH228582   3.720   4.774   6.593 -0.1702 -0.2779 -0.2897
 2316TIP3    H128583   3.670   4.843   6.549 -0.8674 -0.7229 -0.2117
 2316TIP3    H228584   3.739   4.711   6.524 -1.8158 -1.2915  0.1305
 2317TIP3   OH228585   6.471   1.281   8.080 -0.0478 -0.1865  0.2275
 2317TIP3    H128586   6.447   1.366   8.117 -0.6618 -0.2851  0.0717
 2317TIP3    H228587   6.418   1.274   8.001  1.3677  0.1003 -0.7830
 2318TIP3   OH228588   4.819   3.450   6.719  0.4384 -0.2134  0.4817
 2318TIP3    H128589   4.852   3.514   6.657 -0.1101  0.5934  1.0082
 2318TIP3    H228590   4.896   3.422   6.769  0.8306 -0.6574 -0.3491
 2319TIP3   OH228591   4.597   1.702   7.941  0.2071 -0.2823 -0.4855
 2319TIP3    H128592   4.538   1.669   7.872 -1.6907 -0.8775  1.3094
 2319TIP3    H228593   4.612   1.793   7.917 -2.3168  0.2044 -0.5635
 2320TIP3   OH228594   2.401   4.722   1.968 -0.3233  0.0913 -0.7976
 2320TIP3    H128595   2.453   4.689   2.040 -0.0480 -0.6611 -1.3298
 2320TIP3    H228596   2.400   4.817   1.980  0.0741  0.0002 -0.0541
 2321TIP3   OH228597   3.797   0.204   1.223 -0.0678 -0.1721  0.9471
 2321TIP3    H128598   3.868   0.240   1.170 -2.5966  2.0389 -1.2624
 2321TIP3    H228599   3.771   0.124   1.177 -0.2051  0.0178  0.6944
 2322TIP3   OH228600   5.412   4.809   2.042  0.0602  0.0503 -0.2365
 2322TIP3    H128601   5.336   4.750   2.043  1.5800 -2.0085  0.0525
 2322TIP3    H228602   5.413   4.845   1.953 -1.5846  0.6322 -0.0586
 2323TIP3   OH228603   1.541   1.898   1.648 -0.3901 -0.6582  0.2657
 2323TIP3    H128604   1.617   1.955   1.659 -1.2749  1.2380 -2.3676
 2323TIP3    H228605   1.471   1.941   1.696 -0.7567 -0.1762 -0.6824
 2324TIP3   OH228606   5.981   4.820   1.030  0.0621  0.1304  0.0134
 2324TIP3    H128607   6.049   4.756   1.053  0.3272  0.9234  1.5504
 2324TIP3    H228608   5.905   4.795   1.082 -0.5359 -0.1770 -0.9814
 2325TIP3   OH228609   4.255   6.251   6.807 -0.2174  0.2633  0.4688
 2325TIP3    H128610   4.291   6.236   6.719  0.2915 -0.9243  0.8435
 2325TIP3    H228611   4.330   6.236   6.865 -0.9871 -0.9542  1.2015
 2326TIP3   OH228612   5.353   4.939   6.739  0.5103  0.0624 -0.0569
 2326TIP3    H128613   5.401   4.996   6.679  1.2622 -0.1620  0.3306
 2326TIP3    H228614   5.324   4.998   6.809  1.0792  0.0100  0.2210
 2327TIP3   OH228615   6.487   0.006   0.610 -0.4806  0.2078 -0.2793
 2327TIP3    H128616   6.407  -0.017   0.657 -1.2063  1.3389 -0.9271
 2327TIP3    H228617   6.505   0.096   0.637  0.1845  0.2019 -0.6848
 2328TIP3   OH228618   3.609   4.775   8.527 -0.2896  0.4858  0.5683
 2328TIP3    H128619   3.582   4.866   8.541  0.9028  0.7682  1.1263
 2328TIP3    H228620   3.673   4.758   8.596  0.4926 -0.3552 -0.3349
 2329TIP3   OH228621   6.299   5.471   1.842 -0.1079  0.1642 -0.3308
 2329TIP3    H128622   6.209   5.503   1.856 -0.1505 -0.6671  1.5030
 2329TIP3    H228623   6.309   5.398   1.903  1.3982 -0.6153 -1.4444
 2330TIP3   OH228624   2.571   3.008   0.210  0.4720  0.5202  0.2260
 2330TIP3    H128625   2.507   3.011   0.138  0.7110 -0.6940 -0.0563
 2330TIP3    H228626   2.577   2.915   0.233  1.9104  0.6570  0.4621
 2331TIP3   OH228627   4.081   4.856   1.294 -0.3639 -0.0756  0.1751
 2331TIP3    H128628   4.003   4.870   1.348  0.3847 -0.0538  1.2808
 2331TIP3    H228629   4.124   4.942   1.291  0.5939 -0.5138  1.1418
 2332TIP3   OH228630   6.787   4.678   6.692 -0.1302  0.1658  0.0226
 2332TIP3    H128631   6.701   4.658   6.729 -0.9774  1.5689 -1.0748
 2332TIP3    H228632   6.846   4.677   6.768 -1.3199  0.3045  0.9879
 2333TIP3   OH228633   1.448   1.565   7.461  0.3583 -0.3285  0.2697
 2333TIP3    H128634   1.516   1.506   7.496  0.5334  0.4101  1.2098
 2333TIP3    H228635   1.418   1.614   7.537  0.7786  1.3622 -0.6199
 2334TIP3   OH228636   6.708   6.097   7.446 -0.3741 -0.2828 -0.1214
 2334TIP3    H128637   6.653   6.167   7.411 -0.5727 -0.9097 -1.1132
 2334TIP3    H228638   6.653   6.054   7.511 -0.0588  0.8027  0.8846
 2335TIP3   OH228639   2.715   3.879   0.043  0.8458 -0.3914  0.7776
 2335TIP3    H128640   2.758   3.848  -0.036 -0.0442  0.4221 -0.0486
 2335TIP3    H228641   2.639   3.928   0.012 -0.1064 -0.9184  2.1593
 2336TIP3   OH228642   0.036   2.643   0.168  0.9077  0.3093  0.0304
 2336TIP3    H128643   0.035   2.727   0.214 -1.5309 -0.6206  1.9187
 2336TIP3    H228644   0.120   2.604   0.191  2.4753  2.4838 -1.5827
 2337TIP3   OH228645   3.657   2.692   7.520  0.0111 -0.6479 -0.5432
 2337TIP3    H128646   3.625   2.770   7.566 -1.3557 -1.6988  0.3703
 2337TIP3    H228647   3.747   2.681   7.551 -0.2140 -0.1598  0.3233
 2338TIP3   OH228648   0.348   1.664   7.112 -0.2544 -0.5603  0.5482
 2338TIP3    H128649   0.407   1.667   7.037  0.3301 -0.2775  1.0131
 2338TIP3    H228650   0.340   1.755   7.141 -1.5141 -0.4891  0.0405
 2339TIP3   OH228651   3.597   5.103   6.709 -0.1299 -0.0013  0.3135
 2339TIP3    H128652   3.545   5.142   6.638 -0.2053  1.5305  1.1705
 2339TIP3    H228653   3.686   5.133   6.693 -0.5987  3.2261  2.5857
 2340TIP3   OH228654   1.150   0.826   0.542 -0.1125 -0.2401 -0.3754
 2340TIP3    H128655   1.153   0.845   0.636  2.2885 -2.6052  0.1331
 2340TIP3    H228656   1.219   0.880   0.504 -0.8856  0.4936 -0.7664
 2341TIP3   OH228657   5.319   1.401   7.844 -0.2233 -0.0930  0.2086
 2341TIP3    H128658   5.236   1.385   7.800 -0.3745  1.0287  0.0496
 2341TIP3    H228659   5.385   1.367   7.783 -0.5721 -1.3416  0.5155
 2342TIP3   OH228660   4.803   4.743   8.562 -0.0532 -0.4268 -0.8731
 2342TIP3    H128661   4.891   4.727   8.596  0.4148  0.4544 -1.6098
 2342TIP3    H228662   4.816   4.749   8.467 -1.0018 -0.8788 -1.0319
 2343TIP3   OH228663   4.296   0.003   7.408  0.0832 -0.9871  0.5883
 2343TIP3    H128664   4.215   0.053   7.418 -0.7433 -2.4347  1.5511
 2343TIP3    H228665   4.284  -0.044   7.325 -0.3345 -1.6270  0.9995
 2344TIP3   OH228666   2.604   2.650   0.641  0.4865 -0.4826 -0.2196
 2344TIP3    H128667   2.582   2.623   0.730 -1.7067  0.4017 -0.4260
 2344TIP3    H228668   2.698   2.636   0.634  0.6198 -1.0816  2.0471
 2345TIP3   OH228669   4.649   2.211   7.577 -0.1488  0.0552  0.1933
 2345TIP3    H128670   4.641   2.118   7.555  0.2114 -0.2949  1.4087
 2345TIP3    H228671   4.741   2.221   7.605 -0.0242  0.9103 -0.4981
 2346TIP3   OH228672   1.787   5.783   7.759  0.4450  0.4636  0.1731
 2346TIP3    H128673   1.801   5.866   7.806  1.6426 -0.1447  0.9601
 2346TIP3    H228674   1.843   5.790   7.681 -1.2240  1.3036 -0.9954
 2347TIP3   OH228675   5.806   6.218   0.893 -0.2524  0.0769  0.2060
 2347TIP3    H128676   5.839   6.279   0.959  0.5522  0.5205 -0.5999
 2347TIP3    H228677   5.711   6.228   0.897 -0.1081  1.8056 -0.3025
 2348TIP3   OH228678   1.587   5.138   0.539  0.0327 -0.4616  0.0311
 2348TIP3    H128679   1.593   5.218   0.590  0.2202 -1.0274  0.9174
 2348TIP3    H228680   1.495   5.112   0.544  0.0248 -0.4435 -0.0233
 2349TIP3   OH228681   4.418   5.387   0.218  0.0043 -0.1513  0.4404
 2349TIP3    H128682   4.485   5.437   0.265 -0.4177  0.1234  0.7576
 2349TIP3    H228683   4.467   5.334   0.154  0.4882  0.3545  0.3883
 2350TIP3   OH228684   6.011   2.227   2.167 -0.0856  0.3102 -0.0918
 2350TIP3    H128685   5.951   2.155   2.149  0.7553 -1.0015  1.9721
 2350TIP3    H228686   6.097   2.186   2.172  0.4040  1.4131  1.1512
 2351TIP3   OH228687   0.494   5.361   6.631 -0.4050  0.5209 -0.2369
 2351TIP3    H128688   0.463   5.286   6.581 -2.1149  1.0461 -0.0359
 2351TIP3    H228689   0.419   5.386   6.685  0.9818  0.7098  1.7159
 2352TIP3   OH228690   5.089   6.313   7.408  0.4914 -0.1792 -0.3544
 2352TIP3    H128691   5.095   6.338   7.500  0.6896 -1.0171 -0.1323
 2352TIP3    H228692   5.081   6.396   7.361  4.1627  0.5868  0.0677
 2353TIP3   OH228693   5.830   1.745   7.482  0.5792  0.0772 -0.1760
 2353TIP3    H128694   5.847   1.675   7.420 -0.2684 -0.3297  0.0314
 2353TIP3    H228695   5.830   1.825   7.429 -0.7623 -0.3288 -0.8233
 2354TIP3   OH228696   6.054   4.014   0.036 -0.0087  0.1875 -0.0782
 2354TIP3    H128697   6.059   3.918   0.028  0.3179  0.1443  0.5896
 2354TIP3    H228698   5.999   4.028   0.113 -0.4291  0.5445 -0.4438
 2355TIP3   OH228699   0.785   4.976   7.447  0.1519  0.3234  0.4442
 2355TIP3    H128700   0.848   5.045   7.426 -1.0893  1.0470 -1.1118
 2355TIP3    H228701   0.700   5.012   7.419 -0.6691 -1.4191  0.5829
 2356TIP3   OH228702   3.867   0.105   1.491 -0.5769 -0.0483  0.3318
 2356TIP3    H128703   3.933   0.037   1.505  2.5925  2.1648 -2.3671
 2356TIP3    H228704   3.848   0.102   1.397 -1.6916  1.6413  0.4495
 2357TIP3   OH228705   0.092   1.287   6.933 -0.1028  0.5676 -0.3271
 2357TIP3    H128706   0.156   1.354   6.956 -0.4818  1.0718 -0.7401
 2357TIP3    H228707   0.037   1.278   7.011  2.0548 -1.7910  1.0926
 2358TIP3   OH228708   2.055   1.879   0.979 -0.1321  1.0632 -1.4895
 2358TIP3    H128709   1.999   1.817   1.026  1.9552  0.7872  0.8316
 2358TIP3    H228710   2.002   1.906   0.904 -1.6573 -2.4965 -1.9028
 2359TIP3   OH228711   4.978   4.025   2.725  0.2709 -0.6902  0.1572
 2359TIP3    H128712   5.011   4.104   2.683 -1.2699  2.0692  3.5771
 2359TIP3    H228713   5.048   3.997   2.783  0.5155 -1.4352 -0.4741
 2360TIP3   OH228714   2.923   3.014   0.891  0.1887  0.1058  0.6418
 2360TIP3    H128715   2.965   2.959   0.824  2.1632  1.2195  0.8921
 2360TIP3    H228716   2.922   2.959   0.970 -0.5300 -0.5758  0.1773
 2361TIP3   OH228717   3.031   2.360   8.406 -0.1379  0.4697  0.1030
 2361TIP3    H128718   3.028   2.282   8.462  1.3983  0.5179  0.3132
 2361TIP3    H228719   3.069   2.427   8.463  1.9105  0.3983 -1.0842
 2362TIP3   OH228720   2.608   5.767   0.261 -1.1236  0.2025  0.2570
 2362TIP3    H128721   2.663   5.733   0.331 -0.3347  0.9117 -0.0086
 2362TIP3    H228722   2.519   5.754   0.292 -0.7849  0.3969  1.3284
 2363TIP3   OH228723   2.717   3.935   7.364  0.0804 -0.0492  0.7613
 2363TIP3    H128724   2.725   4.017   7.414  1.1949  1.5698 -1.8710
 2363TIP3    H228725   2.635   3.944   7.315  1.5836  0.9290 -1.7575
 2364TIP3   OH228726   1.661   3.301   1.174 -0.2349  0.1618  0.4289
 2364TIP3    H128727   1.755   3.296   1.158 -0.4972 -2.4072 -0.6570
 2364TIP3    H228728   1.632   3.210   1.181 -2.8253  0.8326 -0.3186
 2365TIP3   OH228729   2.503   3.984   7.750 -0.4773 -0.0799  0.1853
 2365TIP3    H128730   2.506   4.069   7.793  0.9204 -0.4606  0.9187
 2365TIP3    H228731   2.412   3.956   7.755 -0.5034  0.2719  2.1733
 2366TIP3   OH228732   6.786   0.372   6.337  0.6161  0.0423 -0.0952
 2366TIP3    H128733   6.781   0.304   6.404 -0.5506 -0.8398 -1.0335
 2366TIP3    H228734   6.726   0.343   6.269 -0.5128  2.3913 -0.1984
 2367TIP3   OH228735   2.562   2.764   1.605 -0.0573  0.4487 -0.2666
 2367TIP3    H128736   2.495   2.763   1.537 -0.0431 -2.3954 -0.3490
 2367TIP3    H228737   2.572   2.856   1.628 -2.8671  1.1081 -1.3479
 2368TIP3   OH228738   4.556   5.667   2.098 -0.1280 -0.2439  0.2825
 2368TIP3    H128739   4.577   5.575   2.084 -0.7075 -0.1192 -1.7607
 2368TIP3    H228740   4.639   5.707   2.124  0.1030 -1.3292  1.2819
 2369TIP3   OH228741   3.909   0.139   8.231 -0.1803 -0.6883  0.7568
 2369TIP3    H128742   3.981   0.201   8.246 -0.9097  0.2000  0.6676
 2369TIP3    H228743   3.830   0.193   8.233 -0.7449 -1.4045 -0.5834
 2370TIP3   OH228744   1.801   4.159   0.351 -0.0202 -0.5134 -0.0932
 2370TIP3    H128745   1.803   4.145   0.446  2.4401 -1.7471 -0.2390
 2370TIP3    H228746   1.734   4.226   0.338  0.1638  0.3294  2.5986
 2371TIP3   OH228747   3.548   0.273   7.115  0.8897  0.3728 -0.2216
 2371TIP3    H128748   3.474   0.218   7.091  1.5571 -1.6111  1.9148
 2371TIP3    H228749   3.625   0.224   7.086  1.4584  1.6610 -0.9983
 2372TIP3   OH228750   0.918   3.402   1.236 -0.0674 -0.0120  0.0561
 2372TIP3    H128751   0.943   3.389   1.328 -0.0837  0.8690  0.1926
 2372TIP3    H228752   0.825   3.381   1.234 -0.4945  1.6468  0.6271
 2373TIP3   OH228753   2.837   5.486   0.750  0.6001  0.3682  0.8771
 2373TIP3    H128754   2.804   5.396   0.751  1.7098 -0.1409 -1.2791
 2373TIP3    H228755   2.763   5.539   0.722  0.1483  0.0025  1.3779
 2374TIP3   OH228756   1.987   6.239   6.776  0.0002  0.0796  0.3439
 2374TIP3    H128757   1.976   6.234   6.871  0.0475  2.5034  0.5416
 2374TIP3    H228758   1.899   6.259   6.743 -0.3055 -2.0743 -0.3223
 2375TIP3   OH228759   0.898   2.430   7.741  0.1666  0.0731  0.3305
 2375TIP3    H128760   0.951   2.510   7.743 -0.7762  0.7076  1.4782
 2375TIP3    H228761   0.952   2.365   7.785  0.6828  0.2566 -0.0256
 2376TIP3   OH228762   5.199   5.160   0.643  0.1823 -0.0404  0.5484
 2376TIP3    H128763   5.271   5.187   0.585 -1.9703  0.0265 -2.3368
 2376TIP3    H228764   5.169   5.241   0.684 -0.8751  0.7481 -1.5888
 2377TIP3   OH228765   0.901   2.180   8.452 -0.1683  0.3370  0.2696
 2377TIP3    H128766   0.988   2.219   8.460 -0.5661  0.9842  1.9571
 2377TIP3    H228767   0.917   2.088   8.432  0.8899  0.5315  0.1794
 2378TIP3   OH228768   1.011   5.596   7.420 -0.2244  0.4049 -0.5755
 2378TIP3    H128769   1.005   5.555   7.506  0.3347  1.2161 -0.1418
 2378TIP3    H228770   0.993   5.689   7.436 -1.1803  0.3988 -1.4971
 2379TIP3   OH228771   4.880   2.444   6.142 -0.3589 -0.0482 -0.1941
 2379TIP3    H128772   4.930   2.522   6.118  1.5937  0.0665  3.4355
 2379TIP3    H228773   4.935   2.371   6.113  1.0331  0.0801  1.8653
 2380TIP3   OH228774   6.545   3.471   6.309  0.1609  0.3931  0.2599
 2380TIP3    H128775   6.486   3.433   6.244 -0.3690 -0.0513  0.9854
 2380TIP3    H228776   6.520   3.563   6.312  0.1780  0.4155 -0.1521
 2381TIP3   OH228777   1.116   5.837   1.601 -0.0288  0.0593 -0.4670
 2381TIP3    H128778   1.210   5.844   1.614 -0.3470  0.8867  1.8419
 2381TIP3    H228779   1.093   5.749   1.634  0.0603 -0.6772 -2.2488
 2382TIP3   OH228780   3.529   2.244   1.730  0.0049  0.1311  0.5341
 2382TIP3    H128781   3.547   2.296   1.652  0.9010 -0.1443  0.5486
 2382TIP3    H228782   3.434   2.230   1.728  0.0824 -0.3029 -0.7740
 2383TIP3   OH228783   1.468   4.560   6.848  0.1285  0.1023 -0.4942
 2383TIP3    H128784   1.457   4.628   6.781 -0.1770  0.6254  0.0817
 2383TIP3    H228785   1.556   4.526   6.833  0.1514  0.3747 -1.0186
 2384TIP3   OH228786   2.474   5.266   7.768  0.5382 -0.3790  0.3185
 2384TIP3    H128787   2.503   5.226   7.686 -2.4125  2.3935 -2.3403
 2384TIP3    H228788   2.538   5.335   7.785 -0.8575  1.6850 -2.0934
 2385TIP3   OH228789   2.997   4.388   0.974 -0.0481  0.3483 -0.5355
 2385TIP3    H128790   2.979   4.298   1.001  0.5032  1.2378  3.5156
 2385TIP3    H228791   3.067   4.381   0.910  3.1550 -2.1375  2.8186
 2386TIP3   OH228792   2.613   3.340   2.204 -0.4575  0.2723 -0.5811
 2386TIP3    H128793   2.619   3.337   2.300 -0.1895  0.4385 -0.5909
 2386TIP3    H228794   2.684   3.399   2.178  0.0357 -0.4613 -0.9354
 2387TIP3   OH228795   1.378   0.911   7.375  0.7927  0.5358 -0.0715
 2387TIP3    H128796   1.372   0.919   7.280 -0.0186  1.1583  0.0168
 2387TIP3    H228797   1.453   0.966   7.399  2.4760 -1.4425 -0.5371
 2388TIP3   OH228798   6.470   0.282   7.483  0.7991 -0.6099 -0.1759
 2388TIP3    H128799   6.379   0.253   7.493  0.1977  0.7299 -1.4499
 2388TIP3    H228800   6.505   0.225   7.415  0.6585 -0.5936 -0.2636
 2389TIP3   OH228801   3.560   0.207   0.004  0.3469 -0.3525 -0.0091
 2389TIP3    H128802   3.551   0.121  -0.036 -0.4189 -0.0964 -0.3922
 2389TIP3    H228803   3.516   0.267  -0.056 -0.3802  0.1078  0.9490
 2390TIP3   OH228804   3.489   3.950   8.426  0.2399  0.3536  0.5234
 2390TIP3    H128805   3.401   3.985   8.416  0.2100  0.4573  1.0758
 2390TIP3    H228806   3.515   3.977   8.515  0.7637  0.1941  0.4226
 2391TIP3   OH228807   0.224   0.516   7.325  0.7605  0.1250 -0.1105
 2391TIP3    H128808   0.253   0.593   7.373 -0.1004  0.0754  0.5007
 2391TIP3    H228809   0.152   0.548   7.270  0.8513 -0.1032 -0.3651
 2392TIP3   OH228810   6.163   5.374   6.572 -0.2678  1.0263  0.0350
 2392TIP3    H128811   6.119   5.335   6.647 -1.2216  1.6377 -0.1917
 2392TIP3    H228812   6.236   5.315   6.554 -2.1525 -1.1735 -0.8591
 2393TIP3   OH228813   4.541   0.833   0.577  0.3295 -0.3206 -0.5433
 2393TIP3    H128814   4.525   0.788   0.494 -0.3458  0.4653 -0.8500
 2393TIP3    H228815   4.529   0.765   0.643  0.1961 -0.7972 -1.0510
 2394TIP3   OH228816   1.889   3.711   1.214  0.6362 -0.5142  0.1376
 2394TIP3    H128817   1.952   3.777   1.243  0.4900  0.1908 -1.0653
 2394TIP3    H228818   1.942   3.636   1.187  0.8941 -0.3338  0.1390
 2395TIP3   OH228819   2.421   2.964   8.241  0.0121  0.2323  0.3761
 2395TIP3    H128820   2.353   3.016   8.198  0.2218 -1.3708 -2.0810
 2395TIP3    H228821   2.503   2.996   8.203  0.3450 -0.2216  0.7021
 2396TIP3   OH228822   2.756   2.299   6.365 -0.7661 -0.1290 -0.2867
 2396TIP3    H128823   2.667   2.309   6.330 -1.5846  1.1095  1.9775
 2396TIP3    H228824   2.752   2.223   6.422 -0.4657  0.1593  0.1216
 2397TIP3   OH228825   0.564   3.141   8.639  0.1888  0.4303 -0.0714
 2397TIP3    H128826   0.496   3.118   8.703  0.1189 -2.8720 -1.1350
 2397TIP3    H228827   0.638   3.085   8.662  0.6500  0.1670 -2.0354
 2398TIP3   OH228828   4.352   6.545   5.948  0.7654  0.1012 -0.9756
 2398TIP3    H128829   4.266   6.557   5.988  1.2383  3.1355 -0.6534
 2398TIP3    H228830   4.345   6.462   5.901 -2.0724 -0.1080 -0.3702
 2399TIP3   OH228831   6.107   3.996   8.374  0.8412  0.6273  0.3495
 2399TIP3    H128832   6.146   4.038   8.298  1.2549  1.1320  0.8287
 2399TIP3    H228833   6.167   3.925   8.396 -0.9695 -1.7346 -1.8044
 2400TIP3   OH228834   2.934   6.844   6.670 -0.0198 -0.3187 -0.0948
 2400TIP3    H128835   2.901   6.929   6.698 -2.3134 -0.8409 -1.0215
 2400TIP3    H228836   2.949   6.796   6.751 -0.8893  0.1920  0.3793
 2401TIP3   OH228837   5.725   1.152   7.796 -0.0325  0.0136  0.2668
 2401TIP3    H128838   5.764   1.079   7.843  0.2592  0.2698  0.4230
 2401TIP3    H228839   5.799   1.198   7.757 -0.2861 -0.3138 -0.6139
 2402TIP3   OH228840   1.421   1.082   8.049  0.3268 -0.2039  0.4495
 2402TIP3    H128841   1.471   1.062   8.129 -0.1046 -0.8760  0.5665
 2402TIP3    H228842   1.334   1.104   8.081  0.8693  2.3830  0.3531
 2403TIP3   OH228843   0.600   4.666   8.310  0.1243 -0.1771 -0.3809
 2403TIP3    H128844   0.592   4.719   8.231  0.6682  0.2017 -0.1849
 2403TIP3    H228845   0.511   4.635   8.327 -0.1003  0.2252 -0.8043
 2404TIP3   OH228846   0.103   4.697   6.901 -0.7103 -0.2657 -0.2145
 2404TIP3    H128847   0.177   4.749   6.932 -1.7890  1.6696 -0.6793
 2404TIP3    H228848   0.036   4.707   6.969 -0.7810 -1.4365 -0.1042
 2405TIP3   OH228849   1.698   0.719   0.004  0.1244 -0.3893 -0.2072
 2405TIP3    H128850   1.640   0.776  -0.048 -1.8851 -0.7000  1.5634
 2405TIP3    H228851   1.745   0.667  -0.062 -1.4356  0.0616 -1.7551
 2406TIP3   OH228852   6.073   4.837   0.131 -0.2072 -0.2845 -0.0320
 2406TIP3    H128853   6.114   4.858   0.215 -0.7778 -3.0988  1.0668
 2406TIP3    H228854   6.110   4.900   0.069  2.2685  0.1741  1.7939
 2407TIP3   OH228855   0.945   4.115   8.650  0.1647 -0.2058 -0.0763
 2407TIP3    H128856   0.859   4.082   8.626  0.4591  0.4319 -2.2269
 2407TIP3    H228857   1.002   4.038   8.649  0.1901 -0.1986 -1.7050
 2408TIP3   OH228858   2.318   2.019   7.350 -0.2158  0.0371 -0.0089
 2408TIP3    H128859   2.377   2.003   7.277 -1.2993  2.3764 -1.5259
 2408TIP3    H228860   2.254   1.948   7.346  0.8043 -0.8924 -0.1340
 2409TIP3   OH228861   2.939   1.174   1.240  0.0151  0.5998  0.4511
 2409TIP3    H128862   2.958   1.080   1.246 -0.0505  0.6193  1.0133
 2409TIP3    H228863   2.919   1.200   1.329  0.4524  1.2466  0.3651
 2410TIP3   OH228864   4.271   2.754   7.080 -0.3587 -0.2575  0.5265
 2410TIP3    H128865   4.359   2.736   7.048  0.5021 -1.2264  3.1344
 2410TIP3    H228866   4.217   2.687   7.040  0.2353 -0.1613 -0.4712
 2411TIP3   OH228867   2.469   0.934   0.366 -0.0186  0.3518 -0.2821
 2411TIP3    H128868   2.460   0.975   0.452 -0.6469 -0.6314  0.1360
 2411TIP3    H228869   2.454   1.006   0.304 -0.6024  0.8599  0.4255
 2412TIP3   OH228870   1.742   5.484   6.973  0.2645 -0.5081  0.1967
 2412TIP3    H128871   1.824   5.437   6.958  0.9050  0.7355 -0.3524
 2412TIP3    H228872   1.719   5.520   6.887 -0.7151 -0.6145  0.4071
 2413TIP3   OH228873   5.813   5.375   0.495  0.3975 -0.2982 -0.4871
 2413TIP3    H128874   5.848   5.286   0.502  1.7902  0.2679  0.2023
 2413TIP3    H228875   5.759   5.386   0.574  3.4285  0.7398  1.6438
 2414TIP3   OH228876   0.554   2.849   7.588  0.3224  0.0321 -0.4390
 2414TIP3    H128877   0.464   2.848   7.621  0.3882  0.2933 -0.2500
 2414TIP3    H228878   0.597   2.920   7.636  1.0144 -0.9933  0.4855
 2415TIP3   OH228879   2.402   3.649   0.748 -0.2269 -0.1417 -0.3920
 2415TIP3    H128880   2.321   3.670   0.701 -0.0521 -0.8891 -1.0545
 2415TIP3    H228881   2.421   3.559   0.723 -0.3691 -0.7245  1.5248
 2416TIP3   OH228882   0.923   5.539   0.298 -1.0500  0.5209 -0.2699
 2416TIP3    H128883   0.957   5.592   0.370 -0.2763  0.4242 -0.5561
 2416TIP3    H228884   0.954   5.584   0.219 -2.6227  1.1202 -0.5827
 2417TIP3   OH228885   2.925   6.554   7.548  0.1392  0.1313 -0.2631
 2417TIP3    H128886   2.983   6.485   7.580  0.7431 -0.1327 -1.8119
 2417TIP3    H228887   2.952   6.632   7.596 -0.5019 -0.6523  1.4601
 2418TIP3   OH228888   5.913   6.847   7.982 -0.6074 -0.1898  0.1849
 2418TIP3    H128889   5.867   6.781   8.034  1.0103 -2.0124 -0.5420
 2418TIP3    H228890   6.005   6.821   7.987  0.1461  2.2733  0.1602
 2419TIP3   OH228891   5.351   3.750   1.711 -0.6590  0.0294 -0.0981
 2419TIP3    H128892   5.389   3.668   1.743  0.0681  0.8465  1.2169
 2419TIP3    H228893   5.263   3.752   1.748 -1.2673 -0.8781 -1.4314
 2420TIP3   OH228894   5.868   6.169   0.466 -0.3544  0.4053  1.0167
 2420TIP3    H128895   5.946   6.116   0.483  0.5911  1.4771  0.1771
 2420TIP3    H228896   5.812   6.156   0.543  1.0901  0.3831  2.0937
 2421TIP3   OH228897   5.511   6.626   8.105  0.8804 -0.5029  0.1933
 2421TIP3    H128898   5.418   6.612   8.087  0.9434 -3.6199  1.6998
 2421TIP3    H228899   5.515   6.715   8.139 -1.3604  0.1020 -0.9179
 2422TIP3   OH228900   1.028   5.874   7.386 -0.2166  0.2815  0.6619
 2422TIP3    H128901   0.996   5.836   7.303 -1.0549  1.4004  0.4566
 2422TIP3    H228902   1.113   5.911   7.363  1.4204 -2.7900  1.2304
 2423TIP3   OH228903   4.397   6.890   7.647  0.2985  0.7615 -0.2703
 2423TIP3    H128904   4.311   6.884   7.688  0.0893  0.7123 -0.7113
 2423TIP3    H228905   4.379   6.889   7.553  0.6954  1.9410 -0.3787
 2424TIP3   OH228906   2.753   1.615   0.083  0.5135 -0.0806 -0.3436
 2424TIP3    H128907   2.749   1.590   0.175  1.5349  0.7760 -0.0408
 2424TIP3    H228908   2.810   1.692   0.082 -1.7665  1.7026 -1.3212
 2425TIP3   OH228909   5.998   3.825   7.033  1.0035  0.4583  0.2449
 2425TIP3    H128910   6.010   3.820   7.128  0.7265 -0.8035  0.2218
 2425TIP3    H228911   6.040   3.908   7.008  1.3160  0.6706  1.4225
 2426TIP3   OH228912   1.663   6.352   1.964  0.1140 -0.0685  0.2460
 2426TIP3    H128913   1.673   6.393   1.878  1.1228  0.0102  0.3879
 2426TIP3    H228914   1.617   6.418   2.017 -2.0071 -0.7450 -0.6602
 2427TIP3   OH228915   3.741   2.340   7.629 -0.3780 -0.0814  0.0027
 2427TIP3    H128916   3.821   2.357   7.579 -0.3005 -1.8308 -0.5394
 2427TIP3    H228917   3.678   2.309   7.564 -2.0511  2.6777  0.1643
 2428TIP3   OH228918   3.148   5.306   0.919 -0.8594  0.0948 -0.5085
 2428TIP3    H128919   3.243   5.311   0.928 -0.8690  2.5680 -1.0369
 2428TIP3    H228920   3.117   5.393   0.945 -3.2154 -1.2914  1.7787
 2429TIP3   OH228921   2.488   0.220   0.943  0.3280  0.2834 -0.1389
 2429TIP3    H128922   2.501   0.211   1.038 -0.3792  1.7968  0.1287
 2429TIP3    H228923   2.400   0.185   0.928 -0.4055  1.9276  0.1220
 2430TIP3   OH228924   3.646   3.628   8.585  0.0737  0.2154 -0.0033
 2430TIP3    H128925   3.717   3.569   8.608  0.6057  0.2333 -1.4916
 2430TIP3    H228926   3.684   3.716   8.593 -0.9009  0.4854  2.8589
 2431TIP3   OH228927   6.015   3.967   7.496  0.7228 -0.1542  0.1490
 2431TIP3    H128928   6.041   3.931   7.581 -0.3540  0.5812  0.8152
 2431TIP3    H228929   6.089   4.022   7.470  0.0053  1.8402  1.9719
 2432TIP3   OH228930   1.494   2.565   6.362  0.1858  0.0597 -0.2187
 2432TIP3    H128931   1.569   2.539   6.416  0.4303  0.0869 -0.5455
 2432TIP3    H228932   1.452   2.635   6.413  0.5281  0.2186 -0.1518
 2433TIP3   OH228933   5.596   5.863   7.140  0.1444 -0.8124 -0.0082
 2433TIP3    H128934   5.670   5.889   7.195 -1.4838 -1.7399  2.8302
 2433TIP3    H228935   5.606   5.768   7.132  0.2956 -0.6982 -1.2886
 2434TIP3   OH228936   0.926   5.757   7.170 -0.1781 -0.3513  0.0170
 2434TIP3    H128937   0.938   5.668   7.139 -4.3178 -2.1471  2.6738
 2434TIP3    H228938   0.878   5.801   7.100  0.6081 -0.6626 -0.7274
 2435TIP3   OH228939   2.250   2.122   8.604 -0.3030 -0.4284 -0.1603
 2435TIP3    H128940   2.209   2.207   8.594 -1.9469 -1.1622 -0.0086
 2435TIP3    H228941   2.294   2.126   8.689  0.6095  0.6343 -0.6671
 2436TIP3   OH228942   3.918   4.054   2.422 -0.0205 -0.5654  0.3720
 2436TIP3    H128943   3.947   4.130   2.471  0.4407 -0.0851 -0.6171
 2436TIP3    H228944   3.999   4.011   2.394 -0.2776 -1.1037  0.4485
 2437TIP3   OH228945   0.316   2.343   8.347 -0.3346  0.1488 -0.0417
 2437TIP3    H128946   0.361   2.311   8.426 -1.2157  1.7125  1.1557
 2437TIP3    H228947   0.382   2.394   8.301  0.3785 -1.3175 -0.6945
 2438TIP3   OH228948   1.299   3.035   7.879  0.0075  0.2315  0.3093
 2438TIP3    H128949   1.327   3.028   7.971 -0.0220  0.1866  0.3155
 2438TIP3    H228950   1.209   3.067   7.884  0.4218  1.4294  0.2483
 2439TIP3   OH228951   3.693   2.829   8.320 -0.0075  0.3500 -0.5306
 2439TIP3    H128952   3.667   2.845   8.230  0.2249  0.3834 -0.5945
 2439TIP3    H228953   3.776   2.781   8.313 -1.8914 -3.2337 -0.3921
 2440TIP3   OH228954   5.435   4.697   0.047 -0.3371 -0.0619  0.0202
 2440TIP3    H128955   5.522   4.673   0.017 -0.3698  1.2330 -1.1969
 2440TIP3    H228956   5.375   4.649  -0.009 -0.3956  0.4116 -0.3314
 2441TIP3   OH228957   5.405   0.460   1.630 -0.2254 -0.3101  0.2413
 2441TIP3    H128958   5.418   0.511   1.550 -0.8940  0.5815  0.6876
 2441TIP3    H228959   5.356   0.383   1.601 -1.4199  0.5343 -0.0646
 2442TIP3   OH228960   1.098   3.526   0.154  0.0823 -0.1051 -0.4325
 2442TIP3    H128961   1.074   3.566   0.238 -1.3858  2.4093 -1.9404
 2442TIP3    H228962   1.090   3.432   0.171  1.0128  0.2374  2.5410
 2443TIP3   OH228963   1.300   1.337   0.253 -0.1253  0.5527  0.5079
 2443TIP3    H128964   1.381   1.289   0.235 -1.0340 -0.2474 -1.8511
 2443TIP3    H228965   1.326   1.429   0.253  0.8439  0.2916  0.1414
 2444TIP3   OH228966   5.734   0.810   7.574 -0.0880 -0.4519 -0.2719
 2444TIP3    H128967   5.651   0.785   7.614  0.0325 -0.6572 -0.1501
 2444TIP3    H228968   5.773   0.727   7.545 -1.5201 -0.1759 -3.5250
 2445TIP3   OH228969   3.408   6.318   1.475  0.3258  0.0141 -0.4906
 2445TIP3    H128970   3.359   6.299   1.555 -0.5863 -1.3600 -1.3304
 2445TIP3    H228971   3.497   6.335   1.505  0.4784 -2.4620  0.6974
 2446TIP3   OH228972   5.166   3.539   7.692 -0.1091 -0.2395  0.5595
 2446TIP3    H128973   5.161   3.501   7.604 -1.7786 -0.9947  0.9528
 2446TIP3    H228974   5.258   3.531   7.716  0.2322 -0.7334 -0.8051
 2447TIP3   OH228975   6.599   0.752   2.182 -0.4710 -0.0135 -0.2708
 2447TIP3    H128976   6.615   0.825   2.123  1.0652 -0.1138 -0.0167
 2447TIP3    H228977   6.588   0.792   2.268 -3.6698  0.2206 -0.6699
 2448TIP3   OH228978   2.933   5.923   0.255 -0.6151  0.3790 -0.8820
 2448TIP3    H128979   2.949   5.854   0.190  1.8875 -2.4457  2.3411
 2448TIP3    H228980   2.995   5.993   0.233 -0.1919 -0.2875 -1.8550
 2449TIP3   OH228981   2.952   2.196   7.080  0.0468 -0.2086  0.4390
 2449TIP3    H128982   2.884   2.258   7.108 -0.3530 -0.6973  0.5698
 2449TIP3    H228983   2.980   2.228   6.994  0.4807  0.6596  0.8847
 2450TIP3   OH228984   3.929   0.369   6.367 -0.2913  0.3859  0.2401
 2450TIP3    H128985   3.864   0.412   6.311  0.3990  1.7506  0.4442
 2450TIP3    H228986   3.899   0.387   6.456 -1.6581 -2.1965  0.3995
 2451TIP3   OH228987   3.877   0.097   7.713  0.0474  0.1472  0.9973
 2451TIP3    H128988   3.961   0.134   7.687  0.2904 -0.7699  0.4448
 2451TIP3    H228989   3.888   0.074   7.806  0.3801  0.0945  0.9425
 2452TIP3   OH228990   4.492   3.986   1.159 -0.0645  0.3112 -0.0863
 2452TIP3    H128991   4.548   3.911   1.181 -0.0385  0.4088  0.1773
 2452TIP3    H228992   4.528   4.058   1.210 -1.3535  0.0396  1.2587
 2453TIP3   OH228993   6.683   5.641   6.616 -0.5623  0.1665 -0.6928
 2453TIP3    H128994   6.684   5.734   6.593 -1.7248  0.4742  0.3993
 2453TIP3    H228995   6.774   5.621   6.641 -0.7678  1.6868  1.5657
 2454TIP3   OH228996   6.417   5.838   0.034 -0.2056 -0.0600 -0.8685
 2454TIP3    H128997   6.377   5.923   0.055  1.0012  0.4455 -0.5636
 2454TIP3    H228998   6.467   5.815   0.112 -1.5390 -1.7048 -0.4282
 2455TIP3   OH228999   5.369   3.170   7.859 -0.5809  0.1676 -0.0953
 2455TIP3    H129000   5.327   3.085   7.876 -0.3983  0.1952  0.5319
 2455TIP3    H229001   5.303   3.235   7.883 -0.7954  0.2068 -0.7751
 2456TIP3   OH229002   4.085   3.349   1.659 -0.4478 -0.2000  0.2576
 2456TIP3    H129003   4.152   3.332   1.592  0.8461 -0.6702  1.6173
 2456TIP3    H229004   4.108   3.435   1.694 -0.0317 -0.7237  1.3046
 2457TIP3   OH229005   1.680   2.234   8.367  0.0473 -0.5917  0.6308
 2457TIP3    H129006   1.630   2.302   8.412 -1.7829 -0.3663 -1.5160
 2457TIP3    H229007   1.771   2.253   8.388 -0.4802  1.7950  1.1121
 2458TIP3   OH229008   4.662   5.313   0.678  0.0451 -0.1014 -0.3695
 2458TIP3    H129009   4.581   5.278   0.640 -1.5572  0.0115  2.6045
 2458TIP3    H229010   4.670   5.401   0.640 -1.6946  0.1752 -0.1997
 2459TIP3   OH229011   4.648   0.571   0.275  0.1602 -0.1838 -0.3118
 2459TIP3    H129012   4.740   0.585   0.298  0.2603  0.4929 -1.0932
 2459TIP3    H229013   4.651   0.514   0.198 -0.0358  0.4907 -0.8276
 2460TIP3   OH229014   0.992   0.709   0.378  0.2119 -0.1010  0.1805
 2460TIP3    H129015   1.015   0.619   0.354  0.1189  0.1605 -0.9714
 2460TIP3    H229016   1.053   0.732   0.448  1.0693 -0.6427 -0.3717
 2461TIP3   OH229017   3.038   6.741   8.633 -0.2646  0.2439 -0.4293
 2461TIP3    H129018   3.070   6.829   8.653  1.4700 -0.3631 -0.3507
 2461TIP3    H229019   3.055   6.730   8.539  1.1144 -0.5818 -0.1136
 2462TIP3   OH229020   3.349   0.535   7.417 -0.1101 -0.3372  0.3404
 2462TIP3    H129021   3.350   0.523   7.512 -0.2636 -1.9860  0.1635
 2462TIP3    H229022   3.361   0.447   7.381  1.5693  0.4194 -1.1847
 2463TIP3   OH229023   1.501   3.879   1.951  0.2222  0.5583 -0.6540
 2463TIP3    H129024   1.506   3.815   2.022 -0.3981 -0.7987 -1.7781
 2463TIP3    H229025   1.591   3.908   1.938  0.1917  1.8501  1.5327
 2464TIP3   OH229026   5.826   5.920   7.643  0.3667 -0.0782  0.0685
 2464TIP3    H129027   5.821   5.881   7.730  2.6052  0.7880  0.6450
 2464TIP3    H229028   5.742   5.898   7.603 -0.6544 -0.6950  2.3471
 2465TIP3   OH229029   1.095   4.181   0.338  0.0482 -0.0339 -0.1166
 2465TIP3    H129030   1.189   4.163   0.334 -0.0436 -0.4341 -0.5388
 2465TIP3    H229031   1.086   4.249   0.404  0.6149 -0.1501  0.0809
 2466TIP3   OH229032   0.222   3.963   1.376 -0.7138  0.0589 -0.1188
 2466TIP3    H129033   0.203   3.950   1.469 -1.4056  1.1009 -0.0950
 2466TIP3    H229034   0.188   4.050   1.357 -3.0517 -1.1290 -1.9655
 2467TIP3   OH229035   5.747   3.761   0.797  0.4850  0.5077 -0.3117
 2467TIP3    H129036   5.809   3.792   0.731  0.2330  2.0729  0.1459
 2467TIP3    H229037   5.679   3.828   0.800 -0.6240 -0.6112  0.0274
 2468TIP3   OH229038   1.655   0.469   7.605  0.0600  0.1261  0.1186
 2468TIP3    H129039   1.654   0.478   7.700  0.7482 -0.7663  0.2284
 2468TIP3    H229040   1.685   0.554   7.573  1.3628 -0.0533  0.7951
 2469TIP3   OH229041   2.797   0.366   8.487 -0.6120  1.0381  0.3517
 2469TIP3    H129042   2.799   0.457   8.458 -0.8131  1.3275  1.2022
 2469TIP3    H229043   2.810   0.371   8.582  1.8641  0.0122  0.1376
 2470TIP3   OH229044   3.710   5.939   1.925 -0.2237  0.2606  0.2766
 2470TIP3    H129045   3.702   5.844   1.914  0.3700  0.3037 -0.7135
 2470TIP3    H229046   3.692   5.954   2.017  2.4353 -1.1719  1.1519
 2471TIP3   OH229047   3.965   2.752   7.386 -0.2075 -0.2969  0.1159
 2471TIP3    H129048   3.941   2.688   7.318 -0.8384 -1.3874  1.3098
 2471TIP3    H229049   4.000   2.698   7.458 -1.1913  0.6482  1.3431
 2472TIP3   OH229050   4.276   4.927   8.234 -0.4189  0.2907 -0.5901
 2472TIP3    H129051   4.358   4.898   8.273 -0.0840 -0.9288 -2.1070
 2472TIP3    H229052   4.225   4.847   8.222 -1.3375  0.8870 -0.7817
 2473TIP3   OH229053   5.861   1.712   8.404  0.4895  0.2779 -0.8745
 2473TIP3    H129054   5.933   1.691   8.464  0.9028 -0.6888 -1.6763
 2473TIP3    H229055   5.782   1.706   8.458  0.8543 -0.6107 -0.4097
 2474TIP3   OH229056   0.027   3.558   6.612  0.0833 -0.4065  0.0727
 2474TIP3    H129057   0.093   3.600   6.557 -0.5137 -0.5679 -0.7833
 2474TIP3    H229058  -0.044   3.537   6.552 -0.0126 -1.8414  0.6538
 2475TIP3   OH229059   0.077   2.149   1.400  0.0550 -0.2196 -0.1165
 2475TIP3    H129060   0.105   2.115   1.315 -1.8469  2.8498 -2.1841
 2475TIP3    H229061  -0.016   2.167   1.388  0.0378  1.5689  2.1763
 2476TIP3   OH229062   4.406   4.199   7.874  0.3930  0.3500 -0.0190
 2476TIP3    H129063   4.378   4.108   7.878  2.7256 -0.3945  1.0474
 2476TIP3    H229064   4.426   4.214   7.781 -1.5418  0.3433 -0.4809
 2477TIP3   OH229065   0.608   3.937   6.394 -0.0650  0.5654 -0.0584
 2477TIP3    H129066   0.701   3.927   6.418 -0.4788 -0.2975  1.2703
 2477TIP3    H229067   0.608   4.012   6.334  1.5481  0.3028 -0.4518
 2478TIP3   OH229068   2.737   0.054   1.091  0.6199  0.3520  0.4067
 2478TIP3    H129069   2.727  -0.042   1.092 -0.8706  0.4311 -0.9411
 2478TIP3    H229070   2.647   0.086   1.081  1.2272  1.8311 -0.5138
 2479TIP3   OH229071   2.649   0.654   2.180  0.1803 -0.5722 -0.0404
 2479TIP3    H129072   2.580   0.705   2.136  1.0914  0.2086 -0.6082
 2479TIP3    H229073   2.703   0.720   2.223  0.6956 -1.1582  0.2184
 2480TIP3   OH229074   0.767   5.677   1.708 -0.3904  0.2748 -0.0666
 2480TIP3    H129075   0.858   5.676   1.680 -0.5156  0.6872 -0.4867
 2480TIP3    H229076   0.771   5.654   1.801  0.1208  0.0828 -0.1315
 2481TIP3   OH229077   6.478   3.704   8.161 -0.1103  0.0025  0.3072
 2481TIP3    H129078   6.524   3.731   8.082  0.0490  0.0891  0.4267
 2481TIP3    H229079   6.470   3.785   8.212 -0.2151 -0.0523  0.3780
 2482TIP3   OH229080   4.157   6.420   8.465  0.8381  0.1804  0.4698
 2482TIP3    H129081   4.088   6.461   8.517  1.7290  0.3474  1.5684
 2482TIP3    H229082   4.116   6.340   8.430  0.0541  0.3371  0.9899
 2483TIP3   OH229083   5.100   4.497   0.295  0.2366  0.4605  0.2451
 2483TIP3    H129084   5.091   4.495   0.390  0.0388 -0.4902  0.2125
 2483TIP3    H229085   5.019   4.539   0.264 -0.9453 -1.5879  0.3664
 2484TIP3   OH229086   4.910   0.214   1.317 -0.0191  0.0245  0.0564
 2484TIP3    H129087   4.942   0.263   1.241 -1.5089 -1.1228 -1.3853
 2484TIP3    H229088   4.972   0.142   1.326 -1.0026 -1.0538 -1.4599
 2485TIP3   OH229089   6.307   2.126   0.815 -0.4236  0.2355 -0.5832
 2485TIP3    H129090   6.261   2.165   0.889  0.3629 -1.2356  0.7316
 2485TIP3    H229091   6.349   2.200   0.772 -2.4492  1.3728 -0.7363
 2486TIP3   OH229092   6.344   1.549   8.141 -0.2551  0.3792 -0.3768
 2486TIP3    H129093   6.255   1.567   8.111 -0.0933  1.7580 -0.1001
 2486TIP3    H229094   6.398   1.569   8.065  0.0555  2.6589  0.3874
 2487TIP3   OH229095   1.969   0.158   6.324  0.3534  0.1473  0.5676
 2487TIP3    H129096   1.984   0.207   6.404 -2.3534  1.8718  0.1328
 2487TIP3    H229097   2.038   0.188   6.264 -1.1162  3.5666  0.3428
 2488TIP3   OH229098   3.614   3.801   7.905  0.4441 -0.1906 -0.1686
 2488TIP3    H129099   3.598   3.707   7.905 -0.6063 -0.0221  0.1643
 2488TIP3    H229100   3.704   3.810   7.936  0.3295 -1.0532  0.4361
 2489TIP3   OH229101   1.699   2.921   2.209 -0.3190 -0.0696  0.1927
 2489TIP3    H129102   1.718   2.890   2.120 -0.2158 -1.1289  0.5688
 2489TIP3    H229103   1.608   2.949   2.206 -0.1693  0.3705 -0.3704
 2490TIP3   OH229104   4.604   1.953   7.869 -0.3404 -0.0448 -0.3591
 2490TIP3    H129105   4.535   2.017   7.886 -0.3601  0.3475 -1.7346
 2490TIP3    H229106   4.608   1.948   7.773  0.1755 -1.5607 -0.2757
 2491TIP3   OH229107   6.633   5.135   0.024  0.0885  0.2218 -0.0283
 2491TIP3    H129108   6.627   5.040   0.015  0.7145  0.2915 -1.5926
 2491TIP3    H229109   6.727   5.152   0.036 -0.1113  0.6014  1.1319
 2492TIP3   OH229110   4.059   1.047   7.323 -0.6879  0.2196 -0.5880
 2492TIP3    H129111   4.121   0.984   7.284 -0.7908 -0.1442 -0.1641
 2492TIP3    H229112   3.973   1.014   7.299 -0.7657 -0.2885  0.3828
 2493TIP3   OH229113   2.437   0.478   2.566 -0.2037  0.3243 -0.8565
 2493TIP3    H129114   2.358   0.479   2.620 -0.1608  1.2848 -0.7817
 2493TIP3    H229115   2.449   0.387   2.542 -2.1361  0.3378 -2.0726
 2494TIP3   OH229116   4.517   4.361   8.072  0.2371  0.5543 -0.0495
 2494TIP3    H129117   4.552   4.278   8.105 -1.3700 -0.2080 -0.1507
 2494TIP3    H229118   4.480   4.339   7.987  0.8619  1.6598 -0.6256
 2495TIP3   OH229119   3.184   1.088   7.720 -0.2385  0.0634 -0.4492
 2495TIP3    H129120   3.106   1.063   7.769  1.1085  0.6573  2.1945
 2495TIP3    H229121   3.243   1.125   7.786  1.9017  0.5494 -2.4939
 2496TIP3   OH229122   5.578   3.492   8.118 -0.1703  0.6074  0.5417
 2496TIP3    H129123   5.673   3.494   8.107 -0.3136  1.3162 -0.9845
 2496TIP3    H229124   5.546   3.443   8.041 -1.1878  3.4420 -1.0059
 2497TIP3   OH229125   5.569   4.167   6.572  0.1126  0.2403  0.1370
 2497TIP3    H129126   5.503   4.236   6.566 -0.9721 -0.8903 -2.4736
 2497TIP3    H229127   5.531   4.093   6.525  2.3508 -1.2146  0.4642
 2498TIP3   OH229128   5.816   0.649   8.550  0.2744 -0.0607  0.1253
 2498TIP3    H129129   5.826   0.715   8.618 -3.4011  1.9193 -0.9882
 2498TIP3    H229130   5.777   0.574   8.594  2.1935 -0.6299  0.9480
 2499TIP3   OH229131   2.681   6.177   8.369  0.0163  0.7284  0.2815
 2499TIP3    H129132   2.632   6.259   8.375  3.1897  3.0172 -1.9987
 2499TIP3    H229133   2.662   6.144   8.281  0.5845  0.2828  0.3209
 2500TIP3   OH229134   5.429   4.519   1.716  0.5790 -0.0190 -0.4472
 2500TIP3    H129135   5.484   4.489   1.788  1.0411 -1.5387 -1.3849
 2500TIP3    H229136   5.454   4.464   1.642 -1.5909 -0.1513 -1.1472
 2501TIP3   OH229137   2.467   2.549   8.266 -0.6590 -0.1289  0.1610
 2501TIP3    H129138   2.509   2.564   8.181  1.2918 -1.0906  0.9038
 2501TIP3    H229139   2.402   2.481   8.248 -0.7320  0.1384 -0.6736
 2502TIP3   OH229140   0.973   2.677   8.637  0.0960  0.5256  0.2452
 2502TIP3    H129141   1.028   2.638   8.569  0.1778 -2.1157  1.7224
 2502TIP3    H229142   0.897   2.711   8.590  0.4125 -0.7120 -1.2310
 2503TIP3   OH229143   2.478   1.812   0.878  0.6977  0.2332 -0.1600
 2503TIP3    H129144   2.539   1.885   0.873 -0.1000  0.8809 -0.7812
 2503TIP3    H229145   2.507   1.752   0.809  1.0598  0.1940  0.0252
 2504TIP3   OH229146   2.216   0.789   7.257 -0.4060 -0.0777 -0.4192
 2504TIP3    H129147   2.189   0.840   7.181 -0.1758 -0.0657 -0.4959
 2504TIP3    H229148   2.213   0.850   7.330 -3.9464 -0.8690  0.2810
 2505TIP3   OH229149   3.895   5.788   7.636 -0.0603  0.3514  0.1147
 2505TIP3    H129150   3.911   5.702   7.673 -1.2399 -0.7034 -1.6532
 2505TIP3    H229151   3.920   5.850   7.705  1.0035 -1.3830  1.3442
 2506TIP3   OH229152   6.727   5.437   6.840  0.1770 -0.1261  0.4277
 2506TIP3    H129153   6.785   5.467   6.770 -0.3120  0.9298  0.4597
 2506TIP3    H229154   6.643   5.478   6.821 -0.2384 -0.6554  1.0726
 2507TIP3   OH229155   0.746   2.044   7.395  0.2019 -0.3419 -0.2195
 2507TIP3    H129156   0.776   2.134   7.403 -2.5381  0.5620  1.6360
 2507TIP3    H229157   0.689   2.044   7.318 -2.1937  0.4244  1.4253
 2508TIP3   OH229158   1.264   0.021   8.435  0.0629  0.1819  0.2811
 2508TIP3    H129159   1.196   0.075   8.395 -0.8272 -0.8723  0.3257
 2508TIP3    H229160   1.268  -0.057   8.380  0.9334  0.0304  0.5420
 2509TIP3   OH229161   2.578   0.186   8.056 -0.2255  0.0544  0.5187
 2509TIP3    H129162   2.579   0.091   8.053 -0.0592  0.0812 -1.4767
 2509TIP3    H229163   2.668   0.211   8.075 -0.1626 -0.1755  0.5221
 2510TIP3   OH229164   3.501   6.223   7.243 -0.7593  0.3293  0.5559
 2510TIP3    H129165   3.534   6.263   7.162 -0.9514  0.4840  0.5532
 2510TIP3    H229166   3.572   6.235   7.306 -0.9223  0.9263  0.6309
 2511TIP3   OH229167   4.622   4.938   8.414 -0.1338  0.1686  0.0317
 2511TIP3    H129168   4.570   4.861   8.437  0.9428 -0.5346  0.1327
 2511TIP3    H229169   4.638   4.929   8.320 -0.8312  0.7923 -0.1604
 2512TIP3   OH229170   2.444   3.663   1.309 -0.8298 -0.2601 -0.1885
 2512TIP3    H129171   2.480   3.706   1.387  0.4119 -0.1323 -0.7974
 2512TIP3    H229172   2.521   3.639   1.258 -1.5822 -1.4422 -0.8025
 2513TIP3   OH229173   4.732   3.832   1.104  0.0877 -0.1401 -0.1390
 2513TIP3    H129174   4.801   3.878   1.150  0.2696 -0.4622 -0.0883
 2513TIP3    H229175   4.707   3.760   1.162  1.4588 -1.5705 -1.2093
 2514TIP3   OH229176   2.918   1.330   1.496  0.2760 -0.7126 -0.3144
 2514TIP3    H129177   2.993   1.387   1.511  1.3051 -2.2315  0.5285
 2514TIP3    H229178   2.874   1.325   1.581  0.2670 -1.2906 -0.3541
 2515TIP3   OH229179   2.729   0.998   0.491  0.1499  0.1958 -0.1706
 2515TIP3    H129180   2.749   0.967   0.579 -0.0874 -2.6858 -1.0306
 2515TIP3    H229181   2.634   0.990   0.483  0.0042  1.7202 -0.3035
 2516TIP3   OH229182   0.721   5.933   7.909  0.2651  0.2264 -0.1624
 2516TIP3    H129183   0.709   5.902   7.999  1.0016 -1.3619 -0.5729
 2516TIP3    H229184   0.640   5.979   7.888 -0.3849 -0.3851  0.9199
 2517TIP3   OH229185   4.148   4.599   0.546 -0.2694 -0.0557 -0.5918
 2517TIP3    H129186   4.099   4.650   0.611  0.1837 -0.9017  0.4233
 2517TIP3    H229187   4.106   4.513   0.546  0.2418 -0.3099 -0.8520
 2518TIP3   OH229188   1.056   1.144   1.718 -0.3083 -0.2942 -0.3376
 2518TIP3    H129189   0.987   1.196   1.759  0.1358  0.4730 -0.5477
 2518TIP3    H229190   1.027   1.054   1.728 -0.0348 -0.1818  2.0236
 2519TIP3   OH229191   1.345   6.542   1.490 -0.1220 -0.0509 -0.2025
 2519TIP3    H129192   1.277   6.493   1.443  0.0237  0.5849 -1.0872
 2519TIP3    H229193   1.297   6.596   1.553 -0.4055  0.1161 -0.5637
 2520TIP3   OH229194   2.358   1.688   2.629 -0.0361  0.3818  0.2327
 2520TIP3    H129195   2.384   1.621   2.566  2.0310 -0.2853  1.7034
 2520TIP3    H229196   2.422   1.681   2.700 -1.2042  2.3081  1.5737
 2521TIP3   OH229197   3.316   3.362   7.657  0.5789 -0.2078 -0.9115
 2521TIP3    H129198   3.311   3.338   7.749  1.4848 -0.5668 -0.9499
 2521TIP3    H229199   3.305   3.279   7.610 -4.4469  0.3800 -1.3403
 2522TIP3   OH229200   1.571   5.596   8.029  0.0253  0.0270 -0.2231
 2522TIP3    H129201   1.571   5.644   7.946 -1.3785 -0.0891 -0.3164
 2522TIP3    H229202   1.504   5.529   8.017  0.4545 -0.5736  0.6885
 2523TIP3   OH229203   3.347   4.680   6.887  0.2162  0.2787 -0.6521
 2523TIP3    H129204   3.442   4.677   6.892  0.2221 -0.1502 -0.9694
 2523TIP3    H229205   3.326   4.635   6.805 -0.3741 -1.6789  0.4967
 2524TIP3   OH229206   6.030   1.545   7.761  0.4120  0.5301  0.1177
 2524TIP3    H129207   6.029   1.450   7.748 -1.5499  0.6046 -0.6707
 2524TIP3    H229208   6.054   1.581   7.676 -0.3023  0.7530  0.0009
 2525TIP3   OH229209   2.883   1.413   1.103 -0.4041 -0.2504 -0.3744
 2525TIP3    H129210   2.839   1.404   1.018  1.1790 -1.8879 -1.0862
 2525TIP3    H229211   2.886   1.324   1.138 -0.2672  0.2764  1.0179
 2526TIP3   OH229212   6.395   2.964   0.757  0.2083  0.6570 -0.7261
 2526TIP3    H129213   6.394   2.906   0.681  2.3737 -2.0668  1.1347
 2526TIP3    H229214   6.483   3.002   0.757  0.0404  1.0744  0.1054
 2527TIP3   OH229215   4.905   0.100   8.469  0.0077 -0.7363  0.2548
 2527TIP3    H129216   4.993   0.124   8.440  0.5488 -0.6615  1.8834
 2527TIP3    H229217   4.916   0.018   8.517 -0.7678 -0.6086  0.6778
 2528TIP3   OH229218   2.692   5.714   0.567  0.2336 -0.3345 -0.1240
 2528TIP3    H129219   2.614   5.769   0.577  0.2804 -0.3364  0.2556
 2528TIP3    H229220   2.661   5.625   0.580 -0.4085 -0.7424 -3.4611
 2529TIP3   OH229221   6.844   4.637   8.510  0.2267 -0.5274  0.1376
 2529TIP3    H129222   6.855   4.695   8.585 -0.7956 -2.5646  1.9902
 2529TIP3    H229223   6.901   4.563   8.528 -0.2974 -1.2213 -0.9224
 2530TIP3   OH229224   6.272   5.405   7.638 -0.5505  0.0562  0.3565
 2530TIP3    H129225   6.295   5.405   7.731  2.1750 -0.9389 -0.2276
 2530TIP3    H229226   6.278   5.313   7.612  0.6786  0.5516 -1.2229
 2531TIP3   OH229227   2.130   4.047   7.629  0.0815  0.6948 -0.0889
 2531TIP3    H129228   2.177   3.994   7.565  1.3008 -0.7018  1.8384
 2531TIP3    H229229   2.172   4.133   7.625  0.6005  0.4221 -0.6405
 2532TIP3   OH229230   3.628   4.112   2.095  0.2436 -0.4056 -0.2251
 2532TIP3    H129231   3.560   4.171   2.065 -0.0928 -0.1688  0.9671
 2532TIP3    H229232   3.689   4.167   2.144  0.0729 -0.9692  0.6603
 2533TIP3   OH229233   5.151   2.690   7.886 -0.0939  0.0454 -0.1652
 2533TIP3    H129234   5.113   2.618   7.836  1.9526 -1.4354  0.2772
 2533TIP3    H229235   5.169   2.653   7.972  2.5875  0.4754 -0.4509
 2534TIP3   OH229236   3.716   4.614   7.933 -0.0025  0.3938 -0.0111
 2534TIP3    H129237   3.792   4.612   7.874 -0.5156 -1.0893 -0.6803
 2534TIP3    H229238   3.642   4.629   7.875 -0.2560  1.9334  0.6507
 2535TIP3   OH229239   5.365   4.168   8.401  0.0900 -0.1437 -0.2117
 2535TIP3    H129240   5.310   4.245   8.383  1.8177  1.0598 -0.5546
 2535TIP3    H229241   5.450   4.204   8.426  0.6348 -1.9542  0.7314
 2536TIP3   OH229242   6.262   3.236   7.952  0.5335  0.3242 -1.1046
 2536TIP3    H129243   6.261   3.227   7.857 -0.4499 -1.8675 -0.9645
 2536TIP3    H229244   6.182   3.285   7.973  0.2752  0.0302 -1.3872
 2537TIP3   OH229245   6.884   0.634   0.803  0.4410  0.5672 -0.1492
 2537TIP3    H129246   6.929   0.707   0.760  0.3147  2.0678  2.1145
 2537TIP3    H229247   6.870   0.664   0.893 -2.5935 -0.9664  0.0014
 2538TIP3   OH229248   4.189   3.933   8.157  0.0354  0.1350 -0.3583
 2538TIP3    H129249   4.130   3.980   8.098 -1.4803 -2.1293 -0.7802
 2538TIP3    H229250   4.209   3.995   8.226  1.1849  2.6395 -2.7258
 2539TIP3   OH229251   2.776   2.729   1.311  0.2079  0.6117 -0.2662
 2539TIP3    H129252   2.760   2.645   1.355  1.2617  1.0496  0.9969
 2539TIP3    H229253   2.728   2.721   1.228 -2.9501  0.2137  1.4086
 2540TIP3   OH229254   0.721   0.005   8.372  0.0880 -0.1090 -0.2468
 2540TIP3    H129255   0.739  -0.047   8.451 -0.6696 -0.4257 -0.2786
 2540TIP3    H229256   0.631  -0.016   8.349  0.7225 -1.1013 -2.0099
 2541TIP3   OH229257   0.193   2.602   8.311 -0.1518 -0.2972  0.3672
 2541TIP3    H129258   0.222   2.644   8.392 -3.7321 -1.4779  2.4842
 2541TIP3    H229259   0.245   2.522   8.305  0.9437  0.3668  0.8466
 2542TIP3   OH229260   5.722   4.952   1.495 -0.4286 -0.5744  0.1414
 2542TIP3    H129261   5.755   5.023   1.550 -0.1732 -0.2416 -0.4342
 2542TIP3    H229262   5.629   4.946   1.518 -0.3595 -0.3422  0.4993
 2543TIP3   OH229263   4.386   6.546   0.285  0.1488  0.6837 -0.6803
 2543TIP3    H129264   4.425   6.613   0.229 -0.3706  1.1790 -0.4554
 2543TIP3    H229265   4.310   6.589   0.325  0.4147  0.2944  0.2751
 2544TIP3   OH229266   1.425   2.579   8.243 -0.1256 -0.4063 -0.2051
 2544TIP3    H129267   1.392   2.669   8.242 -0.9230 -0.6856 -1.6290
 2544TIP3    H229268   1.471   2.569   8.160  3.1718 -0.2274  1.4455
 2545TIP3   OH229269   0.084   4.078   6.445  0.8022  0.0936  0.0694
 2545TIP3    H129270   0.051   4.155   6.490 -0.2643  0.0846 -0.6314
 2545TIP3    H229271   0.164   4.107   6.401 -0.7374  1.4836 -2.0240
 2546TIP3   OH229272   2.085   2.670   8.028  0.2104 -0.5514 -0.2426
 2546TIP3    H129273   2.007   2.725   8.031  0.5507 -0.0288 -0.8297
 2546TIP3    H229274   2.158   2.732   8.017  0.7656 -0.9871  0.8058
 2547TIP3   OH229275   0.449   2.457   2.036 -0.3315 -0.2153 -0.2815
 2547TIP3    H129276   0.364   2.447   2.079 -1.4147 -1.1737 -2.4532
 2547TIP3    H229277   0.499   2.380   2.063 -0.3813  0.0210  0.5004
 2548TIP3   OH229278   5.134   2.234   7.830 -0.3551 -0.0497 -0.4375
 2548TIP3    H129279   5.070   2.276   7.772 -0.2595  0.3151 -0.2824
 2548TIP3    H229280   5.142   2.294   7.904 -0.2262 -0.3509 -0.2047
 2549TIP3   OH229281   2.310   3.257   8.523  0.1259 -0.4649 -0.1579
 2549TIP3    H129282   2.267   3.339   8.500  0.7512 -0.1570 -0.2503
 2549TIP3    H229283   2.260   3.190   8.477  0.7204  0.0450 -1.6088
 2550TIP3   OH229284   6.208   1.606   7.537  0.3265 -0.4296 -0.1589
 2550TIP3    H129285   6.198   1.699   7.513  0.3942 -0.5275 -0.5728
 2550TIP3    H229286   6.300   1.596   7.557  0.9457 -1.0326 -2.8888
 2551TIP3   OH229287   1.030   1.336   0.110  0.0661 -0.4817 -0.2926
 2551TIP3    H129288   1.118   1.313   0.140  0.4332  1.2846  0.1043
 2551TIP3    H229289   0.980   1.350   0.190  0.4275  2.0159 -0.4366
 2552TIP3   OH229290   0.960   0.158   8.405 -0.3217 -0.3557 -0.7406
 2552TIP3    H129291   0.945   0.210   8.327 -1.6572 -0.0721 -0.3127
 2552TIP3    H229292   0.927   0.071   8.384 -0.0449 -0.4707 -0.7165
 2553TIP3   OH229293   3.791   3.837   0.890 -0.1571  0.3318 -0.0373
 2553TIP3    H129294   3.784   3.742   0.898  0.1714  0.3517  0.5960
 2553TIP3    H229295   3.707   3.864   0.854 -1.3029  0.0292  2.1749
 2554TIP3   OH229296   5.081   3.353   0.703  0.0764  0.3865 -0.1168
 2554TIP3    H129297   5.110   3.439   0.672  0.8024  0.5166  0.8759
 2554TIP3    H229298   5.046   3.310   0.625  1.3932  0.8872 -1.0158
 2555TIP3   OH229299   2.897   2.782   6.972 -0.0118 -0.5057 -0.5931
 2555TIP3    H129300   2.991   2.761   6.971 -0.2824 -1.9235 -2.9051
 2555TIP3    H229301   2.887   2.851   6.906 -0.2676  1.7309  1.6364
 2556TIP3   OH229302   6.073   5.970   7.809 -0.1214 -0.3948  0.0585
 2556TIP3    H129303   6.055   5.923   7.728  0.9448 -0.8261  0.0474
 2556TIP3    H229304   6.168   5.986   7.806  0.3966 -2.4999  2.2642
 2557TIP3   OH229305   1.542   3.962   8.286 -0.0961 -0.3442  0.7429
 2557TIP3    H129306   1.464   3.965   8.230  0.3789 -0.9225  0.0252
 2557TIP3    H229307   1.534   4.040   8.342 -0.2266  0.6658 -0.6165
 2558TIP3   OH229308   2.763   3.684   0.516  0.4290  0.1820  0.8610
 2558TIP3    H129309   2.737   3.617   0.579  1.0552 -0.3972  0.5147
 2558TIP3    H229310   2.781   3.635   0.435 -0.3120  0.9027  0.2375
 2559TIP3   OH229311   1.659   4.126   0.887 -0.2372 -0.4883  0.3060
 2559TIP3    H129312   1.673   4.112   0.980 -1.3532  0.3757  0.6196
 2559TIP3    H229313   1.564   4.135   0.878 -0.1199 -0.2545 -0.8714
 2560TIP3   OH229314   5.049   5.931   7.750  0.2185 -0.2234 -0.2355
 2560TIP3    H129315   5.125   5.922   7.693 -0.8077  0.1807 -1.7343
 2560TIP3    H229316   4.982   5.874   7.711  0.4451 -2.5462  2.4435
 2561TIP3   OH229317   4.625   6.865   6.798  0.4226  0.0904  0.6558
 2561TIP3    H129318   4.709   6.833   6.832 -0.1359 -0.5705  1.4300
 2561TIP3    H229319   4.594   6.795   6.741 -0.1531 -0.1709  1.2823
 2562TIP3   OH229320   2.674   3.940   1.280  0.8346 -0.2792 -0.6223
 2562TIP3    H129321   2.634   4.005   1.223  1.0719 -0.5656 -1.1260
 2562TIP3    H229322   2.608   3.923   1.347  0.5583  0.0753 -0.8035
 2563TIP3   OH229323   3.361   0.672   1.251 -0.2522 -0.1023  0.0192
 2563TIP3    H129324   3.391   0.673   1.161  1.0586 -1.7299  0.3901
 2563TIP3    H229325   3.429   0.719   1.300 -1.6697  2.0781  0.0172
 2564TIP3   OH229326   2.591   1.845   8.582 -0.5855  0.6064  0.3114
 2564TIP3    H129327   2.519   1.826   8.522 -1.1974  0.7253  0.9989
 2564TIP3    H229328   2.607   1.938   8.572  0.5795  0.3066 -1.0331
 2565TIP3   OH229329   6.880   2.713   7.854  0.1556 -0.3974 -0.3905
 2565TIP3    H129330   6.897   2.633   7.804 -0.3707  0.1061 -1.4116
 2565TIP3    H229331   6.812   2.688   7.918  0.9186 -1.0763  0.1671
 2566TIP3   OH229332   6.297   1.683   6.776 -0.2339 -0.0265  0.2292
 2566TIP3    H129333   6.293   1.670   6.681  1.1098 -0.5896  0.2179
 2566TIP3    H229334   6.237   1.756   6.793 -0.6073 -0.0152 -1.0283
 2567TIP3   OH229335   5.834   5.895   6.514  0.2357  0.1127  0.6305
 2567TIP3    H129336   5.775   5.883   6.440  1.6336 -0.5523 -0.4184
 2567TIP3    H229337   5.777   5.893   6.591 -0.9712 -1.8987 -0.2530
 2568TIP3   OH229338   3.839   3.871   0.574 -0.7800 -0.0732 -0.3072
 2568TIP3    H129339   3.787   3.949   0.595 -1.5159 -1.0329  1.7373
 2568TIP3    H229340   3.848   3.826   0.658  0.8258 -1.4894 -1.1831
 2569TIP3   OH229341   5.355   0.412   0.892  0.5834  0.1618 -0.1982
 2569TIP3    H129342   5.267   0.450   0.897  0.0673 -0.9250 -0.5175
 2569TIP3    H229343   5.406   0.458   0.959 -0.4842  0.1693  0.6370
 2570TIP3   OH229344   0.656   0.772   8.185 -0.0677  0.0869 -1.1495
 2570TIP3    H129345   0.678   0.865   8.195  1.6717 -0.2644 -1.3889
 2570TIP3    H229346   0.573   0.762   8.232  0.1174  1.5979 -0.4322
 2571TIP3   OH229347   5.588   1.673   1.668  0.3622 -0.3553  0.0949
 2571TIP3    H129348   5.609   1.766   1.668  1.2861 -0.5434  0.6818
 2571TIP3    H229349   5.581   1.650   1.761 -0.1022 -0.8164 -0.0498
 2572TIP3   OH229350   5.679   4.146   1.053 -0.5963 -0.2857  0.4579
 2572TIP3    H129351   5.724   4.157   0.969 -2.9028  1.5947 -0.6614
 2572TIP3    H229352   5.749   4.133   1.116  1.1980 -3.6869 -1.8923
 2573TIP3   OH229353   3.380   1.245   0.720 -0.0906 -0.7145  0.2656
 2573TIP3    H129354   3.387   1.256   0.625  2.9785  1.2131  0.5855
 2573TIP3    H229355   3.368   1.334   0.754 -0.3920 -1.2965  1.7525
 2574TIP3   OH229356   4.278   1.539   0.047  0.8867 -0.5674  0.1741
 2574TIP3    H129357   4.283   1.634   0.060  0.3981 -0.4435 -0.5134
 2574TIP3    H229358   4.223   1.528  -0.031  2.9081 -1.3247 -1.2220
 2575TIP3   OH229359   1.697   4.441   8.047 -0.3338 -0.1469 -0.3301
 2575TIP3    H129360   1.776   4.394   8.074  0.5728  1.9206  0.8809
 2575TIP3    H229361   1.660   4.388   7.977  1.8616 -1.4555 -0.5963
 2576TIP3   OH229362   4.950   3.238   8.214  0.0343  0.0325 -0.6520
 2576TIP3    H129363   4.895   3.174   8.260 -0.3657  0.2900 -0.7622
 2576TIP3    H229364   5.036   3.197   8.209  0.0725 -0.0250  0.2808
 2577TIP3   OH229365   5.067   6.209   0.331  0.0389  0.0174  0.2961
 2577TIP3    H129366   5.077   6.161   0.249  1.0571  0.4751  0.1353
 2577TIP3    H229367   5.003   6.277   0.310 -0.5566 -0.5598  0.2082
 2578TIP3   OH229368   4.745   4.636   5.912 -0.5100 -0.4581  0.0948
 2578TIP3    H129369   4.830   4.644   5.956  1.5107  3.4817 -3.7353
 2578TIP3    H229370   4.688   4.695   5.962  1.1968  2.4432 -1.0899
 2579TIP3   OH229371   4.204   3.671   8.216 -0.0627  0.5876 -0.2492
 2579TIP3    H129372   4.199   3.766   8.205  1.8144  0.5502 -1.9955
 2579TIP3    H229373   4.294   3.649   8.193 -0.2418 -1.5464  0.9052
 2580TIP3   OH229374   2.375   5.299   1.882  0.0775 -0.6400 -0.1208
 2580TIP3    H129375   2.453   5.268   1.836  1.1895  0.1997  1.1144
 2580TIP3    H229376   2.398   5.388   1.910 -1.1935 -0.5083  0.5625
 2581TIP3   OH229377   2.536   2.566   6.740  0.1511 -0.0857  0.5580
 2581TIP3    H129378   2.455   2.602   6.774  0.2782  1.6145 -0.7685
 2581TIP3    H229379   2.594   2.642   6.731  1.2337 -0.9686 -0.2845
 2582TIP3   OH229380   1.707   1.943   1.964  0.9003  0.5904 -0.0689
 2582TIP3    H129381   1.666   1.980   2.042  0.6515  2.2131 -0.9174
 2582TIP3    H229382   1.685   2.005   1.894  0.9656 -0.9110 -1.4669
 2583TIP3   OH229383   6.736   3.948   2.368  0.2346  0.0335  0.3574
 2583TIP3    H129384   6.653   3.980   2.402  0.4300  1.7176 -0.6229
 2583TIP3    H229385   6.728   3.853   2.369 -2.0882  0.1595 -0.5921
 2584TIP3   OH229386   6.333   0.828   0.747 -0.3159  0.3992 -0.4764
 2584TIP3    H129387   6.381   0.747   0.730 -3.9236 -1.9693 -0.5851
 2584TIP3    H229388   6.334   0.875   0.664  1.1202  0.0900 -0.6554
 2585TIP3   OH229389   1.168   6.655   8.366  0.4460  0.2058 -0.0886
 2585TIP3    H129390   1.119   6.686   8.289  0.6731  0.4808 -0.1249
 2585TIP3    H229391   1.183   6.562   8.348  0.4987  0.2669 -0.3783
 2586TIP3   OH229392   5.225   2.125   7.539 -0.2475  0.6589 -0.5287
 2586TIP3    H129393   5.178   2.200   7.501  1.2353  2.0012  0.1527
 2586TIP3    H229394   5.233   2.148   7.632 -2.2203 -1.7019  0.3298
 2587TIP3   OH229395   0.609   2.273   7.309 -0.2459 -0.0144  0.0173
 2587TIP3    H129396   0.625   2.301   7.399 -2.3726  1.4372  0.0176
 2587TIP3    H229397   0.515   2.286   7.296 -0.1334 -0.9294 -2.1826
 2588TIP3   OH229398   4.322   4.233   6.402  0.6650 -0.0319  0.4124
 2588TIP3    H129399   4.380   4.170   6.360  2.2906  1.7390 -0.1590
 2588TIP3    H229400   4.249   4.243   6.341  0.6392 -0.9648  0.2792
 2589TIP3   OH229401   0.649   1.835   8.077  0.3658  0.2878  0.0636
 2589TIP3    H129402   0.553   1.840   8.080  0.3771  1.1112 -0.6973
 2589TIP3    H229403   0.675   1.837   8.169 -0.2280  3.4879  0.2898
 2590TIP3   OH229404   1.310   0.765   1.033 -1.0214 -0.0800 -0.4361
 2590TIP3    H129405   1.319   0.840   1.092  1.2369  0.2415 -1.0840
 2590TIP3    H229406   1.335   0.800   0.947  1.7277 -1.8512 -0.4943
 2591TIP3   OH229407   1.213   5.583   0.949  0.3846  0.3266 -0.2867
 2591TIP3    H129408   1.220   5.492   0.977  0.5545  0.8208  1.3863
 2591TIP3    H229409   1.147   5.581   0.879  0.6808 -1.1192 -0.5675
 2592TIP3   OH229410   1.584   2.058   0.074  0.4917  0.0731  0.1209
 2592TIP3    H129411   1.675   2.033   0.060  0.3042 -0.8016  0.4310
 2592TIP3    H229412   1.582   2.093   0.163  0.1115 -2.0226  0.9874
 2593TIP3   OH229413   6.871   0.648   6.334 -0.0819 -0.0152 -0.0601
 2593TIP3    H129414   6.958   0.645   6.375  0.0204  0.1456 -0.2657
 2593TIP3    H229415   6.839   0.558   6.341 -0.9893  0.4248  2.3391
 2594TIP3   OH229416   4.874   5.266   6.704  0.1086 -0.3892 -0.1248
 2594TIP3    H129417   4.897   5.176   6.726 -1.1008 -0.7502 -0.2496
 2594TIP3    H229418   4.874   5.312   6.788  0.9206 -0.4560 -0.0876
 2595TIP3   OH229419   4.502   2.283   0.444 -0.5694  0.2645  0.4142
 2595TIP3    H129420   4.584   2.253   0.484 -0.9885 -1.2088  0.2137
 2595TIP3    H229421   4.497   2.236   0.361 -0.9892  1.3340 -0.1891
 2596TIP3   OH229422   6.592   4.552   0.003 -0.6724 -0.4249  0.3737
 2596TIP3    H129423   6.634   4.474   0.040  0.9146 -0.8596 -2.0681
 2596TIP3    H229424   6.628   4.625   0.053 -0.2346 -1.0895  1.0510
 2597TIP3   OH229425   0.414   6.487   1.696 -0.1722 -0.4615  0.4670
 2597TIP3    H129426   0.437   6.397   1.722  1.9964  0.1188  0.7527
 2597TIP3    H229427   0.498   6.531   1.684 -1.1167  2.1254  2.3537
 2598TIP3   OH229428   2.968   2.971   0.356  0.4312  0.4382 -0.2997
 2598TIP3    H129429   2.905   2.975   0.284  0.6488 -1.2514 -0.6341
 2598TIP3    H229430   2.918   2.995   0.434 -0.4780 -0.2234 -0.6580
 2599TIP3   OH229431   0.528   3.959   1.284 -0.1273 -0.8197 -0.2694
 2599TIP3    H129432   0.536   4.004   1.199 -0.3091  0.5281  0.4047
 2599TIP3    H229433   0.438   3.974   1.311 -0.3344 -2.0135 -0.2251
 2600TIP3   OH229434   6.256   0.814   6.670 -0.5262 -0.1376 -0.4769
 2600TIP3    H129435   6.268   0.760   6.592  0.0494 -1.4670  0.5226
 2600TIP3    H229436   6.164   0.840   6.666 -0.7161 -0.8763 -1.1711
 2601TIP3   OH229437   3.028   5.140   0.080 -0.2207  0.1407  0.1283
 2601TIP3    H129438   2.970   5.216   0.086 -0.1101  0.5876 -2.8084
 2601TIP3    H229439   2.969   5.065   0.080 -0.6239  0.4448 -0.2506
 2602TIP3   OH229440   4.278   1.355   7.402 -0.2696  0.6324 -0.5139
 2602TIP3    H129441   4.293   1.366   7.308 -1.1392 -1.3300 -0.9349
 2602TIP3    H229442   4.182   1.360   7.412 -0.1431  1.7264  0.4367
 2603TIP3   OH229443   2.863   3.883   8.149 -0.7868 -0.0724  0.6855
 2603TIP3    H129444   2.793   3.823   8.123 -0.5749 -0.8235  1.7574
 2603TIP3    H229445   2.897   3.917   8.066 -1.9373 -0.2402  0.1228
 2604TIP3   OH229446   0.309   1.296   7.876  0.7918  0.7204  0.2408
 2604TIP3    H129447   0.381   1.347   7.839  0.9011  1.4660  1.4242
 2604TIP3    H229448   0.263   1.358   7.933  0.1388 -0.1637  0.6926
 2605TIP3   OH229449   3.806   1.922   7.768 -0.1421 -0.1881  0.7064
 2605TIP3    H129450   3.803   1.888   7.857 -1.7520 -2.8460 -0.2264
 2605TIP3    H229451   3.873   1.870   7.724  0.5945  1.0544  0.3011
 2606TIP3   OH229452   1.606   2.102   7.723 -0.0686  0.6245  0.2281
 2606TIP3    H129453   1.516   2.069   7.716  0.2389  0.0446 -1.2241
 2606TIP3    H229454   1.644   2.052   7.795 -0.8258  0.6979  0.6948
 2607TIP3   OH229455   3.220   6.417   8.199 -0.8219 -0.4473  0.0380
 2607TIP3    H129456   3.295   6.473   8.177 -1.7563  1.4125  1.2741
 2607TIP3    H229457   3.252   6.362   8.271 -0.1714 -0.8345 -0.5378
 2608TIP3   OH229458   0.890   1.480   1.549  0.4202 -0.1126 -0.0391
 2608TIP3    H129459   0.876   1.537   1.473 -0.3386  0.0990  0.2480
 2608TIP3    H229460   0.854   1.396   1.524  0.7197 -0.2147 -0.1316
 2609TIP3   OH229461   4.764   6.509   0.592  0.5740  0.0221  0.0969
 2609TIP3    H129462   4.702   6.462   0.536  0.2945  1.5903 -0.9577
 2609TIP3    H229463   4.844   6.514   0.541  1.0944 -0.5930  0.8206
 2610TIP3   OH229464   5.904   4.525   2.764 -0.0308  0.0648 -1.2160
 2610TIP3    H129465   5.995   4.497   2.753  0.6669  0.7698  1.8607
 2610TIP3    H229466   5.910   4.618   2.786 -1.3879 -0.0597 -0.1840
 2611TIP3   OH229467   4.428   3.585   2.145 -0.3437 -0.0070  0.2130
 2611TIP3    H129468   4.393   3.518   2.205  0.9324 -0.2067  0.7617
 2611TIP3    H229469   4.438   3.663   2.200  1.3659 -0.3487  0.4311
 2612TIP3   OH229470   0.131   2.024   7.958  0.3869  0.1814  0.0216
 2612TIP3    H129471   0.218   2.015   7.920  0.2390 -0.5032 -0.1714
 2612TIP3    H229472   0.105   2.114   7.937  2.0642  1.2842  2.2800
 2613TIP3   OH229473   1.733   5.763   8.575  0.2638 -0.0162  0.0939
 2613TIP3    H129474   1.704   5.688   8.626  2.1644 -2.4089 -2.0765
 2613TIP3    H229475   1.826   5.774   8.598  0.9585 -0.6698 -2.1055
 2614TIP3   OH229476   0.886   5.429   7.903  0.0351  0.2390 -0.4129
 2614TIP3    H129477   0.879   5.522   7.883 -0.2197  0.3989  0.3537
 2614TIP3    H229478   0.816   5.388   7.853 -0.7798  0.6608  0.3476
 2615TIP3   OH229479   4.884   4.746   7.242  0.2109 -0.1084 -0.2435
 2615TIP3    H129480   4.972   4.716   7.262  0.2404 -0.3849 -0.7899
 2615TIP3    H229481   4.865   4.811   7.310  0.3873 -0.8785  0.5616
 2616TIP3   OH229482   1.339   4.395   7.856 -0.1192 -0.3778 -0.1115
 2616TIP3    H129483   1.295   4.350   7.928  1.0198 -0.0317  0.8237
 2616TIP3    H229484   1.414   4.340   7.835  0.9210  0.7073  0.6164
 2617TIP3   OH229485   4.663   3.376   1.618  0.3181  0.7905  0.4091
 2617TIP3    H129486   4.758   3.379   1.605  0.2668 -0.3602 -0.4853
 2617TIP3    H229487   4.647   3.288   1.652 -0.3619  1.2452  1.2849
 2618TIP3   OH229488   6.534   4.600   1.312  0.2338 -1.0905  0.2522
 2618TIP3    H129489   6.561   4.613   1.403 -1.7520 -1.6836  0.9632
 2618TIP3    H229490   6.557   4.509   1.294  0.3814 -1.0505  0.2327
 2619TIP3   OH229491   3.970   5.764   1.815  0.1844  0.6151 -0.7321
 2619TIP3    H129492   3.991   5.857   1.814  0.3374  0.5996  0.2583
 2619TIP3    H229493   3.875   5.760   1.828  0.0605  0.6365 -1.5867
 2620TIP3   OH229494   5.039   1.132   7.975 -0.4441  0.2188 -0.0923
 2620TIP3    H129495   5.117   1.091   8.013 -0.1979 -0.2102 -1.0403
 2620TIP3    H229496   4.990   1.059   7.936 -2.0194  0.2723  1.6309
 2621TIP3   OH229497   1.420   6.571   6.411  0.2027 -0.1045 -0.1823
 2621TIP3    H129498   1.498   6.553   6.463 -0.1826  1.0493  0.8316
 2621TIP3    H229499   1.442   6.651   6.362 -0.4487  0.3964  0.3402
 2622TIP3   OH229500   4.208   2.888   7.837  0.4861 -0.0678 -0.1677
 2622TIP3    H129501   4.141   2.907   7.771  0.3347 -0.2111 -0.0581
 2622TIP3    H229502   4.203   2.962   7.898  0.6211  0.0609 -0.3113
 2623TIP3   OH229503   1.754   0.826   1.991  0.4831  0.2473 -0.3637
 2623TIP3    H129504   1.710   0.743   2.009  1.6909 -0.0854  1.3385
 2623TIP3    H229505   1.834   0.801   1.944  0.8290  0.4290  0.1164
 2624TIP3   OH229506   2.814   2.534   2.107 -0.1373 -0.2215  0.4301
 2624TIP3    H129507   2.802   2.443   2.131  0.3638 -0.6374 -0.8362
 2624TIP3    H229508   2.909   2.544   2.096 -0.1647  0.5186  0.8007
 2625TIP3   OH229509   2.229   3.183   0.899  0.1231  0.1593 -0.4411
 2625TIP3    H129510   2.192   3.270   0.885 -0.0552  0.6514  2.4240
 2625TIP3    H229511   2.208   3.162   0.990 -0.3035 -3.1480 -1.1675
 2626TIP3   OH229512   4.656   6.642   1.433 -0.4037  0.2772 -0.0326
 2626TIP3    H129513   4.711   6.697   1.489  0.2082  0.5904 -0.9139
 2626TIP3    H229514   4.712   6.568   1.409 -0.4418  0.4628 -0.7246
 2627TIP3   OH229515   4.939   4.606   6.081 -0.1213  0.8108  0.0196
 2627TIP3    H129516   4.997   4.673   6.120 -0.5419  0.8819  0.5322
 2627TIP3    H229517   4.984   4.524   6.097  2.4010  1.1343 -4.0003
 2628TIP3   OH229518   0.293   1.452   1.176 -0.0600  0.4018 -0.4090
 2628TIP3    H129519   0.355   1.423   1.243 -0.3089  2.6489  0.8716
 2628TIP3    H229520   0.207   1.427   1.211 -0.0830  0.0137 -0.7373
 2629TIP3   OH229521   5.056   0.060   0.946  0.0375 -0.4481  0.1993
 2629TIP3    H129522   4.983   0.117   0.922  0.0399 -0.0778  1.0548
 2629TIP3    H229523   5.044  -0.018   0.892 -0.1985  0.1859 -0.6897
 2630TIP3   OH229524   2.909   6.262   0.185 -0.0857  0.2670  0.0826
 2630TIP3    H129525   2.992   6.218   0.168 -0.4106  0.4876 -2.4174
 2630TIP3    H229526   2.907   6.335   0.123 -2.0770  0.3552  0.1836
 2631TIP3   OH229527   0.759   0.380   0.855  0.0331 -0.3380 -0.2112
 2631TIP3    H129528   0.698   0.409   0.923 -1.4873  0.3089 -1.7946
 2631TIP3    H229529   0.773   0.287   0.873  0.5241  0.0492  1.5974
 2632TIP3   OH229530   1.280   3.635   7.207  0.9530 -0.0757  0.3631
 2632TIP3    H129531   1.215   3.701   7.233  0.7768  0.3321 -1.0236
 2632TIP3    H229532   1.236   3.551   7.220 -0.1969  0.2111 -1.2859
 2633TIP3   OH229533   3.447   6.201   8.174  0.6030 -0.3047 -0.1778
 2633TIP3    H129534   3.535   6.229   8.148  0.3954  0.1364 -0.4340
 2633TIP3    H229535   3.414   6.152   8.099  1.1702 -1.7391  0.4845
 2634TIP3   OH229536   4.427   5.031   7.256  0.6048 -0.0728 -0.3631
 2634TIP3    H129537   4.485   4.973   7.207  0.0693 -1.5702  0.6801
 2634TIP3    H229538   4.456   5.022   7.347  0.4866  1.3099 -0.1674
 2635TIP3   OH229539   0.086   0.151   0.333  0.3746  0.0739 -0.1490
 2635TIP3    H129540   0.177   0.143   0.307  1.2911 -2.5498  3.2549
 2635TIP3    H229541   0.086   0.218   0.402  0.0427 -0.9903  0.9127
 2636TIP3   OH229542   2.809   1.724   8.338 -0.3295  0.5027 -0.1939
 2636TIP3    H129543   2.767   1.792   8.286  0.7307  0.5997 -0.9587
 2636TIP3    H229544   2.744   1.655   8.345 -0.8311  0.9066 -0.8055
 2637TIP3   OH229545   2.826   3.769   0.891  0.1807  0.0091 -0.1954
 2637TIP3    H129546   2.875   3.705   0.943 -0.2087  1.5664  2.2731
 2637TIP3    H229547   2.737   3.735   0.890 -0.4731  1.2756  2.7885
 2638TIP3   OH229548   2.812   5.137   8.364  0.5692 -0.2541  0.8821
 2638TIP3    H129549   2.794   5.222   8.405  2.2327  0.3873  0.3733
 2638TIP3    H229550   2.812   5.155   8.270 -0.8847 -1.2307  0.6648
 2639TIP3   OH229551   5.565   4.075   8.223  0.0087  0.3479  0.2447
 2639TIP3    H129552   5.585   3.982   8.215  2.0442  0.6450  1.3853
 2639TIP3    H229553   5.476   4.078   8.259  0.2475 -1.1755  1.0124
 2640TIP3   OH229554   6.076   4.536   0.187 -0.4893 -0.5737  0.5594
 2640TIP3    H129555   6.139   4.584   0.133  0.3261 -1.4699  0.6718
 2640TIP3    H229556   5.993   4.582   0.175 -0.0446  0.0007 -0.4401
 2641TIP3   OH229557   2.777   5.461   7.871  0.4617  0.1107  0.1053
 2641TIP3    H129558   2.861   5.494   7.841  0.9474  0.4228  1.7131
 2641TIP3    H229559   2.784   5.365   7.864  0.2892  0.1811 -1.3722
 2642TIP3   OH229560   4.052   4.809   7.944 -0.2249  0.3824  0.0650
 2642TIP3    H129561   4.028   4.873   8.011  0.8970  0.4730  0.4015
 2642TIP3    H229562   4.130   4.767   7.978 -0.4424 -0.5648 -0.5577
 2643TIP3   OH229563   5.353   6.174   0.593  0.4008  0.1868 -0.0300
 2643TIP3    H129564   5.293   6.106   0.562  2.1822 -1.8727  0.7863
 2643TIP3    H229565   5.325   6.253   0.547 -0.8601 -1.3890 -2.1747
 2644TIP3   OH229566   1.669   0.639   1.064 -0.2503  0.6234 -0.3442
 2644TIP3    H129567   1.692   0.608   0.976  0.6451 -1.2157  0.4684
 2644TIP3    H229568   1.740   0.700   1.087  0.7943 -0.6436 -0.0612
 2645TIP3   OH229569   6.493   4.809   6.182  0.6806  0.5436  0.2011
 2645TIP3    H129570   6.453   4.874   6.240  0.9055 -0.4398  1.4869
 2645TIP3    H229571   6.493   4.852   6.096 -0.4006  1.7208  0.7416
 2646TIP3   OH229572   2.283   0.167   0.486  0.4079  0.0328 -0.0116
 2646TIP3    H129573   2.373   0.144   0.510 -0.2596 -1.6059  1.1735
 2646TIP3    H229574   2.265   0.247   0.534  1.1087  0.1594  0.0522
 2647TIP3   OH229575   1.901   4.856   0.482 -0.1975  0.7963 -0.5431
 2647TIP3    H129576   1.939   4.779   0.524 -0.0805  1.1891  0.0787
 2647TIP3    H229577   1.852   4.900   0.551 -0.2104  1.3158 -0.8775
 2648TIP3   OH229578   2.716   6.462   8.197 -0.3537 -0.4472  0.2775
 2648TIP3    H129579   2.721   6.396   8.128 -2.2498  1.3038 -1.6421
 2648TIP3    H229580   2.635   6.442   8.243 -0.0864 -0.4134  0.7726
 2649TIP3   OH229581   6.396   4.427   6.298 -0.0879 -0.1556  0.9580
 2649TIP3    H129582   6.416   4.340   6.332 -0.4346 -0.0098  1.5457
 2649TIP3    H229583   6.304   4.441   6.320  0.0637  0.5010  1.1834
 2650TIP3   OH229584   6.693   3.353   6.748  0.4365 -0.6599  0.1465
 2650TIP3    H129585   6.716   3.371   6.657 -0.7246 -3.1719 -0.7494
 2650TIP3    H229586   6.600   3.331   6.746  0.5729 -1.6031  1.7890
 2651TIP3   OH229587   4.053   6.187   8.310 -0.3261  0.3066  0.3395
 2651TIP3    H129588   3.999   6.236   8.247 -0.1425  0.4199  0.2704
 2651TIP3    H229589   3.989   6.147   8.369 -0.5970 -1.0686 -0.8300
 2652TIP3   OH229590   5.874   3.613   2.667 -0.4338 -0.1007 -0.1116
 2652TIP3    H129591   5.792   3.564   2.676 -0.1722 -0.9934 -2.0790
 2652TIP3    H229592   5.850   3.693   2.622  0.1545 -2.0019 -4.2284
 2653TIP3   OH229593   6.052   1.170   8.183 -0.0776  0.2221 -1.0188
 2653TIP3    H129594   6.079   1.181   8.092 -2.5264 -0.5662 -1.9382
 2653TIP3    H229595   6.018   1.080   8.187 -2.1739  1.0026  0.0148
 2654TIP3   OH229596   2.196   3.487   0.156 -0.2437 -0.2542 -0.4541
 2654TIP3    H129597   2.282   3.472   0.194 -0.2970  2.7841  1.2045
 2654TIP3    H229598   2.208   3.560   0.096 -1.2751 -1.3008 -2.0079
 2655TIP3   OH229599   6.737   4.960   7.150 -0.1226 -0.3877  0.0865
 2655TIP3    H129600   6.798   4.951   7.224 -0.7153 -0.0648  0.6185
 2655TIP3    H229601   6.717   5.054   7.147  0.6929 -0.2244 -1.1385
 2656TIP3   OH229602   0.149   1.177   0.500 -0.7284  0.0387 -0.0930
 2656TIP3    H129603   0.223   1.208   0.448 -1.1784  1.0175 -0.1805
 2656TIP3    H229604   0.075   1.177   0.440 -0.5598 -2.2953 -0.3878
 2657TIP3   OH229605   4.094   3.445   2.052 -0.2877 -0.0970 -0.0716
 2657TIP3    H129606   4.176   3.425   2.006  0.6792  0.9256  1.1129
 2657TIP3    H229607   4.089   3.378   2.121 -1.3572 -1.1904 -1.1792
 2658TIP3   OH229608   4.931   4.993   7.355 -0.7620 -0.9205 -0.1226
 2658TIP3    H129609   4.991   5.062   7.384 -0.9047 -0.8629  0.0331
 2658TIP3    H229610   4.854   5.040   7.323  0.1193 -0.8786 -2.3448
 2659TIP3   OH229611   1.246   0.251   0.875  0.5370 -0.2279  0.3934
 2659TIP3    H129612   1.298   0.306   0.817  0.1649  0.1392  0.4050
 2659TIP3    H229613   1.187   0.312   0.920  0.0270 -0.6503  0.3080
 2660TIP3   OH229614   1.160   3.694   0.578  0.0191 -0.7577 -0.2361
 2660TIP3    H129615   1.116   3.673   0.660  0.0515 -0.1925 -0.0739
 2660TIP3    H229616   1.169   3.789   0.578  0.7039 -0.8145 -0.5469
 2661TIP3   OH229617   0.091   6.733   1.243 -0.1553  0.0651  0.6248
 2661TIP3    H129618   0.017   6.700   1.295 -0.0885  0.4361  0.9583
 2661TIP3    H229619   0.166   6.682   1.274 -0.4868 -1.2364 -0.6277
 2662TIP3   OH229620   3.881   4.589   6.778  0.0964  0.6299 -0.1017
 2662TIP3    H129621   3.807   4.649   6.786  1.2729  2.0753  0.5004
 2662TIP3    H229622   3.869   4.547   6.694 -1.1393  1.2015 -0.2388
 2663TIP3   OH229623   3.483   0.964   7.138  0.1749  0.2260 -0.2624
 2663TIP3    H129624   3.458   0.876   7.166 -0.2774 -0.1132 -1.6655
 2663TIP3    H229625   3.558   0.950   7.081  0.2792  0.7871 -0.2693
 2664TIP3   OH229626   2.990   5.022   0.453 -0.1592 -0.2218 -0.1404
 2664TIP3    H129627   3.041   5.034   0.373  1.5821  0.2650  0.9907
 2664TIP3    H229628   3.010   5.099   0.506 -1.0760 -0.6603  0.8712
 2665TIP3   OH229629   5.801   1.099   1.423 -0.2999  0.1285 -0.3738
 2665TIP3    H129630   5.860   1.173   1.414  0.5006 -0.5247 -0.6866
 2665TIP3    H229631   5.763   1.108   1.510 -0.1746  0.8705 -0.3948
 2666TIP3   OH229632   4.574   6.567   7.539 -0.4087  0.5611 -0.8715
 2666TIP3    H129633   4.600   6.619   7.462  0.5611  1.0493 -0.2300
 2666TIP3    H229634   4.519   6.497   7.503  1.6858 -0.4492 -2.3136
 2667TIP3   OH229635   3.771   4.049   7.515  0.5303 -0.2091  0.3309
 2667TIP3    H129636   3.695   4.005   7.553  0.4210 -0.5636 -0.2714
 2667TIP3    H229637   3.777   4.012   7.427 -0.6812  2.3152 -0.9171
 2668TIP3   OH229638   0.365   0.205   1.397 -0.0549  0.4826 -0.3320
 2668TIP3    H129639   0.293   0.259   1.364  1.2375  3.0533  0.7809
 2668TIP3    H229640   0.359   0.213   1.492  0.2287 -1.3481 -0.1284
 2669TIP3   OH229641   5.230   3.933   2.837  0.0234 -0.0072  0.0681
 2669TIP3    H129642   5.281   3.872   2.783  0.2922  1.2910 -1.2128
 2669TIP3    H229643   5.182   3.877   2.897  1.1409 -1.4143 -0.2878
 2670TIP3   OH229644   2.592   6.033   0.783 -0.3166 -0.4179 -0.1083
 2670TIP3    H129645   2.551   5.958   0.826  0.0879 -1.1288 -0.9406
 2670TIP3    H229646   2.574   6.020   0.690 -0.1964  0.4965 -0.2661
 2671TIP3   OH229647   6.606   5.550   8.485 -0.3126 -0.3594 -0.0958
 2671TIP3    H129648   6.553   5.628   8.469  0.9041  0.2054 -1.6137
 2671TIP3    H229649   6.679   5.582   8.539 -1.8733 -1.3169  2.8273
 2672TIP3   OH229650   3.685   3.889   6.535 -0.0887  0.3963 -0.0126
 2672TIP3    H129651   3.705   3.952   6.465 -0.5796  0.7744  0.1818
 2672TIP3    H229652   3.740   3.813   6.515 -1.3912 -0.1499 -1.7356
 2673TIP3   OH229653   6.036   4.635   2.040 -0.5120  0.9272  0.2503
 2673TIP3    H129654   6.072   4.607   1.956  1.4315  2.2638  0.5500
 2673TIP3    H229655   6.110   4.627   2.101 -1.6863  0.6529  1.6783
 2674TIP3   OH229656   5.711   5.829   6.753 -0.1459 -0.3063  0.0438
 2674TIP3    H129657   5.727   5.913   6.796 -0.6476 -1.2355  2.1888
 2674TIP3    H229658   5.637   5.791   6.801 -0.6315 -1.5263 -1.5726
 2675TIP3   OH229659   2.093   1.047   1.158  0.4165 -0.0537 -0.5247
 2675TIP3    H129660   2.153   1.117   1.184  0.4104 -0.7300  1.5443
 2675TIP3    H229661   2.006   1.085   1.165  0.4659  0.0615 -0.5393
 2676TIP3   OH229662   6.571   1.361   8.505  0.3288  0.5218 -0.3897
 2676TIP3    H129663   6.501   1.426   8.505  0.0518  0.3018 -2.5097
 2676TIP3    H229664   6.640   1.400   8.559 -0.6255  1.6406  0.0752
 2677TIP3   OH229665   5.398   5.016   8.304  0.1990 -0.0284 -0.4048
 2677TIP3    H129666   5.472   5.068   8.272 -0.0380  1.0213  0.6913
 2677TIP3    H229667   5.361   4.977   8.225  3.0438 -2.1856 -0.8086
 2678TIP3   OH229668   2.411   5.939   8.666 -0.1041  1.1517  0.5016
 2678TIP3    H129669   2.371   5.853   8.678 -1.0000  1.7683  2.2804
 2678TIP3    H229670   2.427   5.946   8.572  1.1195 -1.4317  0.4353
 2679TIP3   OH229671   3.636   4.741   7.687 -0.2996 -0.1987 -0.3218
 2679TIP3    H129672   3.668   4.815   7.739  0.1463 -1.7166  1.6712
 2679TIP3    H229673   3.545   4.764   7.666 -0.6004  0.3298  1.4148
 2680TIP3   OH229674   6.177   6.758   0.536 -0.7227  0.6975 -0.2054
 2680TIP3    H129675   6.234   6.695   0.493 -2.1592  1.3503 -3.3144
 2680TIP3    H229676   6.234   6.803   0.599  1.5363 -0.3282 -1.3997
 2681TIP3   OH229677   4.524   3.849   0.481 -0.3718 -0.2342 -0.5256
 2681TIP3    H129678   4.498   3.837   0.573  1.5574  0.1092  0.1047
 2681TIP3    H229679   4.536   3.760   0.448 -0.3205 -0.3445 -0.2163
 2682TIP3   OH229680   6.603   6.636   0.170  0.2071 -0.3133 -0.3644
 2682TIP3    H129681   6.681   6.589   0.198 -1.7060 -2.3932  1.8529
 2682TIP3    H229682   6.628   6.729   0.175  2.3642 -0.8930  0.6923
 2683TIP3   OH229683   0.786   5.833   6.732  0.4878  0.1057  0.8498
 2683TIP3    H129684   0.759   5.772   6.663 -0.4095  0.8427  0.5476
 2683TIP3    H229685   0.878   5.809   6.749  0.0316 -1.6465  1.0751
 2684TIP3   OH229686   0.963   0.064   2.152 -0.0015 -0.3552  0.5796
 2684TIP3    H129687   0.896   0.107   2.205 -0.3485 -1.6596  1.2590
 2684TIP3    H229688   0.994  -0.008   2.207  0.4690 -1.0476 -0.5477
 2685TIP3   OH229689   6.370   1.522   1.033 -0.5669 -0.1956 -0.1946
 2685TIP3    H129690   6.332   1.517   0.945  0.0051  1.0718 -0.5288
 2685TIP3    H229691   6.366   1.615   1.056  0.8114 -0.2750  0.4414
 2686TIP3   OH229692   3.519   1.268   1.811 -0.2894  0.6708 -0.6083
 2686TIP3    H129693   3.466   1.347   1.809 -0.3407  0.6522 -0.0899
 2686TIP3    H229694   3.588   1.287   1.875 -0.3512  0.2663 -0.4207
 2687TIP3   OH229695   5.300   3.780   7.153  0.3395 -0.0664  0.0006
 2687TIP3    H129696   5.333   3.840   7.220 -1.5376  0.3177  0.6463
 2687TIP3    H229697   5.218   3.820   7.124 -0.2158 -1.5971 -0.6085
 2688TIP3   OH229698   3.532   3.165   1.728  0.6345  0.6185 -0.3835
 2688TIP3    H129699   3.597   3.111   1.682  0.9758 -0.5554  1.3985
 2688TIP3    H229700   3.575   3.190   1.809 -1.5019 -1.2069  1.4376
 2689TIP3   OH229701   5.097   3.094   1.771  0.4465  0.3136 -0.2504
 2689TIP3    H129702   5.143   3.071   1.690  0.4314  1.2383 -0.5378
 2689TIP3    H229703   5.156   3.067   1.841  0.1242 -1.2061 -0.5419
 2690TIP3   OH229704   0.496   6.489   8.054 -0.4527 -0.2777 -0.1888
 2690TIP3    H129705   0.533   6.414   8.101 -1.4695  0.1899  1.4339
 2690TIP3    H229706   0.433   6.451   7.993  0.6908 -0.8741 -1.0368
 2691TIP3   OH229707   5.990   3.183   2.318 -0.1433 -0.4093  0.2896
 2691TIP3    H129708   6.064   3.212   2.266 -0.9076 -0.2591 -0.7459
 2691TIP3    H229709   5.963   3.261   2.367  0.3746 -0.4712  0.6890
 2692TIP3   OH229710   4.950   4.452   1.548  0.1968 -0.6345 -0.4692
 2692TIP3    H129711   4.924   4.361   1.532 -1.5840 -0.6824  2.0977
 2692TIP3    H229712   5.019   4.445   1.614 -1.7400 -0.1572  1.7447
 2693TIP3   OH229713   3.552   5.871   0.317  0.3848  0.3622 -0.4121
 2693TIP3    H129714   3.550   5.902   0.408  0.1788  0.5974 -0.4946
 2693TIP3    H229715   3.466   5.830   0.304 -0.2957  1.8790 -1.0235
 2694TIP3   OH229716   6.054   4.789   2.409 -0.2626 -0.6018  0.1799
 2694TIP3    H129717   6.101   4.710   2.381 -0.0896 -0.7344  0.8317
 2694TIP3    H229718   6.013   4.822   2.329 -1.0585 -1.8401  0.0559
 2695TIP3   OH229719   0.634   5.379   6.874  0.2296  0.4544  0.4179
 2695TIP3    H129720   0.599   5.468   6.876  0.7408  0.6999 -0.8957
 2695TIP3    H229721   0.612   5.347   6.787  2.2855  0.2221 -0.0483
 2696TIP3   OH229722   0.559   5.954   7.611  0.1441  0.2464  0.3606
 2696TIP3    H129723   0.512   6.024   7.567  1.3138 -0.3452 -2.0006
 2696TIP3    H229724   0.647   5.989   7.624  0.1262 -0.0083  1.2280
 2697TIP3   OH229725   4.906   3.126   0.845 -0.3102 -0.4907  0.0088
 2697TIP3    H129726   4.879   3.085   0.763 -1.0068 -0.4650  0.2254
 2697TIP3    H229727   4.954   3.204   0.817 -0.9327 -0.2380 -0.3745
 2698TIP3   OH229728   5.931   6.208   7.921  0.4471  0.4960 -0.0272
 2698TIP3    H129729   5.916   6.277   7.857  1.4633 -0.4131 -1.2877
 2698TIP3    H229730   5.989   6.146   7.877 -1.4214 -1.8333  0.5472
 2699TIP3   OH229731   6.884   3.379   8.585  0.2332 -0.2882  0.0290
 2699TIP3    H129732   6.952   3.427   8.540 -0.9465 -0.2171 -1.7602
 2699TIP3    H229733   6.869   3.301   8.532 -0.4349 -0.7774  0.8900
 2700TIP3   OH229734   0.927   1.830   7.415  0.3247 -0.3510 -0.3952
 2700TIP3    H129735   0.897   1.751   7.370 -0.5020 -1.1180  1.4128
 2700TIP3    H229736   0.854   1.891   7.408  0.3468 -0.3267 -0.4160
 2701TIP3   OH229737   3.130   6.105   8.321 -0.0910 -0.4124 -0.4909
 2701TIP3    H129738   3.194   6.036   8.338 -0.3535 -0.3207  0.9227
 2701TIP3    H229739   3.082   6.115   8.403  1.3498  2.9540  0.0840
 2702TIP3   OH229740   4.858   4.845   7.567  0.2209  0.2616  0.1202
 2702TIP3    H129741   4.885   4.894   7.490  0.1924 -0.1133 -0.1311
 2702TIP3    H229742   4.785   4.792   7.537 -0.1155  0.4839  0.5318
 2703TIP3   OH229743   1.002   0.321   0.647  0.0457 -0.3669 -0.2674
 2703TIP3    H129744   1.015   0.227   0.653  1.2854 -0.1276  1.7702
 2703TIP3    H229745   1.088   0.359   0.663 -0.2229  1.1481 -1.9614
 2704TIP3   OH229746   1.847   6.571   1.129 -0.6170  0.4265  0.1507
 2704TIP3    H129747   1.762   6.534   1.155 -1.8731  2.9358 -0.0903
 2704TIP3    H229748   1.888   6.597   1.211 -0.3581 -0.1521  0.2137
 2705TIP3   OH229749   4.275   5.748   2.184 -0.6327 -0.6109 -0.0660
 2705TIP3    H129750   4.369   5.730   2.189 -0.5687 -0.3688 -0.3747
 2705TIP3    H229751   4.265   5.804   2.107 -1.0755 -0.9212 -0.2366
 2706TIP3   OH229752   3.348   0.548   7.691  0.1954  0.0798  0.0516
 2706TIP3    H129753   3.333   0.549   7.785 -0.2001  1.0229 -0.0140
 2706TIP3    H229754   3.397   0.628   7.673  0.4078 -0.1691 -0.5308
 2707TIP3   OH229755   0.843   3.851   7.122 -0.6512 -0.2707  0.3688
 2707TIP3    H129756   0.754   3.828   7.094 -0.4834  0.1434 -0.5155
 2707TIP3    H229757   0.829   3.917   7.190 -1.0485 -1.1386  1.1681
 2708TIP3   OH229758   2.527   2.238   1.891  0.5696 -0.5556 -0.1701
 2708TIP3    H129759   2.616   2.272   1.902  0.4383 -0.2471 -0.0680
 2708TIP3    H229760   2.475   2.284   1.956  0.6706 -2.0092  0.9932
 2709TIP3   OH229761   6.203   2.983   2.188  0.0578  0.6782  0.5350
 2709TIP3    H129762   6.274   2.978   2.252 -0.8942 -0.4541  1.5599
 2709TIP3    H229763   6.141   2.916   2.217 -0.6795  0.5441 -1.2528
 2710TIP3   OH229764   4.144   3.706   8.539 -0.3996  0.7660 -0.5540
 2710TIP3    H129765   4.159   3.791   8.581 -2.1712 -0.8822  4.1083
 2710TIP3    H229766   4.064   3.718   8.488 -0.7834  1.8699  0.2692
 2711TIP3   OH229767   4.634   6.088   7.107  0.6598  0.8235  0.2308
 2711TIP3    H129768   4.587   6.154   7.055 -0.0464  2.4105  2.6704
 2711TIP3    H229769   4.720   6.081   7.065  0.1032  1.8991 -1.1899
 2712TIP3   OH229770   5.127   1.552   7.255  0.2561 -0.2491  0.0203
 2712TIP3    H129771   5.172   1.588   7.179 -1.2819  1.6964 -0.0596
 2712TIP3    H229772   5.137   1.457   7.246 -0.3362 -0.1301 -2.9487
 2713TIP3   OH229773   1.970   3.402   2.289  0.7244 -0.3338  0.4159
 2713TIP3    H129774   1.896   3.459   2.311  0.4121 -0.6144  0.0955
 2713TIP3    H229775   2.002   3.436   2.206 -0.0482 -1.1866 -0.2559
 2714TIP3   OH229776   2.967   1.937   7.246  0.9167  0.2133 -0.5655
 2714TIP3    H129777   2.937   1.975   7.329 -1.4494 -1.3208 -0.6245
 2714TIP3    H229778   2.938   2.000   7.179  1.2178  0.5692 -0.3667
 2715TIP3   OH229779   2.336   6.586   1.932 -0.2533  0.4936 -0.1933
 2715TIP3    H129780   2.395   6.651   1.894 -1.7072  2.2544  0.3898
 2715TIP3    H229781   2.392   6.533   1.989  1.1509  0.5772 -1.4268
 2716TIP3   OH229782   6.669   1.232   0.890 -0.2195 -0.6616 -0.0925
 2716TIP3    H129783   6.706   1.228   0.978  0.1584 -1.7722 -0.2912
 2716TIP3    H229784   6.735   1.278   0.838 -1.0651  1.2943  0.4865
 2717TIP3   OH229785   5.470   2.302   8.273 -0.6755 -0.1601 -0.3505
 2717TIP3    H129786   5.508   2.219   8.299 -0.5018  0.6047  2.0229
 2717TIP3    H229787   5.387   2.308   8.320  0.4119  1.9987  1.5042
 2718TIP3   OH229788   6.630   0.300   6.118  0.1787  0.1641  0.1259
 2718TIP3    H129789   6.606   0.321   6.027 -0.3389  1.5227  0.5412
 2718TIP3    H229790   6.548   0.309   6.166 -0.0573 -2.8099  0.4225
 2719TIP3   OH229791   6.886   5.632   1.016 -0.2609 -0.3302  0.1538
 2719TIP3    H129792   6.864   5.556   0.962  0.4110 -0.3398 -0.1152
 2719TIP3    H229793   6.860   5.606   1.105 -1.4606 -0.2712 -0.1757
 2720TIP3   OH229794   0.100   2.792   7.547 -0.4598 -0.6306  0.3127
 2720TIP3    H129795   0.099   2.782   7.451 -0.6469 -0.1004  0.2550
 2720TIP3    H229796   0.048   2.718   7.579 -2.5745  0.5673 -0.1423
 2721TIP3   OH229797   6.484   6.403   2.338 -0.2858  0.0754 -0.5118
 2721TIP3    H129798   6.552   6.463   2.367 -1.5363  1.0682  0.4924
 2721TIP3    H229799   6.417   6.459   2.298 -1.4059 -0.6368  0.3022
 2722TIP3   OH229800   1.184   4.578   6.566 -0.1721 -0.1721 -0.4933
 2722TIP3    H129801   1.156   4.492   6.535 -0.2377 -0.1219 -0.5732
 2722TIP3    H229802   1.262   4.598   6.515  0.5088 -0.6911  0.3291
 2723TIP3   OH229803   6.747   6.763   8.087 -0.1795  0.4350 -0.5320
 2723TIP3    H129804   6.793   6.683   8.115 -0.8902 -0.3081 -1.4202
 2723TIP3    H229805   6.793   6.790   8.007  0.2983  1.1486 -0.0270
 2724TIP3   OH229806   5.308   1.491   0.785 -0.1132  0.0822 -0.5154
 2724TIP3    H129807   5.363   1.419   0.813 -0.5963 -1.2314 -2.6761
 2724TIP3    H229808   5.219   1.454   0.783 -1.0097  1.8212  1.7974
 2725TIP3   OH229809   5.540   1.063   8.628 -0.4892  0.0069  0.1566
 2725TIP3    H129810   5.609   1.121   8.660  0.0144 -0.1047 -0.6999
 2725TIP3    H229811   5.585   0.981   8.609 -1.2625 -0.8291  1.7367
 2726TIP3   OH229812   1.809   4.321   7.429 -0.0439  0.2943  0.3090
 2726TIP3    H129813   1.790   4.296   7.339 -3.1980  1.4712  0.5203
 2726TIP3    H229814   1.776   4.249   7.482  1.3883 -0.1877  0.5892
 2727TIP3   OH229815   4.916   6.412   8.551 -0.6844 -0.0598  0.5435
 2727TIP3    H129816   4.999   6.364   8.541  0.4645  2.0764 -0.9709
 2727TIP3    H229817   4.857   6.370   8.488 -0.5607 -1.1225  1.1039
 2728TIP3   OH229818   4.090   5.981   1.063  0.0274 -0.0765  0.0507
 2728TIP3    H129819   4.080   5.896   1.020 -2.5198 -0.4193  1.1593
 2728TIP3    H229820   4.122   5.961   1.151 -1.9186 -0.1007  0.8095
 2729TIP3   OH229821   6.726   3.129   6.229  0.1454  0.5327  0.3476
 2729TIP3    H129822   6.786   3.107   6.300  0.7063  0.1378 -0.2324
 2729TIP3    H229823   6.653   3.175   6.272  0.5741  0.4928  1.1379
 2730TIP3   OH229824   5.302   1.616   1.578  0.2907 -0.0573 -0.0577
 2730TIP3    H129825   5.312   1.701   1.536 -2.1568 -0.2595 -1.2228
 2730TIP3    H229826   5.378   1.566   1.550  0.5490  0.9960 -1.3121
 2731TIP3   OH229827   6.778   5.501   2.164  0.1836 -0.6976 -0.0557
 2731TIP3    H129828   6.765   5.441   2.091  0.5885 -0.7022 -0.1252
 2731TIP3    H229829   6.707   5.566   2.156  0.4622 -0.4699 -0.6794
 2732TIP3   OH229830   3.082   5.102   7.354 -0.0279  0.4493  0.0654
 2732TIP3    H129831   3.008   5.149   7.315 -0.7420  0.1836  1.0554
 2732TIP3    H229832   3.127   5.168   7.408  0.6308  0.6781 -0.7456
 2733TIP3   OH229833   3.866   3.237   6.427  0.3505  0.1061  0.2540
 2733TIP3    H129834   3.810   3.211   6.500 -1.2338  0.8636 -0.6361
 2733TIP3    H229835   3.823   3.314   6.390  2.4911  1.3070  0.0720
 2734TIP3   OH229836   6.586   1.635   0.759 -0.5541 -0.0554 -0.0991
 2734TIP3    H129837   6.495   1.660   0.750 -0.5158  0.1747  0.1476
 2734TIP3    H229838   6.635   1.717   0.755 -0.5172  0.0708  1.8783
 2735TIP3   OH229839   6.522   2.685   2.345  0.1295  0.3100  0.3615
 2735TIP3    H129840   6.546   2.594   2.365  0.0133  0.2067  0.0371
 2735TIP3    H229841   6.515   2.727   2.431 -2.4515 -0.6420  0.6885
 2736TIP3   OH229842   5.469   0.648   0.715  0.4710  0.0589 -0.4516
 2736TIP3    H129843   5.459   0.684   0.803  1.2400 -1.8484  0.4642
 2736TIP3    H229844   5.539   0.700   0.675 -0.0097  1.0574 -0.0508
 2737TIP3   OH229845   2.054   1.586   7.272 -0.5888  0.0171  0.1370
 2737TIP3    H129846   2.128   1.540   7.234  1.7100  2.0712  1.8272
 2737TIP3    H229847   2.025   1.646   7.204 -0.0761 -0.1199 -0.2070
 2738TIP3   OH229848   5.324   3.051   7.589  0.0526  0.5733  0.7926
 2738TIP3    H129849   5.357   3.053   7.679 -0.9474  0.3550  1.1757
 2738TIP3    H229850   5.232   3.026   7.598  0.4757 -1.6741 -0.4241
 2739TIP3   OH229851   0.658   2.454   7.877  0.2343 -0.5446 -0.4456
 2739TIP3    H129852   0.671   2.537   7.921 -0.8684 -1.0284  0.8899
 2739TIP3    H229853   0.734   2.444   7.820  0.2816  1.4478 -0.7904
 2740TIP3   OH229854   3.846   2.664   0.937 -0.0161  0.2107 -0.5197
 2740TIP3    H129855   3.849   2.583   0.885 -1.8715 -0.4931  0.3902
 2740TIP3    H229856   3.785   2.721   0.889  1.4504  1.2234 -1.2800
 2741TIP3   OH229857   1.888   4.484   7.803 -0.1345 -0.2085  0.5408
 2741TIP3    H129858   1.955   4.425   7.837 -0.8605 -1.0181  0.5967
 2741TIP3    H229859   1.935   4.543   7.744  0.7163 -0.3831  1.0389
 2742TIP3   OH229860   5.706   0.827   6.259 -0.8937  0.1458  0.6697
 2742TIP3    H129861   5.782   0.772   6.276 -1.5848 -1.1512 -0.2652
 2742TIP3    H229862   5.632   0.766   6.257 -1.6361  1.0435 -0.7383
 2743TIP3   OH229863   3.600   2.358   8.542 -0.2776 -0.6707 -0.0241
 2743TIP3    H129864   3.513   2.320   8.535 -1.0059  0.3329  2.5828
 2743TIP3    H229865   3.595   2.439   8.490 -0.4035 -1.3236 -1.0641
 2744TIP3   OH229866   4.321   0.068   0.734  0.2790  0.3053 -0.8013
 2744TIP3    H129867   4.230   0.062   0.706 -0.6336  0.5063  1.8539
 2744TIP3    H229868   4.365   0.111   0.661 -1.8244  0.5724 -2.0071
 2745TIP3   OH229869   0.363   6.279   1.157 -0.0450 -0.2769  0.3612
 2745TIP3    H129870   0.278   6.322   1.161  0.6530  1.7597 -3.0101
 2745TIP3    H229871   0.409   6.309   1.236 -0.8219  2.5386 -0.1670
 2746TIP3   OH229872   2.448   5.105   8.045 -0.1485 -0.0451 -0.0672
 2746TIP3    H129873   2.482   5.144   7.964 -1.4839 -0.2393 -0.7433
 2746TIP3    H229874   2.440   5.179   8.105  1.5172 -0.0090  0.1444
 2747TIP3   OH229875   1.393   1.164   0.739 -0.0570 -0.3527  0.2350
 2747TIP3    H129876   1.426   1.147   0.651  1.1221  0.6856  0.4442
 2747TIP3    H229877   1.324   1.230   0.726  0.0385 -0.2842  0.0727
 2748TIP3   OH229878   3.683   5.682   1.155  0.1852 -0.2961  0.0258
 2748TIP3    H129879   3.679   5.730   1.238 -0.7333 -2.0838  1.0757
 2748TIP3    H229880   3.758   5.625   1.164  1.0020  0.5711 -1.0343
 2749TIP3   OH229881   4.041   3.039   0.323 -0.0126 -0.1253 -0.9575
 2749TIP3    H129882   4.041   3.085   0.407 -3.2853 -1.0209 -0.3141
 2749TIP3    H229883   4.055   2.947   0.347  0.8751 -0.1681 -1.6131
 2750TIP3   OH229884   5.712   1.277   7.450  0.1980 -0.0797  0.0968
 2750TIP3    H129885   5.737   1.262   7.359  0.7867 -0.0540  0.2544
 2750TIP3    H229886   5.787   1.247   7.501 -0.2395 -0.3539  0.5899
 2751TIP3   OH229887   0.647   1.808   6.597  0.0780  0.2095  0.3262
 2751TIP3    H129888   0.562   1.786   6.633  0.6961 -2.9237  0.1165
 2751TIP3    H229889   0.710   1.765   6.654  1.3638  0.0726 -1.1174
 2752TIP3   OH229890   2.284   6.562   8.161  0.3834  0.3660  0.8443
 2752TIP3    H129891   2.282   6.593   8.251  0.9198  0.6277  0.7688
 2752TIP3    H229892   2.369   6.521   8.151  0.1868  0.0198  0.5597
 2753TIP3   OH229893   4.017   5.493   8.492  0.3287  0.5174  0.4529
 2753TIP3    H129894   3.962   5.571   8.503  0.1818  0.6247 -0.8239
 2753TIP3    H229895   4.106   5.525   8.506  0.0959  0.2325  3.0725
 2754TIP3   OH229896   4.549   4.294   0.440  0.3247 -0.2463 -0.2156
 2754TIP3    H129897   4.604   4.303   0.363 -1.2895  3.5831 -1.1086
 2754TIP3    H229898   4.468   4.254   0.407 -0.2418  1.0951 -0.5116
 2755TIP3   OH229899   6.413   2.999   2.378  0.1690  0.6910 -0.3975
 2755TIP3    H129900   6.473   3.035   2.313  1.2876  0.8915  0.7047
 2755TIP3    H229901   6.463   2.929   2.421 -1.0482 -0.3981 -0.7094
 2756TIP3   OH229902   0.286   1.781   0.721 -0.7744 -0.1370  0.2593
 2756TIP3    H129903   0.325   1.847   0.778 -0.1546 -0.4656  0.2160
 2756TIP3    H229904   0.265   1.708   0.780 -0.2742 -0.4150  0.0961
 2757TIP3   OH229905   0.323   5.275   7.645 -0.3264 -0.4043  0.0213
 2757TIP3    H129906   0.413   5.246   7.631 -0.4256  0.2013 -2.2138
 2757TIP3    H229907   0.279   5.198   7.682  0.6944 -1.3038 -0.5572
 2758TIP3   OH229908   4.644   1.020   8.469  0.0097  0.6249  0.0117
 2758TIP3    H129909   4.643   0.986   8.558  0.2845  1.1106  0.2070
 2758TIP3    H229910   4.671   1.111   8.479 -0.9037  0.9579 -0.4815
 2759TIP3   OH229911   1.254   2.502   0.537  0.1921 -0.0590  0.6082
 2759TIP3    H129912   1.161   2.489   0.558 -0.1190 -1.5257 -1.4339
 2759TIP3    H229913   1.254   2.539   0.449  1.5571 -0.4984  0.4006
 2760TIP3   OH229914   6.410   1.124   1.556  0.1913  0.0794 -0.1156
 2760TIP3    H129915   6.338   1.181   1.584 -1.0812 -2.3271  1.9063
 2760TIP3    H229916   6.440   1.162   1.473 -4.1902  0.5772 -1.7399
 2761TIP3   OH229917   6.519   1.254   7.206  0.2610 -0.1149 -0.2149
 2761TIP3    H129918   6.460   1.317   7.246  0.3411 -0.6254  0.7398
 2761TIP3    H229919   6.553   1.298   7.128 -1.2549  0.2265 -0.6979
 2762TIP3   OH229920   4.445   6.354   1.024  0.1835  0.2167 -0.1174
 2762TIP3    H129921   4.444   6.419   0.954 -1.8217 -1.9543 -2.2718
 2762TIP3    H229922   4.530   6.367   1.067  0.3459  3.4453 -1.1064
 2763TIP3   OH229923   2.809   3.540   0.282  0.2575 -0.2497  0.1321
 2763TIP3    H129924   2.820   3.463   0.337 -2.5620 -0.3263  0.7466
 2763TIP3    H229925   2.791   3.505   0.195  0.2919 -0.2425  0.1219
 2764TIP3   OH229926   5.178   2.212   0.535  0.0141  0.1294 -0.2418
 2764TIP3    H129927   5.132   2.278   0.587 -1.1763  1.0214 -2.3077
 2764TIP3    H229928   5.183   2.135   0.592 -0.4303  1.3371  1.4804
 2765TIP3   OH229929   3.724   2.922   0.198  0.5230  0.2338 -0.2072
 2765TIP3    H129930   3.700   2.948   0.109  0.4571  2.8571  0.4909
 2765TIP3    H229931   3.819   2.914   0.196  0.4292 -1.0708 -0.7851
 2766TIP3   OH229932   2.828   0.308   1.523 -0.1854 -0.3942 -0.3851
 2766TIP3    H129933   2.899   0.369   1.503 -0.6064  0.9982  1.9137
 2766TIP3    H229934   2.831   0.243   1.453  1.6547  1.0807 -1.7832
 2767TIP3   OH229935   5.688   6.349   7.159 -0.0626 -0.4562  0.5906
 2767TIP3    H129936   5.611   6.310   7.201  0.4751 -0.7302  1.3585
 2767TIP3    H229937   5.749   6.276   7.148  0.1952 -0.1926  0.2556
 2768TIP3   OH229938   3.530   4.326   0.877  0.3920 -0.1060 -0.2902
 2768TIP3    H129939   3.538   4.252   0.936 -0.9991 -1.1704 -1.3736
 2768TIP3    H229940   3.442   4.319   0.840  0.9825  0.8378 -2.0392
 2769TIP3   OH229941   6.178   2.910   6.040  0.0807  0.3467  0.2974
 2769TIP3    H129942   6.219   2.995   6.024  1.9334 -0.5968 -0.1813
 2769TIP3    H229943   6.110   2.928   6.104 -1.6853  2.7417 -2.0012
 2770TIP3   OH229944   0.892   3.551   8.137 -0.2064 -0.2432  0.0875
 2770TIP3    H129945   0.947   3.528   8.062  1.0882  2.3931  0.1081
 2770TIP3    H229946   0.864   3.467   8.172  3.0313 -1.7565 -0.5127
 2771TIP3   OH229947   1.121   3.194   6.584 -0.4396  0.3216  0.3272
 2771TIP3    H129948   1.075   3.166   6.505 -1.0863 -0.7404  1.0632
 2771TIP3    H229949   1.214   3.181   6.564 -0.6683 -1.4206  0.2734
 2772TIP3   OH229950   3.581   0.881   6.735 -0.4208  0.0684  0.0513
 2772TIP3    H129951   3.621   0.812   6.682  0.2433  2.2057 -2.4150
 2772TIP3    H229952   3.524   0.834   6.796  0.0913 -2.6356 -1.3990
 2773TIP3   OH229953   1.896   0.758   8.306 -0.6647  0.5627 -0.2351
 2773TIP3    H129954   1.894   0.835   8.362 -0.7481 -2.4666  4.4617
 2773TIP3    H229955   1.982   0.719   8.321 -0.8430 -0.6424 -1.9814
 2774TIP3   OH229956   3.370   0.126   1.253 -0.4059  0.4490 -0.5240
 2774TIP3    H129957   3.375   0.221   1.258  0.8049  0.5123 -2.0906
 2774TIP3    H229958   3.386   0.106   1.160 -3.1397 -1.1628 -0.7617
 2775TIP3   OH229959   4.490   0.733   6.800 -0.1445 -0.3502  0.1095
 2775TIP3    H129960   4.435   0.663   6.765 -2.3943  0.5753  1.5763
 2775TIP3    H229961   4.430   0.807   6.811  1.4118  0.7414  1.7364
 2776TIP3   OH229962   3.347   3.365   7.229 -0.1714 -0.1429  0.5129
 2776TIP3    H129963   3.294   3.323   7.296 -1.5719  1.0649  0.2367
 2776TIP3    H229964   3.327   3.458   7.238 -1.2440  0.0017 -2.1921
 2777TIP3   OH229965   4.461   4.596   0.186 -0.3487 -0.2405  0.2960
 2777TIP3    H129966   4.514   4.577   0.109 -0.2308  1.8127 -0.1852
 2777TIP3    H229967   4.524   4.596   0.259 -0.1146 -0.1892  0.0956
 2778TIP3   OH229968   4.969   5.825   0.252  0.5123  0.0520 -0.0504
 2778TIP3    H129969   4.981   5.738   0.216 -0.0163  0.7743 -2.1239
 2778TIP3    H229970   5.053   5.869   0.237  1.0613 -0.3114  1.7507
 2779TIP3   OH229971   3.504   5.996   1.249  0.8010  0.7620  0.1608
 2779TIP3    H129972   3.490   5.957   1.163  0.3206  0.9590  0.1459
 2779TIP3    H229973   3.599   6.001   1.258  0.8547  0.7068 -0.3447
 2780TIP3   OH229974   0.300   2.888   7.697 -0.0498  0.0617  0.5715
 2780TIP3    H129975   0.274   2.917   7.784 -0.2844  3.3920 -0.4924
 2780TIP3    H229976   0.219   2.859   7.655 -0.5194  1.5229  0.4224
 2781TIP3   OH229977   0.132   3.939   2.325  0.1770 -0.0221  0.2429
 2781TIP3    H129978   0.039   3.952   2.339 -0.2190 -1.2925 -0.9545
 2781TIP3    H229979   0.167   4.027   2.311 -0.7608  0.5000  1.0982
 2782TIP3   OH229980   0.770   3.800   8.194  0.0190  0.4815  0.0384
 2782TIP3    H129981   0.821   3.719   8.203 -1.4963 -0.6347 -0.8032
 2782TIP3    H229982   0.748   3.805   8.101 -0.8610  1.2331  0.2685
 2783TIP3   OH229983   1.883   5.266   1.617 -0.5117  0.1546  0.4200
 2783TIP3    H129984   1.894   5.288   1.710  0.3489  0.1448  0.3287
 2783TIP3    H229985   1.789   5.275   1.601 -0.5184  1.2356  1.0121
 2784TIP3   OH229986   1.069   3.839   1.289 -0.3771 -0.3960 -0.3519
 2784TIP3    H129987   1.078   3.799   1.375 -0.1639  0.7651  0.1796
 2784TIP3    H229988   1.129   3.914   1.290 -3.3060  2.1615  0.0664
 2785TIP3   OH229989   0.664   4.009   8.629  0.1485  0.3674  0.1704
 2785TIP3    H129990   0.638   4.085   8.576 -1.0847 -0.2136 -0.0846
 2785TIP3    H229991   0.588   3.989   8.682  1.1097  0.4432  1.6253
 2786TIP3   OH229992   2.129   1.743   1.830 -0.1864 -0.7747  0.2706
 2786TIP3    H129993   2.186   1.707   1.762  0.2590  0.0893  0.1606
 2786TIP3    H229994   2.040   1.726   1.799 -0.0038  0.2958 -0.9357
 2787TIP3   OH229995   6.162   2.759   7.132 -0.1065 -0.1786  0.5982
 2787TIP3    H129996   6.129   2.748   7.221 -1.1465 -0.7697  0.1515
 2787TIP3    H229997   6.181   2.671   7.101  0.6840  0.0532  0.3795
 2788TIP3   OH229998   2.300   3.074   6.815  0.3103 -0.1043  0.0589
 2788TIP3    H129999   2.331   3.053   6.903 -0.4132  1.8406  0.8316
 2788TIP3    H230000   2.217   3.027   6.807 -0.1773  0.5905  0.8685
 2789TIP3   OH230001   5.156   2.390   6.289  0.1099  0.2536 -0.8071
 2789TIP3    H130002   5.146   2.298   6.313  0.3939  0.4268  0.0086
 2789TIP3    H230003   5.160   2.390   6.194 -2.7977 -0.2906 -0.9936
 2790TIP3   OH230004   3.181   5.114   1.215 -0.1247 -0.6922 -0.0184
 2790TIP3    H130005   3.239   5.096   1.141  0.3926  1.7466 -0.3182
 2790TIP3    H230006   3.211   5.056   1.285  1.4535 -0.8114 -0.7566
 2791TIP3   OH230007   3.756   5.649   0.503 -0.1595 -0.2420  0.5827
 2791TIP3    H130008   3.724   5.687   0.585  0.4708 -0.5728  0.9902
 2791TIP3    H230009   3.700   5.572   0.490 -0.8838  0.3328  0.1945
 2792TIP3   OH230010   5.336   0.411   6.519  0.1157 -0.3359 -0.4899
 2792TIP3    H130011   5.256   0.364   6.498  0.2167  0.0136 -1.7248
 2792TIP3    H230012   5.406   0.349   6.500  0.1866 -0.2004 -0.6762
 2793TIP3   OH230013   1.984   3.713   7.556  0.3104  0.1688 -0.0532
 2793TIP3    H130014   1.984   3.624   7.590  1.1008  0.4155  0.6223
 2793TIP3    H230015   2.074   3.728   7.527  0.6601  1.3748  1.5673
 2794TIP3   OH230016   0.032   4.790   7.260 -0.1615 -0.2327 -0.1277
 2794TIP3    H130017   0.125   4.798   7.238 -0.0332  0.1853  0.5420
 2794TIP3    H230018   0.032   4.766   7.353 -0.7268  0.2671  0.0060
 2795TIP3   OH230019   3.714   1.000   1.959 -0.8203 -1.0471 -0.2356
 2795TIP3    H130020   3.751   1.083   1.931  0.5567 -0.6964  2.2602
 2795TIP3    H230021   3.638   0.987   1.903 -0.0665  1.0069 -1.8615
 2796TIP3   OH230022   0.042   5.020   0.860 -0.2813  0.0838 -0.1314
 2796TIP3    H130023   0.130   4.980   0.860 -0.5218 -0.6502  2.2079
 2796TIP3    H230024   0.056   5.108   0.827  0.9572 -0.6608 -1.7723
 2797TIP3   OH230025   1.301   3.702   0.055 -0.6872  0.2954  0.1383
 2797TIP3    H130026   1.246   3.633   0.094 -0.8341  0.8826  0.9926
 2797TIP3    H230027   1.293   3.688  -0.040 -0.6120 -0.9373  0.2955
 2798TIP3   OH230028   3.422   6.357   1.152  0.1932  0.4012 -0.1974
 2798TIP3    H130029   3.433   6.452   1.153 -0.7574  0.5332 -0.9152
 2798TIP3    H230030   3.408   6.334   1.244  0.5633  0.9266  0.0013
 2799TIP3   OH230031   6.239   6.471   7.258  0.7515  0.4487 -0.2467
 2799TIP3    H130032   6.218   6.439   7.170 -1.4024  0.2860  0.2814
 2799TIP3    H230033   6.234   6.566   7.251 -1.1011  0.4064  0.0328
 2800TIP3   OH230034   0.760   1.350   0.612 -0.0967 -0.8023  0.0173
 2800TIP3    H130035   0.824   1.280   0.596  1.1083  0.5093 -1.2117
 2800TIP3    H230036   0.707   1.318   0.684  1.3840 -2.3472  0.4865
 2801TIP3   OH230037   1.846   6.107   7.576 -0.3808 -0.2344 -0.6535
 2801TIP3    H130038   1.854   6.086   7.669 -0.3050 -0.8446 -0.7959
 2801TIP3    H230039   1.925   6.157   7.556 -0.3387 -0.2077 -0.4229
 2802TIP3   OH230040   0.089   0.693   0.222  0.3565  0.4326  0.6854
 2802TIP3    H130041   0.064   0.624   0.284  0.0470 -0.9137 -0.8770
 2802TIP3    H230042   0.152   0.652   0.164 -2.0019  0.4495 -2.1231
 2803TIP3   OH230043   5.851   6.166   6.456  0.4304 -0.7148  0.7612
 2803TIP3    H130044   5.843   6.114   6.536  0.6750 -0.7559  0.7590
 2803TIP3    H230045   5.881   6.103   6.390 -1.9667 -1.2229  0.0580
 2804TIP3   OH230046   5.291   3.261   6.891  0.1277  0.2795 -0.4560
 2804TIP3    H130047   5.291   3.357   6.895 -0.0593  0.3435 -1.5130
 2804TIP3    H230048   5.376   3.239   6.852 -0.7095  0.1773 -2.3606
 2805TIP3   OH230049   6.617   1.817   6.993 -0.2902  0.1409 -0.4828
 2805TIP3    H130050   6.540   1.763   7.011 -0.3928 -0.5082 -2.6081
 2805TIP3    H230051   6.583   1.906   6.982 -0.3737  0.3262  1.0266
 2806TIP3   OH230052   2.891   4.638   0.816 -0.3530  0.1982 -0.0161
 2806TIP3    H130053   2.919   4.559   0.863  2.2499 -0.6160 -2.6165
 2806TIP3    H230054   2.831   4.605   0.749 -2.1858  1.0194  1.1487
 2807TIP3   OH230055   1.424   3.655   7.903  0.7760 -0.4836  0.3961
 2807TIP3    H130056   1.492   3.698   7.955  0.2002 -0.3343  1.0347
 2807TIP3    H230057   1.473   3.609   7.835  1.4972 -0.0709  0.6135
 2808TIP3   OH230058   0.976   4.418   6.821  0.3727 -0.5478 -0.7736
 2808TIP3    H130059   0.930   4.487   6.869 -0.1524  0.5549 -2.7359
 2808TIP3    H230060   1.060   4.409   6.867  0.2882  1.1166 -0.2044
 2809TIP3   OH230061   4.890   5.299   0.795 -0.5826 -0.4456  0.1396
 2809TIP3    H130062   4.883   5.342   0.881 -1.2732 -2.1935  1.0206
 2809TIP3    H230063   4.799   5.289   0.767 -0.4215 -1.0716 -0.1651
 2810TIP3   OH230064   1.053   0.401   8.491  0.4498  0.3858 -0.4545
 2810TIP3    H130065   1.007   0.318   8.479 -0.3265  0.7961 -0.3819
 2810TIP3    H230066   0.992   0.467   8.457  0.0053  1.1732  1.7232
 2811TIP3   OH230067   1.580   5.125   7.224  0.4987 -0.1171  0.1359
 2811TIP3    H130068   1.617   5.111   7.137  1.2264 -0.4688  0.4943
 2811TIP3    H230069   1.487   5.143   7.207  0.7813  0.5757 -0.7595
 2812TIP3   OH230070   3.723   4.123   0.656 -0.8973 -0.0682  0.3448
 2812TIP3    H130071   3.725   4.165   0.569 -2.6676 -0.8754 -0.1180
 2812TIP3    H230072   3.728   4.196   0.717 -2.6806  0.7870 -0.4519
 2813TIP3   OH230073   4.743   1.213   7.090 -0.4582 -0.0482  0.2003
 2813TIP3    H130074   4.820   1.195   7.145  0.3959 -0.8929 -1.2166
 2813TIP3    H230075   4.669   1.182   7.143  0.3164 -0.6615  0.9636
 2814TIP3   OH230076   5.905   3.365   0.477 -0.8827 -0.7260  0.0320
 2814TIP3    H130077   5.846   3.312   0.423 -1.6963  1.2543 -1.1454
 2814TIP3    H230078   5.847   3.417   0.532 -0.2281  0.5460 -0.4412
 2815TIP3   OH230079   3.771   5.278   6.976 -0.7844  0.5077  0.0887
 2815TIP3    H130080   3.816   5.197   6.951 -1.4689 -0.1390  0.8529
 2815TIP3    H230081   3.837   5.346   6.968  0.2608 -0.3591  0.8752
 2816TIP3   OH230082   5.797   4.528   8.202  0.4269  0.2950  0.1786
 2816TIP3    H130083   5.780   4.466   8.132 -2.5206  3.2515 -2.0445
 2816TIP3    H230084   5.739   4.502   8.273  0.8626 -0.7057  0.1872
 2817TIP3   OH230085   4.424   0.980   2.359  0.2890 -0.2036  0.4666
 2817TIP3    H130086   4.450   1.019   2.276 -0.1843  0.3407  0.5698
 2817TIP3    H230087   4.438   0.886   2.347 -1.9908 -0.4094 -1.0547
 2818TIP3   OH230088   3.949   1.167   2.202  0.2295 -0.6874 -0.1646
 2818TIP3    H130089   3.974   1.258   2.218 -0.2249 -0.3661 -1.1742
 2818TIP3    H230090   4.022   1.131   2.152  0.0749 -0.6558 -0.4142
 2819TIP3   OH230091   4.296   2.674   1.915 -0.1553 -0.5049  0.0593
 2819TIP3    H130092   4.286   2.671   2.010  1.0339  5.0886  0.6794
 2819TIP3    H230093   4.214   2.714   1.883  0.6280  0.4350 -0.8502
 2820TIP3   OH230094   6.800   0.568   8.403 -0.7489  0.0741  0.6457
 2820TIP3    H130095   6.894   0.560   8.418 -1.1778 -2.2030  2.8681
 2820TIP3    H230096   6.789   0.546   8.310  0.9053  0.7125  0.2630
 2821TIP3   OH230097   4.323   0.295   7.116  0.2093  0.1193  0.5234
 2821TIP3    H130098   4.417   0.282   7.109  0.1892 -0.4718  1.2101
 2821TIP3    H230099   4.294   0.312   7.027  0.8629 -0.4368  0.1970
 2822TIP3   OH230100   3.533   4.123   1.118  0.2468 -0.1990 -0.0356
 2822TIP3    H130101   3.553   4.035   1.151 -1.6630 -0.6369  0.0535
 2822TIP3    H230102   3.438   4.127   1.117  0.2120  0.5853 -3.4552
 2823TIP3   OH230103   4.006   0.045   7.432 -0.0238  0.3795  0.3892
 2823TIP3    H130104   3.937   0.060   7.367  0.1993  1.3824  0.3730
 2823TIP3    H230105   3.980  -0.036   7.476 -0.8428  0.3708 -0.0884
 2824TIP3   OH230106   3.683   3.551   2.265 -0.0294 -0.1468 -0.2577
 2824TIP3    H130107   3.718   3.559   2.176 -0.4001  1.1278 -0.3138
 2824TIP3    H230108   3.732   3.478   2.304 -0.1271 -0.9775 -1.6160
 2825TIP3   OH230109   5.601   3.556   2.713  0.0053 -0.6702  0.1693
 2825TIP3    H130110   5.575   3.606   2.790  0.5746 -0.0697 -0.0114
 2825TIP3    H230111   5.520   3.517   2.679 -0.5262  0.5194  0.0451
 2826TIP3   OH230112   6.792   3.697   0.626  0.4037  0.0105 -0.2076
 2826TIP3    H130113   6.855   3.715   0.695  0.8412 -0.8164 -0.3750
 2826TIP3    H230114   6.730   3.636   0.666 -0.4762  1.0360  0.0458
 2827TIP3   OH230115   4.376   1.425   2.047 -0.3388  0.0726 -0.0167
 2827TIP3    H130116   4.443   1.450   1.983  0.4478  1.7458  1.4040
 2827TIP3    H230117   4.297   1.472   2.020 -1.8030 -3.5567 -3.0018
 2828TIP3   OH230118   0.595   0.418   7.162  0.4471 -0.7650 -0.5471
 2828TIP3    H130119   0.679   0.446   7.198 -0.3914 -0.3225  1.1789
 2828TIP3    H230120   0.586   0.327   7.190 -1.8204  0.5110  3.9299
 2829TIP3   OH230121   0.175   5.137   7.139  0.0942 -0.2532 -0.2902
 2829TIP3    H130122   0.157   5.196   7.066  0.2816  0.7131  0.4130
 2829TIP3    H230123   0.096   5.141   7.193  0.2975 -0.2564  0.0113
 2830TIP3   OH230124   0.787   3.363   6.538  0.4595  0.4071  0.3706
 2830TIP3    H130125   0.775   3.272   6.564  1.2838  0.0745 -0.3694
 2830TIP3    H230126   0.699   3.399   6.536  0.1855 -0.1503  1.4379
 2831TIP3   OH230127   1.979   1.442   0.823 -0.1462 -0.2556 -0.5698
 2831TIP3    H130128   1.990   1.518   0.765 -0.7562  0.4480  0.2088
 2831TIP3    H230129   1.884   1.435   0.834 -0.0162 -0.0053  0.8136
 2832TIP3   OH230130   6.348   1.536   7.842 -0.1140 -0.0437  0.1964
 2832TIP3    H130131   6.253   1.534   7.836 -0.1382  1.5659 -0.2455
 2832TIP3    H230132   6.378   1.519   7.752 -0.1038  2.9777 -0.4860
 2833TIP3   OH230133   5.807   2.419   8.011 -0.9119  0.2201 -0.0787
 2833TIP3    H130134   5.843   2.330   8.019 -0.4574  0.2579 -1.5229
 2833TIP3    H230135   5.839   2.451   7.927 -2.0119  1.3353 -0.1046
 2834TIP3   OH230136   6.420   1.875   0.739  0.5016 -0.2481 -0.3955
 2834TIP3    H130137   6.349   1.812   0.726  1.0190 -0.9005 -0.1343
 2834TIP3    H230138   6.377   1.953   0.772 -0.2374 -0.2276 -1.3474
 2835TIP3   OH230139   3.340   5.950   7.651  0.8348 -0.4045  0.5497
 2835TIP3    H130140   3.349   5.933   7.557 -2.4635  2.1995 -0.4289
 2835TIP3    H230141   3.415   6.006   7.672  1.6676 -1.0809 -0.4943
 2836TIP3   OH230142   4.517   3.212   1.443  0.5096 -0.3013 -0.0250
 2836TIP3    H130143   4.589   3.177   1.390  1.2751 -2.1051  2.0131
 2836TIP3    H230144   4.540   3.186   1.532 -2.2476 -0.1364  0.8046
 2837TIP3   OH230145   1.949   4.465   6.975 -0.2782 -0.1930  0.5096
 2837TIP3    H130146   1.914   4.542   7.020 -0.8190 -0.6089  0.8061
 2837TIP3    H230147   1.977   4.498   6.890  0.3813  0.5263  0.9882
 2838TIP3   OH230148   0.605   4.316   0.625  0.1494 -0.2198 -0.0917
 2838TIP3    H130149   0.659   4.245   0.590  0.1051 -0.3943  0.1935
 2838TIP3    H230150   0.516   4.294   0.596  0.0333 -0.6423  0.5635
 2839TIP3   OH230151   2.649   2.762   0.330 -0.0215  0.6275  0.0977
 2839TIP3    H130152   2.590   2.690   0.354  0.0370  0.8608  0.9839
 2839TIP3    H230153   2.698   2.728   0.255  0.4216 -0.5042  0.8661
 2840TIP3   OH230154   1.393   5.997   0.842 -0.3829 -0.3768  0.0578
 2840TIP3    H130155   1.322   5.946   0.881  0.5911 -0.9906  1.0966
 2840TIP3    H230156   1.469   5.979   0.898  0.2715  1.3322 -0.2299
 2841TIP3   OH230157   6.281   5.110   6.746  0.6202 -0.3020  0.2063
 2841TIP3    H130158   6.208   5.057   6.715 -0.6680  0.7572  1.2777
 2841TIP3    H230159   6.309   5.160   6.670 -1.1206  0.7397  0.2187
 2842TIP3   OH230160   6.142   2.169   6.337 -0.4747 -0.4179  0.3182
 2842TIP3    H130161   6.083   2.232   6.296 -0.6627 -1.1229 -0.5022
 2842TIP3    H230162   6.227   2.213   6.339 -0.5454 -0.2411 -0.5007
 2843TIP3   OH230163   5.924   6.457   6.326 -0.0828  0.2240  0.0444
 2843TIP3    H130164   6.015   6.457   6.355  0.1388  1.8771 -0.5738
 2843TIP3    H230165   5.919   6.384   6.264  0.7573 -0.0238  0.2527
 2844TIP3   OH230166   3.139   6.838   6.410  0.1039  0.0626  0.8369
 2844TIP3    H130167   3.084   6.910   6.378 -0.7953  0.4578  3.1133
 2844TIP3    H230168   3.104   6.760   6.366 -0.0760  0.7439 -0.2826
 2845TIP3   OH230169   1.584   0.990   1.080 -0.2568 -0.3230 -0.4441
 2845TIP3    H130170   1.613   1.015   0.993  1.1756 -1.1606 -0.2537
 2845TIP3    H230171   1.651   0.927   1.110 -0.4917  0.2316  1.3893
 2846TIP3   OH230172   6.166   6.730   7.198 -0.0565  0.3375  0.2277
 2846TIP3    H130173   6.207   6.758   7.116  1.4714 -2.2869 -0.0166
 2846TIP3    H230174   6.076   6.709   7.173  0.0077  0.8412 -0.4632
 2847TIP3   OH230175   2.512   5.394   8.074 -0.5695  0.3407  0.6348
 2847TIP3    H130176   2.591   5.447   8.081  0.7635 -1.2876 -1.1391
 2847TIP3    H230177   2.452   5.446   8.021  0.0775  0.7737  0.3197
 2848TIP3   OH230178   3.019   2.127   1.071  0.1900  0.1475 -0.3539
 2848TIP3    H130179   2.981   2.095   1.152  0.2226  1.9492  0.4288
 2848TIP3    H230180   3.094   2.180   1.098 -0.7524  2.1309 -1.3783
 2849TIP3   OH230181   0.035   5.909   0.595 -0.3532 -0.7827 -0.4369
 2849TIP3    H130182   0.078   5.979   0.643 -0.4950 -1.0989  0.1687
 2849TIP3    H230183   0.088   5.897   0.516 -0.3413  0.0065 -0.5547
 2850TIP3   OH230184   4.030   2.893   7.088  0.8551 -0.4082  0.4311
 2850TIP3    H130185   3.978   2.837   7.030  1.1432  0.7158 -0.9496
 2850TIP3    H230186   4.119   2.858   7.081  0.4956 -1.8207  2.1673
 2851TIP3   OH230187   5.128   2.536   1.222  0.4173 -0.2430  0.9254
 2851TIP3    H130188   5.149   2.458   1.273  0.9762 -1.0331 -0.4445
 2851TIP3    H230189   5.189   2.603   1.254 -0.1358 -0.3214  2.1839
 2852TIP3   OH230190   1.624   6.438   0.093  0.4078 -0.1484  0.9650
 2852TIP3    H130191   1.712   6.425   0.058  0.3665  0.1742  0.7347
 2852TIP3    H230192   1.628   6.402   0.182  0.4121 -1.2751  0.5224
 2853TIP3   OH230193   3.119   4.773   0.598  0.3068 -0.3936  0.0094
 2853TIP3    H130194   3.042   4.716   0.606  0.0911 -0.0543  0.3598
 2853TIP3    H230195   3.084   4.857   0.570  0.6220 -0.4133 -0.4496
 2854TIP3   OH230196   6.586   3.134   1.904  0.5246  0.7882 -0.4690
 2854TIP3    H130197   6.618   3.116   1.992  0.3280  0.1284 -0.5249
 2854TIP3    H230198   6.492   3.113   1.908  0.7060 -0.2166 -1.0893
 2855TIP3   OH230199   4.841   4.110   7.115 -0.2649 -0.4710  0.3351
 2855TIP3    H130200   4.805   4.024   7.094  0.2941 -1.1227  1.9247
 2855TIP3    H230201   4.804   4.132   7.200 -1.2063  1.3631 -0.4785
 2856TIP3   OH230202   4.406   6.233   0.567  0.1679 -0.5368  0.4544
 2856TIP3    H130203   4.316   6.236   0.536  0.4037  0.6662 -0.1845
 2856TIP3    H230204   4.399   6.229   0.663 -0.5561  0.1267  0.4316
 2857TIP3   OH230205   0.501   5.688   7.705 -0.0838  0.4586  0.1139
 2857TIP3    H130206   0.520   5.781   7.715  1.7772  0.1438 -0.0639
 2857TIP3    H230207   0.478   5.678   7.612 -0.9701  0.8359  0.2879
 2858TIP3   OH230208   6.071   6.451   1.483  0.0563 -0.1307 -0.3184
 2858TIP3    H130209   6.069   6.516   1.414  0.5189  1.5639  1.1871
 2858TIP3    H230210   5.990   6.466   1.532  1.2529  1.0104  1.4541
 2859TIP3   OH230211   2.065   6.708   1.582  0.0283 -0.2377  0.0964
 2859TIP3    H130212   2.067   6.798   1.548  0.4120 -0.0887  0.5108
 2859TIP3    H230213   1.994   6.666   1.533 -0.5677  0.4681  0.3264
 2860TIP3   OH230214   6.054   2.719   0.884 -0.5637 -0.2380 -0.3768
 2860TIP3    H130215   6.063   2.790   0.821  1.0728 -1.2742 -1.3815
 2860TIP3    H230216   6.089   2.754   0.966 -1.3712  0.6533 -0.3984
 2861TIP3   OH230217   3.713   4.406   0.457 -0.0273  0.0778 -0.1953
 2861TIP3    H130218   3.662   4.485   0.475 -0.6089 -0.5661  1.0620
 2861TIP3    H230219   3.804   4.437   0.455 -0.0144  0.4729  2.5564
 2862TIP3   OH230220   6.553   2.923   7.960 -0.1398 -0.3466  0.2507
 2862TIP3    H130221   6.458   2.919   7.949 -0.0823 -1.1225 -0.0142
 2862TIP3    H230222   6.587   2.866   7.892  0.4714 -0.8643  0.9735
 2863TIP3   OH230223   4.150   3.392   0.122  0.5074  0.0703  0.4665
 2863TIP3    H130224   4.163   3.360   0.033  2.5399  0.1760  0.6866
 2863TIP3    H230225   4.172   3.485   0.118 -0.4478  0.3351  0.8878
 2864TIP3   OH230226   6.142   4.440   6.947 -0.8399 -0.4838  0.3504
 2864TIP3    H130227   6.068   4.498   6.964 -1.0931 -0.2161 -1.4308
 2864TIP3    H230228   6.208   4.497   6.907 -1.6386 -1.5742 -2.8032
 2865TIP3   OH230229   6.123   2.396   7.639 -0.2900  0.2714 -0.6967
 2865TIP3    H130230   6.048   2.367   7.588  1.0041 -0.3761 -2.3172
 2865TIP3    H230231   6.163   2.465   7.587  0.5141  0.2839 -0.0877
 2866TIP3   OH230232   4.649   5.091   6.321 -0.4298  0.1226 -0.7785
 2866TIP3    H130233   4.618   5.021   6.263  1.3521 -1.0769 -0.3502
 2866TIP3    H230234   4.712   5.139   6.268  0.5627 -0.4487 -0.1435
 2867TIP3   OH230235   0.055   4.337   6.545 -0.5395  0.9015  0.5973
 2867TIP3    H130236   0.087   4.327   6.635  1.5623  1.4471 -0.0231
 2867TIP3    H230237   0.132   4.365   6.495 -1.6109  0.4974 -1.4064
 2868TIP3   OH230238   1.355   4.134   0.290 -0.1111 -0.6454 -0.1412
 2868TIP3    H130239   1.407   4.066   0.333 -0.9306 -1.5708 -0.5515
 2868TIP3    H230240   1.410   4.212   0.291  0.0816 -0.7432  2.1566
 2869TIP3   OH230241   2.891   3.900   0.245 -0.1562 -0.0115  0.7395
 2869TIP3    H130242   2.829   3.907   0.173 -0.5851  0.5807  1.1592
 2869TIP3    H230243   2.932   3.814   0.234 -1.6704 -0.7826  0.9500
 2870TIP3   OH230244   6.705   5.826   0.463 -0.3718  0.0249  0.2327
 2870TIP3    H130245   6.781   5.864   0.507 -0.6036  0.6008  0.1431
 2870TIP3    H230246   6.694   5.878   0.384  0.3806 -1.3590 -0.8390
 2871TIP3   OH230247   1.368   3.136   7.107 -0.1921  0.3858  0.5938
 2871TIP3    H130248   1.409   3.172   7.186  1.2689 -0.1333  0.1105
 2871TIP3    H230249   1.402   3.047   7.101 -2.2894 -0.4747  0.7375
 2872TIP3   OH230250   1.230   3.007   6.354 -0.1203  0.3512 -0.4618
 2872TIP3    H130251   1.282   2.933   6.322 -0.0244  0.1930  0.0494
 2872TIP3    H230252   1.293   3.061   6.403 -0.1450  0.8839 -1.0174
 2873TIP3   OH230253   2.973   6.586   0.779 -0.9055 -0.0096 -0.3474
 2873TIP3    H130254   2.998   6.615   0.867  1.6719  1.5459 -1.4542
 2873TIP3    H230255   2.878   6.587   0.779 -0.9665  0.8099  2.1533
 2874TIP3   OH230256   5.150   5.548   1.335 -0.0325 -0.0312 -0.3657
 2874TIP3    H130257   5.233   5.502   1.327 -0.4353 -1.1951  1.5069
 2874TIP3    H230258   5.170   5.628   1.384  0.2702  0.6527 -1.5700
 2875TIP3   OH230259   3.096   4.096   0.752  0.2466  0.0582  0.1037
 2875TIP3    H130260   3.026   4.062   0.808  0.8106  0.0469  0.8138
 2875TIP3    H230261   3.106   4.188   0.779 -0.2680  0.3886 -0.7896
 2876TIP3   OH230262   1.007   1.538   8.382 -0.4547  0.1498 -0.3506
 2876TIP3    H130263   1.029   1.466   8.322  1.9769 -0.4839  1.1398
 2876TIP3    H230264   1.092   1.579   8.402 -1.6551  2.8395 -0.3643
 2877TIP3   OH230265   4.103   2.277   0.406  0.0632  0.2791 -0.3391
 2877TIP3    H130266   4.023   2.299   0.360  0.0700  0.2951 -0.3434
 2877TIP3    H230267   4.164   2.248   0.338 -1.1397 -3.5084 -0.0548
 2878TIP3   OH230268   3.863   6.399   1.245  0.7339  0.6092 -0.1103
 2878TIP3    H130269   3.916   6.343   1.301 -2.8251 -1.3780  1.6690
 2878TIP3    H230270   3.896   6.383   1.157  2.1659 -1.5637  0.7337
 2879TIP3   OH230271   4.040   2.694   6.460 -0.0347 -0.3683  0.0641
 2879TIP3    H130272   4.012   2.738   6.380 -0.1814  0.9243  0.8020
 2879TIP3    H230273   3.960   2.685   6.512  0.0104 -1.4466 -0.0273
 2880TIP3   OH230274   6.130   5.828   6.231  0.0518  0.3373  0.5271
 2880TIP3    H130275   6.191   5.846   6.159 -0.0950 -0.6110  0.1466
 2880TIP3    H230276   6.088   5.912   6.247  1.4870  1.0304  0.8449
 2881TIP3   OH230277   0.066   0.198   0.653 -0.6407  0.5391  0.0614
 2881TIP3    H130278   0.087   0.110   0.684 -1.4554  0.1731 -0.3992
 2881TIP3    H230279  -0.021   0.216   0.688  0.0248  1.6826  1.2051
 2882TIP3   OH230280   0.873   2.298   7.480  0.4282 -0.3265  0.3809
 2882TIP3    H130281   0.867   2.343   7.564 -0.7366 -1.0021  0.6872
 2882TIP3    H230282   0.920   2.359   7.423 -1.1114  1.3097  0.7786
 2883TIP3   OH230283   1.748   1.017   7.392  0.1470  1.0670  0.0506
 2883TIP3    H130284   1.717   1.100   7.356  0.7024  1.0910 -0.3928
 2883TIP3    H230285   1.797   1.041   7.471  1.1201  1.2663 -0.5919
 2884TIP3   OH230286   1.592   3.147   8.145  0.0063  0.6507 -0.3602
 2884TIP3    H130287   1.620   3.057   8.131 -0.5421  0.1335  1.6148
 2884TIP3    H230288   1.496   3.144   8.136  0.0412  1.2031 -1.0300
 2885TIP3   OH230289   5.969   5.234   6.800 -0.3641  0.3727  0.7453
 2885TIP3    H130290   6.002   5.152   6.765 -0.3205  0.3276  0.8900
 2885TIP3    H230291   5.883   5.213   6.835 -0.3781  0.4018  0.7286
 2886TIP3   OH230292   3.267   0.623   0.405  0.1258  0.3837 -0.6283
 2886TIP3    H130293   3.297   0.713   0.389 -0.1208  0.3611 -1.2683
 2886TIP3    H230294   3.200   0.631   0.473  1.1426  0.5037  0.3885
 2887TIP3   OH230295   6.216   2.997   1.407 -0.4586 -0.0197 -0.0983
 2887TIP3    H130296   6.235   2.962   1.494 -0.7479  0.0151 -0.0197
 2887TIP3    H230297   6.263   3.080   1.404 -1.8066  0.8156  0.6719
 2888TIP3   OH230298   1.262   5.334   7.742 -0.4825 -0.3378 -0.0564
 2888TIP3    H130299   1.206   5.316   7.818  0.1326  0.9616  0.7486
 2888TIP3    H230300   1.351   5.314   7.772 -0.3020 -0.4395 -0.6506
 2889TIP3   OH230301   5.739   3.740   1.368 -0.3424  0.0488  0.4777
 2889TIP3    H130302   5.719   3.834   1.377 -2.0454 -0.1329 -0.8154
 2889TIP3    H230303   5.829   3.737   1.337 -0.0301  1.2149  1.1876
 2890TIP3   OH230304   0.215   6.259   7.505 -0.3393 -0.5855 -0.6817
 2890TIP3    H130305   0.170   6.187   7.550  0.5629 -1.4264 -1.0898
 2890TIP3    H230306   0.150   6.329   7.502 -0.8846 -1.0028  0.6659
 2891TIP3   OH230307   3.005   6.628   7.073 -0.0545  0.2783  0.1884
 2891TIP3    H130308   3.024   6.621   6.980 -2.0216  1.4554 -0.3675
 2891TIP3    H230309   2.921   6.584   7.084 -0.2054  0.8009  1.2646
 2892TIP3   OH230310   4.053   1.721   1.594  0.2845 -0.7195  0.0670
 2892TIP3    H130311   4.138   1.692   1.561  0.7856 -0.2752  0.9430
 2892TIP3    H230312   4.065   1.733   1.688  0.5976  3.6000 -0.2863
 2893TIP3   OH230313   6.639   6.524   1.162  0.2241 -0.0453 -0.4623
 2893TIP3    H130314   6.553   6.562   1.181 -0.0447 -0.6891 -0.3635
 2893TIP3    H230315   6.621   6.449   1.105  0.6034 -0.8533  0.4359
 2894TIP3   OH230316   2.147   6.020   8.224 -0.1776  0.6260  0.3684
 2894TIP3    H130317   2.122   5.989   8.137 -0.3704  0.5032  0.4688
 2894TIP3    H230318   2.073   5.996   8.280  1.1134 -1.9375  1.1556
 2895TIP3   OH230319   4.015   0.575   1.637 -0.1115 -0.3397 -0.2948
 2895TIP3    H130320   3.972   0.634   1.575 -0.2770 -0.1740 -0.0248
 2895TIP3    H230321   3.944   0.520   1.671 -0.1119 -0.0672  0.1502
 2896TIP3   OH230322   5.398   2.913   6.965 -0.0921  0.1295  0.0065
 2896TIP3    H130323   5.308   2.882   6.978 -0.7082  1.7349 -0.2097
 2896TIP3    H230324   5.425   2.875   6.881 -1.6086  1.8177 -1.3230
 2897TIP3   OH230325   3.381   1.641   8.660 -0.3118  0.4211 -0.2096
 2897TIP3    H130326   3.437   1.570   8.689 -0.8477 -0.2663 -0.8263
 2897TIP3    H230327   3.358   1.688   8.741  0.7635  0.4454  0.0971
 2898TIP3   OH230328   5.107   6.865   7.176  0.7813  0.6504 -0.1232
 2898TIP3    H130329   5.159   6.891   7.100  1.5896 -1.3753 -0.3456
 2898TIP3    H230330   5.134   6.925   7.245  1.5401  1.2480 -0.9103
 2899TIP3   OH230331   5.643   4.666   1.539 -0.3061 -0.3704  0.3213
 2899TIP3    H130332   5.693   4.747   1.547 -2.2329  0.8774  0.3100
 2899TIP3    H230333   5.652   4.624   1.624 -2.1849  1.6591  1.6116
 2900TIP3   OH230334   2.430   5.939   6.901  0.5228 -0.0449 -0.4079
 2900TIP3    H130335   2.428   6.004   6.971 -0.8238  1.4758 -1.8014
 2900TIP3    H230336   2.505   5.963   6.847 -1.3079  1.9350 -2.2642
 2901TIP3   OH230337   1.541   4.645   7.342 -0.1709 -0.3217  0.2299
 2901TIP3    H130338   1.533   4.586   7.267 -1.6746 -1.3527  1.1428
 2901TIP3    H230339   1.564   4.730   7.303  0.3728 -1.1119 -1.2636
 2902TIP3   OH230340   4.862   5.267   0.503 -0.2508 -0.0497  0.1468
 2902TIP3    H130341   4.922   5.341   0.514 -0.1564 -0.1220  0.1205
 2902TIP3    H230342   4.782   5.294   0.547 -0.1629  0.0063  0.2725
 2903TIP3   OH230343   6.391   5.112   0.674  0.1263  0.0460 -0.2669
 2903TIP3    H130344   6.369   5.164   0.597  1.3483  0.2925 -0.4749
 2903TIP3    H230345   6.425   5.030   0.640 -1.7642 -0.9157  0.0658
 2904TIP3   OH230346   2.080   1.210   0.321  0.1337 -0.0581  0.2518
 2904TIP3    H130347   2.005   1.161   0.356  0.3318 -0.5638 -0.0223
 2904TIP3    H230348   2.046   1.251   0.242  0.2992 -0.7791 -0.2050
 2905TIP3   OH230349   4.625   5.774   0.674  0.0797 -0.6678  0.5780
 2905TIP3    H130350   4.648   5.847   0.618  0.7729 -1.8268 -0.7060
 2905TIP3    H230351   4.637   5.807   0.763 -1.6587  1.4080  0.1183
 2906TIP3   OH230352   4.621   5.998   0.525 -0.7523  0.2408 -0.0596
 2906TIP3    H130353   4.657   6.029   0.442 -1.0098 -1.9930 -1.0723
 2906TIP3    H230354   4.551   6.061   0.546 -1.7463 -0.0098 -2.3760
 2907TIP3   OH230355   2.359   0.247   1.447  0.9852 -0.4849  0.4002
 2907TIP3    H130356   2.398   0.334   1.455  0.1234 -0.1158  0.7020
 2907TIP3    H230357   2.347   0.218   1.538 -1.0077  0.1452  0.3975
 2908TIP3   OH230358   6.811   3.840   7.814 -0.2870 -0.8149  0.5709
 2908TIP3    H130359   6.818   3.762   7.758 -1.9162  0.3996 -1.4799
 2908TIP3    H230360   6.757   3.811   7.888 -1.7804 -1.4339 -0.6973
 2909TIP3   OH230361   6.190   0.668   2.017  0.4555 -0.8744 -0.1048
 2909TIP3    H130362   6.274   0.624   2.001  1.4674  1.2687 -1.1639
 2909TIP3    H230363   6.214   0.759   2.035 -1.6525 -0.1662 -0.6074
 2910TIP3   OH230364   4.664   0.194   8.393 -0.1437  0.0249 -0.0311
 2910TIP3    H130365   4.602   0.237   8.452 -0.6809  1.9907 -1.9043
 2910TIP3    H230366   4.741   0.176   8.448 -2.1943 -2.2886  2.2981
 2911TIP3   OH230367   0.993   3.779   7.556 -0.0761 -0.6578  0.6470
 2911TIP3    H130368   1.050   3.744   7.625 -0.2322  2.2730  2.4415
 2911TIP3    H230369   0.950   3.702   7.519  1.7393 -2.5560  2.2612
 2912TIP3   OH230370   4.055   1.769   1.276  0.2266 -0.2729 -0.1707
 2912TIP3    H130371   4.034   1.716   1.353 -1.3748 -1.8297 -1.6206
 2912TIP3    H230372   4.124   1.720   1.231 -0.6685 -0.7264 -1.0767
 2913TIP3   OH230373   4.070   1.125   1.856 -0.0969 -0.5038  0.2268
 2913TIP3    H130374   4.045   1.033   1.852  1.2058 -0.8492 -0.4222
 2913TIP3    H230375   4.140   1.128   1.921  1.8381 -0.5066 -1.7186
 2914TIP3   OH230376   6.656   2.809   7.370 -0.2684  0.1356 -0.1952
 2914TIP3    H130377   6.608   2.793   7.289  0.1991 -0.8439 -0.2962
 2914TIP3    H230378   6.588   2.825   7.435 -0.7378 -0.8423 -0.4237
 2915TIP3   OH230379   1.878   0.040   8.478  0.4317  0.2012  0.3496
 2915TIP3    H130380   1.871  -0.052   8.453 -2.7675  0.8196 -1.6557
 2915TIP3    H230381   1.811   0.052   8.546 -1.3203  1.5329 -1.4940
 2916TIP3   OH230382   4.295   1.306   2.391  0.1427  0.5387  0.2743
 2916TIP3    H130383   4.223   1.252   2.424 -0.3817  0.8052 -0.4130
 2916TIP3    H230384   4.337   1.251   2.324 -0.5105  1.0428 -0.5630
 2917TIP3   OH230385   2.975   2.037   6.736  0.0453  0.2682  0.5343
 2917TIP3    H130386   2.945   1.976   6.669 -1.7111  0.5956  0.9442
 2917TIP3    H230387   3.070   2.038   6.729 -0.0293 -0.8323 -0.9355
 2918TIP3   OH230388   4.746   4.326   6.844 -0.1657 -0.3703  0.2791
 2918TIP3    H130389   4.722   4.289   6.929 -1.5910  0.3302  0.2197
 2918TIP3    H230390   4.685   4.286   6.782  0.4749 -0.4286 -0.3279
 2919TIP3   OH230391   4.458   5.841   0.025 -0.3953  0.0867  0.1120
 2919TIP3    H130392   4.497   5.811  -0.057  0.9096  1.2970  0.2386
 2919TIP3    H230393   4.532   5.845   0.086 -0.8393  1.6871  0.5968
 2920TIP3   OH230394   1.155   2.984   8.619  0.3937  0.3457  0.1349
 2920TIP3    H130395   1.173   3.056   8.560  1.2284  0.7325  0.8341
 2920TIP3    H230396   1.061   2.990   8.637 -0.1264 -0.4630 -1.9862
 2921TIP3   OH230397   3.797   4.325   7.530 -0.5091  0.1354 -0.1806
 2921TIP3    H130398   3.807   4.230   7.523 -0.3925  0.1379 -0.0405
 2921TIP3    H230399   3.844   4.349   7.610 -1.6839  0.1328  0.5413
 2922TIP3   OH230400   2.441   5.883   8.401 -0.7333  0.3514 -0.1919
 2922TIP3    H130401   2.369   5.867   8.339 -0.4835  1.2839 -0.7521
 2922TIP3    H230402   2.520   5.876   8.347 -0.4032 -0.5044  0.3868
 2923TIP3   OH230403   0.632   3.296   1.655 -0.1625  0.2762  0.3156
 2923TIP3    H130404   0.636   3.327   1.746 -0.5269 -1.7241  1.0652
 2923TIP3    H230405   0.695   3.225   1.651  0.3068  0.7375 -1.2117
 2924TIP3   OH230406   0.956   0.787   1.362 -0.1073  0.1243 -0.5483
 2924TIP3    H130407   0.866   0.797   1.390 -0.1876 -0.0909 -0.7249
 2924TIP3    H230408   0.984   0.876   1.338 -0.3807  0.1422 -0.8177
 2925TIP3   OH230409   5.533   3.007   1.917 -0.4660  0.2914  0.2341
 2925TIP3    H130410   5.439   3.011   1.934 -0.6613  0.9843 -0.8431
 2925TIP3    H230411   5.541   2.954   1.838  0.1888 -0.9403  1.1002
 2926TIP3   OH230412   2.287   6.738   8.400  0.5866 -0.6594 -0.4492
 2926TIP3    H130413   2.319   6.791   8.327 -2.7667 -0.4529 -1.9459
 2926TIP3    H230414   2.255   6.801   8.464  1.2763 -0.8642  0.1047
 2927TIP3   OH230415   0.377   4.161   0.069 -0.1504  0.1658  0.7354
 2927TIP3    H130416   0.323   4.089   0.038 -3.8834  2.6866  0.8234
 2927TIP3    H230417   0.346   4.178   0.158 -0.9679  3.1672 -0.0252
 2928TIP3   OH230418   0.477   4.443   6.804  0.8187 -0.2453 -0.0739
 2928TIP3    H130419   0.508   4.520   6.755 -2.1432  0.4011 -1.1727
 2928TIP3    H230420   0.488   4.466   6.896 -0.0159  1.5555 -0.3855
 2929TIP3   OH230421   4.021   2.183   1.479  0.7591  0.1166 -0.5589
 2929TIP3    H130422   4.026   2.277   1.466 -0.1677  0.4567  1.2659
 2929TIP3    H230423   3.943   2.156   1.431  0.3382  0.4802 -0.0845
 2930TIP3   OH230424   0.525   3.812   2.337  0.9514  0.7266 -0.0718
 2930TIP3    H130425   0.550   3.893   2.382  1.3491  0.6672 -0.1810
 2930TIP3    H230426   0.517   3.747   2.407  2.9743  0.2843 -0.2059
 2931TIP3   OH230427   4.784   3.605   0.924  0.3967 -0.8572 -0.3306
 2931TIP3    H130428   4.864   3.584   0.972  1.7993  2.4650 -0.9164
 2931TIP3    H230429   4.753   3.686   0.964 -0.3710  0.1004 -2.6968
 2932TIP3   OH230430   4.729   5.059   6.568  0.5112 -0.2880  0.1669
 2932TIP3    H130431   4.709   5.068   6.475  0.9691 -0.7816  0.0135
 2932TIP3    H230432   4.734   5.149   6.600 -2.2432 -0.0927  0.3114
 2933TIP3   OH230433   3.702   3.635   0.679 -0.3196 -0.0094 -0.0458
 2933TIP3    H130434   3.651   3.597   0.750 -0.5462 -1.9619 -1.1507
 2933TIP3    H230435   3.640   3.645   0.607  0.3435 -0.2367 -0.6697
 2934TIP3   OH230436   3.243   3.759   8.149 -0.4246  0.6945  0.3499
 2934TIP3    H130437   3.275   3.849   8.139 -0.3824  0.7303  0.7804
 2934TIP3    H230438   3.166   3.755   8.093 -0.7421  1.1667  0.7360
 2935TIP3   OH230439   1.177   4.559   1.502  0.5244 -0.2681 -0.2366
 2935TIP3    H130440   1.188   4.516   1.417 -0.7277  2.2584 -1.7744
 2935TIP3    H230441   1.088   4.535   1.530 -0.3472  1.4881 -1.3069
 2936TIP3   OH230442   3.128   2.219   0.339 -0.0222  0.3069  0.0147
 2936TIP3    H130443   3.107   2.305   0.303  1.6152  1.0293  0.6850
 2936TIP3    H230444   3.148   2.165   0.263  0.2774  0.9069 -0.3423
 2937TIP3   OH230445   4.769   3.255   8.588  0.3442 -0.5384 -0.4187
 2937TIP3    H130446   4.683   3.287   8.561  0.5727  0.8246  0.3574
 2937TIP3    H230447   4.760   3.160   8.593 -0.1945 -0.7580 -3.5257
 2938TIP3   OH230448   5.711   0.469   0.307  0.5398  0.1277  0.8674
 2938TIP3    H130449   5.763   0.449   0.229  1.1684  1.1719  0.9863
 2938TIP3    H230450   5.733   0.560   0.327 -0.8746  0.3935  1.3046
 2939TIP3   OH230451   4.228   2.133   8.555  0.1817  0.0474  0.6989
 2939TIP3    H130452   4.252   2.074   8.626 -2.5060 -0.0153  1.6651
 2939TIP3    H230453   4.299   2.123   8.491  2.2668 -0.5139  2.9463
 2940TIP3   OH230454   5.728   6.157   1.457 -0.4911 -0.4950 -0.8039
 2940TIP3    H130455   5.684   6.240   1.471  0.5878  0.1680 -1.2579
 2940TIP3    H230456   5.756   6.158   1.365 -0.1391 -1.1928 -0.7192
 2941TIP3   OH230457   2.931   5.873   8.273  0.3748  0.0248  0.3368
 2941TIP3    H130458   3.016   5.840   8.302  0.7358 -1.9260 -2.5723
 2941TIP3    H230459   2.929   5.856   8.179 -1.9576  3.0075 -0.3178
 2942TIP3   OH230460   2.037   5.148   7.622  0.3576 -0.2464  0.1853
 2942TIP3    H130461   2.077   5.083   7.563  1.2904  2.0233 -1.8417
 2942TIP3    H230462   2.111   5.190   7.664 -0.1627  0.4531  0.4065
 2943TIP3   OH230463   1.999   3.744   8.349  0.9697 -0.0552 -0.1055
 2943TIP3    H130464   1.986   3.835   8.374  0.0396 -0.0140 -0.7117
 2943TIP3    H230465   1.923   3.698   8.385  0.4706 -0.2741 -1.3824
 2944TIP3   OH230466   4.653   4.923   7.145  0.0770  0.2683 -0.2034
 2944TIP3    H130467   4.734   4.876   7.164 -0.6318 -1.3658 -0.9826
 2944TIP3    H230468   4.678   5.016   7.144  1.9314 -0.2018 -0.5026
 2945TIP3   OH230469   4.632   6.391   6.583  0.4722  0.2427 -0.1834
 2945TIP3    H130470   4.694   6.384   6.656 -0.3873 -0.4011  0.5090
 2945TIP3    H230471   4.687   6.392   6.505  1.3363 -0.8654  0.3874
 2946TIP3   OH230472   4.142   0.499   7.126  0.0966 -0.5118 -0.5507
 2946TIP3    H130473   4.224   0.449   7.125  0.0368 -0.7677  1.9722
 2946TIP3    H230474   4.140   0.543   7.041  2.7820 -0.6066 -0.7444
 2947TIP3   OH230475   2.360   6.685   1.403 -1.2196 -0.7620  0.3499
 2947TIP3    H130476   2.370   6.721   1.491  0.2891 -0.0785 -0.0549
 2947TIP3    H230477   2.422   6.612   1.399  0.0101  0.2877 -0.6497
 2948TIP3   OH230478   2.381   3.002   7.537  0.7298 -0.1236 -0.2018
 2948TIP3    H130479   2.377   2.921   7.486  2.5314 -0.9526  0.8949
 2948TIP3    H230480   2.289   3.027   7.548 -0.1354 -3.4464  1.5956
 2949TIP3   OH230481   4.690   2.750   8.375  0.4332 -0.4407 -0.1033
 2949TIP3    H130482   4.613   2.786   8.330 -0.6336 -1.0275  1.1737
 2949TIP3    H230483   4.720   2.679   8.319 -0.1890 -0.4562 -0.4237
 2950TIP3   OH230484   6.006   6.159   7.142 -0.7537 -0.1790 -0.3629
 2950TIP3    H130485   5.995   6.064   7.134  0.0824 -0.2379 -0.9864
 2950TIP3    H230486   6.077   6.180   7.081 -1.4107  0.9452 -0.7760
 2951TIP3   OH230487   3.819   4.825   8.325 -0.4557 -0.0082  0.1994
 2951TIP3    H130488   3.880   4.828   8.398 -1.9882  0.5609  1.5089
 2951TIP3    H230489   3.744   4.775   8.357 -1.1142  0.1454 -1.0134
 2952TIP3   OH230490   2.006   3.732   2.013  0.5965  0.1147  0.4894
 2952TIP3    H130491   2.058   3.653   2.027  0.7660  0.4078  1.6291
 2952TIP3    H230492   2.062   3.789   1.960  1.2854  0.2598  1.3531
 2953TIP3   OH230493   5.976   5.951   1.425 -0.8699  0.6722  0.0555
 2953TIP3    H130494   6.018   5.952   1.511 -1.6415  0.8736  0.4384
 2953TIP3    H230495   5.940   6.039   1.414  0.7183  1.2191 -1.2475
 2954TIP3   OH230496   4.024   2.853   6.240  0.4251  0.0436 -0.0472
 2954TIP3    H130497   3.954   2.885   6.297  1.4629 -0.4537  1.5629
 2954TIP3    H230498   4.050   2.930   6.189 -1.0656  0.3081 -0.4754
 2955TIP3   OH230499   5.121   3.920   0.416  0.2554  0.4994 -0.6293
 2955TIP3    H130500   5.187   3.957   0.357  0.3269  0.6786 -0.4366
 2955TIP3    H230501   5.075   3.855   0.362  1.8207 -1.0079 -0.2404
 2956TIP3   OH230502   1.103   4.536   7.771 -0.2508 -0.3918 -0.0662
 2956TIP3    H130503   1.180   4.486   7.797  0.7319  0.4876 -1.1998
 2956TIP3    H230504   1.130   4.627   7.778 -1.0338 -0.0822 -0.9238
 2957TIP3   OH230505   1.397   1.044   1.989 -0.1399  0.0868  0.0085
 2957TIP3    H130506   1.491   1.062   1.983 -0.1017  0.3558  1.2610
 2957TIP3    H230507   1.391   0.964   2.042 -0.6031 -0.1647 -0.4162
 2958TIP3   OH230508   1.589   2.053   2.186  0.1034 -0.7150  0.4908
 2958TIP3    H130509   1.507   2.100   2.204  1.7073  1.8057  2.0640
 2958TIP3    H230510   1.592   1.984   2.252 -1.6655 -2.2385 -0.9438
 2959TIP3   OH230511   2.335   2.764   2.234 -0.1625  0.0399 -0.0807
 2959TIP3    H130512   2.322   2.852   2.199 -1.1511  0.1640  0.5568
 2959TIP3    H230513   2.430   2.753   2.236 -0.0314  0.9734 -0.4586
 2960TIP3   OH230514   1.276   1.788   8.508  0.2150  0.1730  0.5743
 2960TIP3    H130515   1.249   1.865   8.558 -0.7299 -0.3465  0.8754
 2960TIP3    H230516   1.224   1.716   8.543 -0.7462 -0.1628 -1.3843
 2961TIP3   OH230517   6.338   1.359   0.239  0.0178  0.4401 -0.4031
 2961TIP3    H130518   6.311   1.313   0.318  1.3406  1.3535  0.6172
 2961TIP3    H230519   6.355   1.290   0.175 -0.5905 -0.3336  0.2504
 2962TIP3   OH230520   5.311   4.134   0.869  0.3085  0.6808 -0.2210
 2962TIP3    H130521   5.261   4.094   0.940 -0.9338  1.9781 -0.3194
 2962TIP3    H230522   5.381   4.181   0.914  1.6263 -1.2892 -0.0928
 2963TIP3   OH230523   3.342   3.269   7.922  0.4018  0.0656  0.0528
 2963TIP3    H130524   3.397   3.257   8.000  0.7775 -1.1819 -0.3935
 2963TIP3    H230525   3.305   3.183   7.905  0.0326  0.4138 -0.9443
 2964TIP3   OH230526   6.137   2.509   6.487  0.0576 -0.4838  0.0097
 2964TIP3    H130527   6.228   2.525   6.463  0.5783 -1.4382  1.2426
 2964TIP3    H230528   6.100   2.461   6.413  0.8451 -0.9882 -0.0612
 2965TIP3   OH230529   5.413   3.074   1.211  0.0762  0.1389  0.2456
 2965TIP3    H130530   5.362   3.120   1.277 -1.9199  1.8651 -2.3144
 2965TIP3    H230531   5.442   2.994   1.255 -0.3622  1.5843  3.4258
 2966TIP3   OH230532   6.594   1.716   6.624 -0.8516 -0.3320  0.0445
 2966TIP3    H130533   6.560   1.781   6.563  2.8361  0.9899 -0.9123
 2966TIP3    H230534   6.599   1.763   6.708 -1.7717 -0.7010  0.3191
 2967TIP3   OH230535   3.898   4.906   7.715  0.1965 -0.0216  0.1175
 2967TIP3    H130536   3.806   4.932   7.727  0.2781  0.5100 -0.4082
 2967TIP3    H230537   3.938   4.922   7.801 -0.5037 -1.5617  0.7713
 2968TIP3   OH230538   2.771   0.970   8.492  0.5423 -0.2138  0.2199
 2968TIP3    H130539   2.789   0.928   8.408  0.1803  2.1701 -1.1346
 2968TIP3    H230540   2.677   0.989   8.490  0.3630 -0.8271  1.5543
 2969TIP3   OH230541   1.493   6.530   7.628  0.0339  0.1759  0.4811
 2969TIP3    H130542   1.575   6.491   7.657  0.3972 -0.4435 -1.2603
 2969TIP3    H230543   1.462   6.580   7.703  2.4190  1.1188  0.9053
 2970TIP3   OH230544   6.084   1.486   0.238 -0.2895 -0.7814 -0.0501
 2970TIP3    H130545   6.175   1.458   0.242 -0.1939 -0.3883  0.7840
 2970TIP3    H230546   6.036   1.418   0.285 -0.4109 -0.8984 -0.3380
 2971TIP3   OH230547   0.380   0.592   8.029  0.8029 -0.5285 -0.6839
 2971TIP3    H130548   0.409   0.631   8.112 -0.9038 -1.8325  0.5899
 2971TIP3    H230549   0.448   0.618   7.966  3.1673 -1.0250  1.4883
 2972TIP3   OH230550   1.827   5.622   7.201  0.0789 -0.1183  0.1429
 2972TIP3    H130551   1.802   5.568   7.126  0.5976 -0.0349 -0.0905
 2972TIP3    H230552   1.879   5.693   7.163 -0.7021  0.6276  0.4273
 2973TIP3   OH230553   3.558   0.511   0.760  0.5659 -0.3163  0.5519
 2973TIP3    H130554   3.528   0.601   0.769  1.0450 -0.1659  0.6611
 2973TIP3    H230555   3.606   0.510   0.678 -0.2617 -0.7075  0.0521
 2974TIP3   OH230556   1.278   5.837   8.301 -0.2316  0.3668 -0.4413
 2974TIP3    H130557   1.349   5.775   8.315 -1.1795 -0.9500 -1.1848
 2974TIP3    H230558   1.291   5.869   8.212  2.0042  3.6862  0.8724
 2975TIP3   OH230559   0.656   0.191   8.617 -0.3449 -0.1361  0.2469
 2975TIP3    H130560   0.676   0.214   8.526  0.3600  0.7982  0.6177
 2975TIP3    H230561   0.732   0.143   8.647 -0.2004  0.3039  0.5928
 2976TIP3   OH230562   1.120   4.843   1.574 -0.2604  0.0426  0.1136
 2976TIP3    H130563   1.080   4.766   1.533  0.9423  0.1251 -1.2827
 2976TIP3    H230564   1.177   4.807   1.642 -1.0302 -0.1843  0.6554
 2977TIP3   OH230565   3.022   1.074   1.553 -0.4533 -0.0084  0.0901
 2977TIP3    H130566   3.083   1.148   1.560 -0.1225 -0.2324 -0.4029
 2977TIP3    H230567   2.936   1.114   1.552 -0.2722  0.3769 -0.2460
 2978TIP3   OH230568   4.846   1.832   0.322  0.1956 -0.4148  0.5875
 2978TIP3    H130569   4.882   1.771   0.386 -1.3058 -0.5405  1.3544
 2978TIP3    H230570   4.751   1.831   0.338 -0.1152  0.2848 -0.9968
 2979TIP3   OH230571   5.353   1.328   1.282  0.0323 -0.0154 -0.3750
 2979TIP3    H130572   5.290   1.376   1.337 -2.0963 -1.3453 -1.5052
 2979TIP3    H230573   5.416   1.292   1.344 -1.4105 -0.1839  1.0719
 2980TIP3   OH230574   1.401   6.133   7.786  0.4487  0.1933  0.4570
 2980TIP3    H130575   1.414   6.039   7.800 -0.1865  0.4053  2.7457
 2980TIP3    H230576   1.338   6.160   7.853  0.4437  2.2294 -0.2800
 2981TIP3   OH230577   0.110   5.833   0.316  0.2625 -0.4783  0.1783
 2981TIP3    H130578   0.174   5.762   0.316 -1.1101 -1.7668 -0.5219
 2981TIP3    H230579   0.148   5.900   0.260  0.9661 -1.2593 -0.2888
 2982TIP3   OH230580   1.478   4.758   0.566  0.2325 -0.3393  0.4348
 2982TIP3    H130581   1.527   4.724   0.641  0.4103 -0.2353  0.3672
 2982TIP3    H230582   1.514   4.711   0.491  0.0416 -0.4566  0.4171
 2983TIP3   OH230583   5.005   3.376   6.894  0.1058  0.0907 -0.2225
 2983TIP3    H130584   5.042   3.432   6.961  0.3327 -1.8365  1.3741
 2983TIP3    H230585   5.078   3.359   6.834  0.7654 -0.5139  0.7158
 2984TIP3   OH230586   2.410   4.626   7.306  0.0094 -0.6424  0.4614
 2984TIP3    H130587   2.425   4.621   7.212  0.8084 -2.7381  0.6489
 2984TIP3    H230588   2.486   4.674   7.340 -0.7281  0.9187 -0.0154
 2985TIP3   OH230589   5.047   3.555   1.064 -0.3067  0.2238  0.1616
 2985TIP3    H130590   5.121   3.500   1.036  0.2682  1.0861 -0.0597
 2985TIP3    H230591   5.001   3.501   1.128  1.3493  0.1901  1.3950
 2986TIP3   OH230592   2.464   1.981   7.127 -0.0217 -0.3064  0.1284
 2986TIP3    H130593   2.460   1.992   7.032 -0.7177  0.1740  0.2029
 2986TIP3    H230594   2.535   2.038   7.155  0.9027 -1.2465 -0.1979
 2987TIP3   OH230595   2.826   0.295   8.207 -0.6194 -0.0260  0.2097
 2987TIP3    H130596   2.818   0.346   8.287 -2.4616 -0.3287  0.2510
 2987TIP3    H230597   2.820   0.204   8.236 -2.8366 -0.1191 -0.3585
 2988TIP3   OH230598   2.283   5.768   7.692 -0.2657  0.0914 -0.0741
 2988TIP3    H130599   2.271   5.823   7.615 -1.2931  2.0197  1.3564
 2988TIP3    H230600   2.260   5.680   7.663  0.5574  0.5221 -2.2397
 2989TIP3   OH230601   5.403   4.110   2.523 -0.1732 -0.0096  0.0131
 2989TIP3    H130602   5.338   4.042   2.507 -0.3827  0.4462 -1.1671
 2989TIP3    H230603   5.487   4.066   2.512 -0.2620 -0.5480  1.3230
 2990TIP3   OH230604   1.516   4.328   7.320 -0.0278 -0.1228  0.4069
 2990TIP3    H130605   1.489   4.237   7.326 -1.2424  0.2185  0.2803
 2990TIP3    H230606   1.565   4.343   7.401  0.6751 -1.0338  0.1638
 2991TIP3   OH230607   2.790   4.261   0.401  0.2781  0.4751 -0.3452
 2991TIP3    H130608   2.758   4.290   0.315  0.6554 -0.2755 -0.7535
 2991TIP3    H230609   2.820   4.171   0.386 -2.0945 -0.6805  1.1451
 2992TIP3   OH230610   1.136   2.213   7.547 -0.3605  0.0109 -0.0469
 2992TIP3    H130611   1.197   2.167   7.489  0.7936 -0.7372  1.6892
 2992TIP3    H230612   1.062   2.237   7.490  1.3865  0.6869 -2.1679
 2993TIP3   OH230613   1.710   4.590   6.520  0.5248 -0.2974  0.3650
 2993TIP3    H130614   1.615   4.594   6.509  0.5309 -0.0130  0.3991
 2993TIP3    H230615   1.734   4.501   6.496  0.4597  0.0887 -1.2315
 2994TIP3   OH230616   3.275   4.617   8.083  0.1324 -0.5913  0.2485
 2994TIP3    H130617   3.195   4.574   8.115  0.8697 -2.2182  0.0175
 2994TIP3    H230618   3.257   4.634   7.991 -1.1933  2.1936  0.8983
 2995TIP3   OH230619   5.638   6.718   1.158  0.5621  0.2460  0.5742
 2995TIP3    H130620   5.720   6.707   1.207  1.3186 -0.4602 -0.7979
 2995TIP3    H230621   5.570   6.695   1.221  1.5631 -1.6104  1.0517
 2996TIP3   OH230622   0.530   6.739   7.936  0.4822 -0.2344  0.4327
 2996TIP3    H130623   0.517   6.653   7.976  0.7165 -1.3783 -1.8330
 2996TIP3    H230624   0.493   6.732   7.848  3.1832  0.9750 -0.9427
 2997TIP3   OH230625   4.363   2.920   1.755 -0.7212  0.9388  0.3800
 2997TIP3    H130626   4.278   2.875   1.762  0.2400 -0.7991  1.7351
 2997TIP3    H230627   4.412   2.869   1.691 -0.6306  1.8446 -0.2834
 2998TIP3   OH230628   1.236   1.513   0.912 -0.0373  0.4259 -0.0646
 2998TIP3    H130629   1.198   1.437   0.956  0.5244 -0.4688 -1.0659
 2998TIP3    H230630   1.221   1.586   0.972 -0.2134 -0.5523  1.1246
 2999TIP3   OH230631   4.630   0.240   5.846 -0.5944  0.9869  0.2255
 2999TIP3    H130632   4.679   0.158   5.847 -1.3548  0.4659 -1.7986
 2999TIP3    H230633   4.556   0.225   5.904 -2.5583 -1.0207 -2.5597
 3000TIP3   OH230634   4.391   1.179   6.270  0.2990  0.9233  0.2082
 3000TIP3    H130635   4.429   1.232   6.200 -0.0366  1.2167  0.2422
 3000TIP3    H230636   4.397   1.089   6.238  1.0660  0.9614  0.2413
 3001TIP3   OH230637   4.942   0.456   0.048  0.5293  0.1197  0.1084
 3001TIP3    H130638   4.953   0.487  -0.042  0.2645 -1.2916 -0.4333
 3001TIP3    H230639   4.849   0.436   0.056  0.7329 -0.7677  0.3463
 3002TIP3   OH230640   5.557   4.443   7.577  0.6214 -0.3193  0.4772
 3002TIP3    H130641   5.527   4.419   7.665  2.2224 -0.0120  1.1470
 3002TIP3    H230642   5.507   4.387   7.518  1.1622 -2.2047  1.7209
 3003TIP3   OH230643   6.840   6.257   1.575  0.0471  0.2491  0.4936
 3003TIP3    H130644   6.929   6.287   1.561  0.7780 -1.7841  0.4999
 3003TIP3    H230645   6.802   6.321   1.635  1.2750  1.4867 -0.0107
 3004TIP3   OH230646   1.556   4.902   8.431 -0.7732 -0.1482  0.1905
 3004TIP3    H130647   1.583   4.821   8.474 -1.5830  0.3804  1.8027
 3004TIP3    H230648   1.611   4.970   8.471  1.0092 -0.0004 -2.2490
 3005TIP3   OH230649   1.872   1.670   7.611 -0.5468 -0.1842 -0.3586
 3005TIP3    H130650   1.776   1.677   7.606 -0.6437 -1.2419 -0.3114
 3005TIP3    H230651   1.891   1.683   7.704 -0.7204 -0.5984 -0.2585
 3006TIP3   OH230652   2.043   6.872   0.594 -0.0037  0.7453  0.0555
 3006TIP3    H130653   2.130   6.831   0.594  0.0386  0.7254 -2.1723
 3006TIP3    H230654   1.985   6.805   0.557 -0.2330  2.0068 -2.0464
 3007TIP3   OH230655   1.079   6.387   8.138 -0.0907  0.0423  0.4885
 3007TIP3    H130656   0.984   6.393   8.145 -0.1375 -0.9028  0.7767
 3007TIP3    H230657   1.110   6.375   8.228  0.4106  1.5971  0.5403
 3008TIP3   OH230658   0.578   2.246   0.817  0.4271 -0.2747 -0.4252
 3008TIP3    H130659   0.592   2.264   0.724  0.3521  2.3729  0.0236
 3008TIP3    H230660   0.573   2.150   0.822  1.2897 -0.5176 -3.0009
 3009TIP3   OH230661   5.974   3.041   7.477 -0.1063 -0.2065  0.5859
 3009TIP3    H130662   6.007   3.129   7.495 -1.2279  0.4066 -0.2471
 3009TIP3    H230663   5.887   3.039   7.516  0.3309 -1.3534  1.5818
 3010TIP3   OH230664   1.294   2.086   2.133  0.6785  0.0640  0.6667
 3010TIP3    H130665   1.285   1.991   2.139 -0.4160  0.0843 -0.2951
 3010TIP3    H230666   1.268   2.117   2.220  2.7491 -0.5718  1.5856
 3011TIP3   OH230667   3.148   3.338   0.499  0.8248  0.8162  0.0744
 3011TIP3    H130668   3.151   3.276   0.572  0.7900  0.8749  0.1249
 3011TIP3    H230669   3.239   3.342   0.469  0.9892  1.4158  0.6339
 3012TIP3   OH230670   2.371   0.540   1.339  0.5108 -0.4766  0.6220
 3012TIP3    H130671   2.391   0.508   1.427 -2.3206 -2.2657  0.7481
 3012TIP3    H230672   2.375   0.636   1.347 -1.8074 -0.4616  3.4096
 3013TIP3   OH230673   1.661   3.403   8.251 -0.2738 -0.2404  0.7980
 3013TIP3    H130674   1.715   3.471   8.291  0.7376 -0.2384 -0.4887
 3013TIP3    H230675   1.724   3.336   8.224 -1.0515 -0.8074  0.3494
 3014TIP3   OH230676   2.730   3.247   6.623  0.3490 -0.1007 -0.9037
 3014TIP3    H130677   2.796   3.200   6.572 -0.5903 -0.5106 -1.7518
 3014TIP3    H230678   2.782   3.303   6.682  1.4833 -1.9613 -0.0486
 3015TIP3   OH230679   2.195   2.451   8.149  0.5098  0.0353 -0.2109
 3015TIP3    H130680   2.150   2.535   8.156  1.5110  0.5958 -0.2958
 3015TIP3    H230681   2.259   2.464   8.080  0.8694 -0.7138 -0.0299
 3016TIP3   OH230682   3.258   1.869   1.312  0.2467 -0.8725  0.1034
 3016TIP3    H130683   3.170   1.907   1.315  0.9857  1.3444 -2.4580
 3016TIP3    H230684   3.303   1.907   1.388 -0.5180 -0.7661  0.5131
 3017TIP3   OH230685   1.241   4.153   8.452  0.1813 -0.1081 -0.4964
 3017TIP3    H130686   1.260   4.097   8.528  2.4343  0.3120 -0.6863
 3017TIP3    H230687   1.252   4.242   8.485 -3.4123  0.3554 -0.1847
 3018TIP3   OH230688   5.898   1.341   7.984  0.3985 -0.7883  0.0055
 3018TIP3    H130689   5.914   1.427   7.945 -1.6667  0.0969  0.9216
 3018TIP3    H230690   5.941   1.279   7.925 -0.0039  0.7046 -1.9886
 3019TIP3   OH230691   6.424   4.103   1.216 -0.2634  0.3726 -0.0460
 3019TIP3    H130692   6.472   4.136   1.139 -1.9754 -0.7407 -1.6925
 3019TIP3    H230693   6.339   4.148   1.212 -1.9336 -2.6010 -1.2749
 3020TIP3   OH230694   2.711   4.387   1.641 -0.0205 -0.0960 -0.0107
 3020TIP3    H130695   2.792   4.422   1.604  1.1821 -1.1116  1.5344
 3020TIP3    H230696   2.643   4.415   1.580  1.6933 -0.7439 -2.3933
 3021TIP3   OH230697   1.132   1.786   1.415  0.1116  0.1784  0.1671
 3021TIP3    H130698   1.126   1.852   1.484 -0.1780  0.9277 -0.5575
 3021TIP3    H230699   1.046   1.788   1.373 -0.1187 -1.1266  0.5465
 3022TIP3   OH230700   2.309   1.929   2.495 -0.0091 -0.2846 -0.1896
 3022TIP3    H130701   2.321   1.850   2.548 -0.6792  0.7006  1.5553
 3022TIP3    H230702   2.255   1.902   2.422  1.0941 -1.7561 -0.4952
 3023TIP3   OH230703   4.794   0.150   1.764 -0.3575  0.3753 -0.6480
 3023TIP3    H130704   4.722   0.191   1.813 -0.7905 -0.3800 -0.6337
 3023TIP3    H230705   4.761   0.143   1.675 -0.2478  0.1433 -0.6697
 3024TIP3   OH230706   4.431   1.178   2.139 -0.1009 -0.4843  0.4414
 3024TIP3    H130707   4.402   1.261   2.102  0.3415 -1.0093 -1.1804
 3024TIP3    H230708   4.524   1.174   2.117  0.6079 -0.1270  3.0462
 3025TIP3   OH230709   4.740   3.158   1.041 -0.1550  0.1808  0.0478
 3025TIP3    H130710   4.705   3.245   1.022  0.1953  0.0398 -1.3584
 3025TIP3    H230711   4.812   3.147   0.978  0.7333 -0.5618  1.1540
 3026TIP3   OH230712   5.518   1.568   0.994  0.3380 -0.5164  0.9381
 3026TIP3    H130713   5.517   1.620   0.914  1.4309 -0.6291  0.8320
 3026TIP3    H230714   5.430   1.530   0.999  0.6966 -1.7600 -1.0548
 3027TIP3   OH230715   6.511   6.778   8.537 -0.2736 -0.2984  0.1789
 3027TIP3    H130716   6.435   6.819   8.495 -1.0219 -2.0794 -0.3258
 3027TIP3    H230717   6.561   6.851   8.574 -2.1362  0.9341  0.3866
 3028TIP3   OH230718   6.221   2.181   1.068  0.2635  0.3549 -0.2155
 3028TIP3    H130719   6.203   2.274   1.053  1.0644  0.6146  0.3446
 3028TIP3    H230720   6.135   2.139   1.066 -0.1216  1.1307 -0.3174
 3029TIP3   OH230721   1.204   2.508   6.306  0.5927 -0.4591 -0.0966
 3029TIP3    H130722   1.245   2.452   6.372  0.7860  0.5368  0.6599
 3029TIP3    H230723   1.241   2.595   6.322  0.4901 -0.1502 -1.4043
 3030TIP3   OH230724   6.860   6.539   0.774  0.4405  0.0126  0.2089
 3030TIP3    H130725   6.830   6.463   0.823  1.5348  0.3213  1.4031
 3030TIP3    H230726   6.781   6.591   0.760 -0.2666 -1.1736 -0.3503
 3031TIP3   OH230727   4.097   1.940   8.083  0.5846  0.1534  0.0440
 3031TIP3    H130728   4.082   2.034   8.077 -1.5780  0.0112  1.7324
 3031TIP3    H230729   4.032   1.902   8.022  0.5795 -0.2631  0.3028
 3032TIP3   OH230730   4.422   5.046   1.568  0.5859 -0.1403 -0.5158
 3032TIP3    H130731   4.478   5.087   1.501  0.8516  0.9246  0.3238
 3032TIP3    H230732   4.349   5.107   1.578  0.5324 -0.3151  0.1451
 3033TIP3   OH230733   0.081   5.360   2.259  0.0543 -0.8190 -0.2925
 3033TIP3    H130734   0.122   5.403   2.334  0.6843 -3.5475  1.0582
 3033TIP3    H230735  -0.005   5.400   2.252  0.5756  0.6036  0.8667
 3034TIP3   OH230736   0.159   3.556   8.487  0.0805  0.1382 -0.1087
 3034TIP3    H130737   0.243   3.527   8.451  0.1916 -1.0570  1.0188
 3034TIP3    H230738   0.164   3.652   8.486  1.6417  0.0890  0.3443
 3035TIP3   OH230739   0.765   5.398   0.047 -0.4872  0.5430  0.4531
 3035TIP3    H130740   0.671   5.385   0.064 -0.7615  1.3476 -0.3731
 3035TIP3    H230741   0.789   5.324  -0.009 -0.6287  0.3491  0.6442
 3036TIP3   OH230742   5.667   5.351   1.872  0.2436 -0.0493  0.4204
 3036TIP3    H130743   5.575   5.364   1.892  0.7874  1.6417  2.1325
 3036TIP3    H230744   5.705   5.316   1.953  1.7802  3.0871  1.2041
 3037TIP3   OH230745   4.864   2.199   6.327  0.0412 -0.0315 -0.0324
 3037TIP3    H130746   4.952   2.165   6.341  0.1887  0.5434  0.4343
 3037TIP3    H230747   4.877   2.288   6.295 -0.3494 -0.3656 -1.1826
 3038TIP3   OH230748   0.959   3.052   6.372  0.0002 -0.1367 -0.1463
 3038TIP3    H130749   0.914   2.976   6.336  1.0560 -1.5965  1.4515
 3038TIP3    H230750   1.052   3.028   6.370  0.3846  1.2249  0.1765
 3039TIP3   OH230751   4.008   4.979   0.575 -0.3477  0.2095 -0.4784
 3039TIP3    H130752   3.995   4.945   0.486 -0.0156  0.8792 -0.7889
 3039TIP3    H230753   3.999   4.902   0.631  0.1851 -0.3656 -1.1566
 3040TIP3   OH230754   0.385   1.620   6.337  0.0437 -0.0362  0.5168
 3040TIP3    H130755   0.422   1.688   6.280 -2.7493  1.4140  0.2469
 3040TIP3    H230756   0.428   1.539   6.309  0.6019  1.0077 -1.9271
 3041TIP3   OH230757   1.758   3.430   0.781 -0.2427 -0.0154 -0.3416
 3041TIP3    H130758   1.743   3.441   0.687 -1.6609  1.5171  0.0263
 3041TIP3    H230759   1.721   3.509   0.821 -2.5559 -2.0252  1.7894
 3042TIP3   OH230760   5.697   1.124   0.228  0.0407  0.3565  0.2693
 3042TIP3    H130761   5.747   1.103   0.307 -0.1661 -1.3944 -0.0212
 3042TIP3    H230762   5.624   1.062   0.230 -0.2196  0.6041 -1.0582
 3043TIP3   OH230763   6.547   4.876   8.657 -0.3362 -0.1272 -0.5604
 3043TIP3    H130764   6.515   4.881   8.747  0.9480 -0.0502 -0.0780
 3043TIP3    H230765   6.471   4.849   8.605 -0.4824 -2.9843  0.9349
 3044TIP3   OH230766   0.356   4.204   0.570  0.0109  0.2106 -0.3862
 3044TIP3    H130767   0.291   4.250   0.517  0.7617  0.1406 -1.3923
 3044TIP3    H230768   0.377   4.125   0.520  0.8647  0.2273 -0.0821
 3045TIP3   OH230769   1.627   6.744   1.576 -0.2454 -0.6753 -0.3938
 3045TIP3    H130770   1.651   6.711   1.663  1.6696 -0.0514 -0.6592
 3045TIP3    H230771   1.631   6.667   1.520  4.0120 -0.2798 -0.9671
 3046TIP3   OH230772   0.715   5.700   7.484  0.2037  0.6135  0.1741
 3046TIP3    H130773   0.661   5.767   7.526 -1.5977 -0.2677 -0.6123
 3046TIP3    H230774   0.715   5.723   7.391 -1.0417 -0.7792 -0.2233
 3047TIP3   OH230775   3.060   6.836   8.127  0.2486  0.1761  0.1617
 3047TIP3    H130776   3.057   6.838   8.031  0.5837  0.8348  0.1561
 3047TIP3    H230777   3.034   6.747   8.150 -0.9634  0.3311 -0.4935
 3048TIP3   OH230778   2.541   1.630   1.451 -0.1157 -0.2469 -0.3217
 3048TIP3    H130779   2.612   1.572   1.423 -0.7227 -0.8370 -0.6915
 3048TIP3    H230780   2.583   1.697   1.505  0.7181 -0.5665 -0.5667
 3049TIP3   OH230781   2.219   4.709   0.292 -0.0152 -0.0643  0.6096
 3049TIP3    H130782   2.193   4.620   0.316 -2.4305  0.7611  1.3152
 3049TIP3    H230783   2.186   4.721   0.204  2.5809 -0.6589 -0.5330
 3050TIP3   OH230784   2.519   1.887   0.203 -0.7315 -0.4629  0.4060
 3050TIP3    H130785   2.515   1.819   0.269 -0.8737 -0.3050  0.5621
 3050TIP3    H230786   2.527   1.840   0.120  0.5763 -0.6273  0.6182
 3051TIP3   OH230787   5.285   5.133   1.123 -0.0715  0.2824 -0.2549
 3051TIP3    H130788   5.288   5.079   1.044 -1.2921  1.3353 -1.0635
 3051TIP3    H230789   5.375   5.135   1.154  0.4121 -0.2327 -1.5660
 3052TIP3   OH230790   1.404   6.418   7.392  0.3730  0.0444  0.3898
 3052TIP3    H130791   1.449   6.461   7.465 -0.1194 -0.0451  0.7557
 3052TIP3    H230792   1.416   6.324   7.408 -1.0863 -0.0336  1.2673
 3053TIP3   OH230793   2.123   2.730   6.370 -0.3449 -0.0698  0.4865
 3053TIP3    H130794   2.066   2.805   6.352 -1.2779 -1.2183 -1.7050
 3053TIP3    H230795   2.212   2.765   6.364 -0.7704  1.0033  0.2166
 3054TIP3   OH230796   5.892   2.016   6.953 -0.6937  0.3168 -0.2633
 3054TIP3    H130797   5.862   1.973   6.874 -0.6965  0.3102 -0.2586
 3054TIP3    H230798   5.886   2.110   6.934 -0.2035  0.3121 -0.4596
 3055TIP3   OH230799   4.306   2.848   6.440  0.3377  0.0189 -0.5722
 3055TIP3    H130800   4.236   2.912   6.456 -1.1305 -1.7335  0.4326
 3055TIP3    H230801   4.386   2.900   6.436 -0.7648  1.8945  0.3723
 3056TIP3   OH230802   5.171   0.271   1.546 -0.4575 -0.3524 -0.1806
 3056TIP3    H130803   5.119   0.292   1.624  1.0596 -1.7660  1.2760
 3056TIP3    H230804   5.134   0.327   1.477 -2.7703 -0.0719  1.1803
 3057TIP3   OH230805   3.140   0.728   6.549 -0.5853 -0.5200 -0.1412
 3057TIP3    H130806   3.085   0.790   6.501  1.4977  0.5413 -1.3454
 3057TIP3    H230807   3.196   0.784   6.603 -1.0523 -1.5830  1.4916
 3058TIP3   OH230808   1.456   4.858   7.070 -0.0100 -0.2661 -0.2443
 3058TIP3    H130809   1.393   4.793   7.101 -0.9098 -0.8264 -2.9188
 3058TIP3    H230810   1.403   4.936   7.052  0.5285  0.1617 -0.0083
 3059TIP3   OH230811   4.967   2.561   8.367  1.0243 -0.1482  0.0393
 3059TIP3    H130812   5.056   2.530   8.385  1.2509  0.9121  0.7936
 3059TIP3    H230813   4.911   2.511   8.426  0.9002 -1.8874 -1.4434
 3060TIP3   OH230814   3.528   1.615   8.027  0.8411 -0.0265 -0.2628
 3060TIP3    H130815   3.435   1.633   8.040  0.5999 -0.1458 -1.6381
 3060TIP3    H230816   3.566   1.621   8.114 -0.3895  0.3989  0.2713
 3061TIP3   OH230817   0.155   5.039   7.666  0.4703  0.1493  0.0473
 3061TIP3    H130818   0.196   5.021   7.750  0.2657  0.5532  0.2372
 3061TIP3    H230819   0.066   5.003   7.674  0.1905  0.8839  0.2889
 3062TIP3   OH230820   3.239   5.264   8.257 -0.5918  0.0983 -0.1557
 3062TIP3    H130821   3.318   5.297   8.215  1.1063 -1.1979  1.8750
 3062TIP3    H230822   3.210   5.337   8.313 -0.3938  0.2927 -0.3024
 3063TIP3   OH230823   0.240   4.694   0.288 -0.1682 -0.3662 -0.5158
 3063TIP3    H130824   0.301   4.702   0.361  0.6464 -0.8629 -1.1317
 3063TIP3    H230825   0.270   4.618   0.239  0.8477  1.3914 -2.8062
 3064TIP3   OH230826   4.272   5.928   0.708 -0.0473 -0.0325  0.1225
 3064TIP3    H130827   4.194   5.982   0.718  0.7164  0.7609  2.1641
 3064TIP3    H230828   4.344   5.984   0.734  0.8999 -1.6232  1.0742
 3065TIP3   OH230829   6.646   5.492   7.613 -0.2752 -0.0125  0.0480
 3065TIP3    H130830   6.679   5.475   7.525  1.2576 -1.4462  0.8434
 3065TIP3    H230831   6.715   5.461   7.672 -1.5328  0.2735  1.7799
 3066TIP3   OH230832   6.263   4.223   8.517 -0.4221  0.0857 -0.3652
 3066TIP3    H130833   6.304   4.307   8.495 -1.3846  0.3122 -1.3860
 3066TIP3    H230834   6.336   4.164   8.535  0.3320  0.5892 -1.6928
 3067TIP3   OH230835   3.539   4.494   7.491 -0.2265 -0.0450  0.1695
 3067TIP3    H130836   3.462   4.459   7.447 -0.0008 -0.9108  0.4487
 3067TIP3    H230837   3.504   4.544   7.565 -0.5024 -1.0267  0.7168
 3068TIP3   OH230838   6.162   4.919   2.636  0.5420  0.2483  0.1150
 3068TIP3    H130839   6.257   4.930   2.628  0.9827 -1.7533  1.5400
 3068TIP3    H230840   6.136   4.878   2.554  0.9400  0.6666 -0.2260
 3069TIP3   OH230841   3.923   0.965   8.238 -0.4011  0.4081 -0.7597
 3069TIP3    H130842   3.849   0.904   8.243 -0.9720  1.1864  1.2918
 3069TIP3    H230843   3.959   0.952   8.150 -1.0441 -2.2018 -0.7055
 3070TIP3   OH230844   4.391   0.810   8.550 -0.0484 -0.0732 -0.2756
 3070TIP3    H130845   4.475   0.782   8.515 -0.8321 -0.6878 -1.7148
 3070TIP3    H230846   4.329   0.796   8.479 -1.6267 -0.9385  1.1973
 3071TIP3   OH230847   1.778   1.760   8.564 -0.1786  0.1979  0.0975
 3071TIP3    H130848   1.710   1.809   8.517 -0.3554 -0.4575 -0.3392
 3071TIP3    H230849   1.813   1.823   8.627 -0.3340  0.9212 -0.5218
 3072TIP3   OH230850   3.903   5.274   0.493  0.7062 -0.3350 -0.6414
 3072TIP3    H130851   3.939   5.232   0.415 -0.5928 -0.8949 -0.9664
 3072TIP3    H230852   3.975   5.327   0.528  1.5431 -0.7116 -1.7584
 3073TIP3   OH230853   3.439   1.985   2.132 -0.1672 -0.0459  0.0641
 3073TIP3    H130854   3.409   2.076   2.122  0.6223  0.1567 -0.5476
 3073TIP3    H230855   3.524   1.992   2.175 -0.5714 -0.5676  0.9728
 3074TIP3   OH230856   0.014   0.356   1.000  0.2369 -0.2179 -0.7213
 3074TIP3    H130857   0.022   0.404   1.082 -0.2951 -1.4860  0.1215
 3074TIP3    H230858   0.041   0.417   0.932 -1.1212  1.4906  0.2074
 3075TIP3   OH230859   6.432   4.991   7.032 -0.1670 -0.4607  0.0625
 3075TIP3    H130860   6.379   4.918   7.000  1.7144 -1.4301 -1.0089
 3075TIP3    H230861   6.471   4.959   7.113 -0.3339 -0.1674  0.2612
 3076TIP3   OH230862   6.015   2.291   1.853 -0.1059  0.0045  0.1538
 3076TIP3    H130863   6.049   2.204   1.873  1.5785  0.5481 -0.1851
 3076TIP3    H230864   6.057   2.348   1.918  0.2043  0.8048 -0.7262
 3077TIP3   OH230865   4.953   4.257   0.792  0.1727 -0.3766 -0.2644
 3077TIP3    H130866   4.882   4.202   0.825  0.6195  0.2184  1.8836
 3077TIP3    H230867   5.003   4.201   0.733 -0.9746 -1.3808 -0.3133
 3078TIP3   OH230868   0.950   0.186   2.563  0.2110 -0.3507 -0.1004
 3078TIP3    H130869   0.992   0.232   2.635 -1.9736 -0.2398  1.1766
 3078TIP3    H230870   0.928   0.100   2.599 -0.7666 -0.3535 -0.6784
 3079TIP3   OH230871   4.877   1.785   0.910 -0.4929  0.0241 -0.1804
 3079TIP3    H130872   4.968   1.789   0.937 -0.8307 -0.3264  1.0626
 3079TIP3    H230873   4.828   1.773   0.991 -1.6154 -0.1806 -0.8658
 3080TIP3   OH230874   3.848   5.684   8.058  0.1194  0.0531  0.5021
 3080TIP3    H130875   3.829   5.615   7.995 -0.6566  0.9892 -0.3367
 3080TIP3    H230876   3.777   5.679   8.122  0.3060 -0.1980  0.6919
 3081TIP3   OH230877   6.442   0.926   1.084  0.5898  0.4391 -0.0738
 3081TIP3    H130878   6.438   0.862   1.156  1.0471  0.6126  0.1095
 3081TIP3    H230879   6.535   0.948   1.077  0.4896  0.7540 -0.4322
 3082TIP3   OH230880   6.265   2.816   0.066 -0.0687 -0.4933  0.0738
 3082TIP3    H130881   6.280   2.797  -0.026 -1.6852 -0.7980 -0.1608
 3082TIP3    H230882   6.218   2.899   0.066 -1.3430 -1.1892  0.5181
 3083TIP3   OH230883   5.135   1.224   0.976  0.2466  1.0202 -0.2000
 3083TIP3    H130884   5.193   1.207   0.902  1.0772  0.4091  0.5579
 3083TIP3    H230885   5.130   1.319   0.983 -0.0705  1.0862 -1.1966
 3084TIP3   OH230886   6.477   1.751   1.445 -0.1155 -0.0016  0.0862
 3084TIP3    H130887   6.520   1.795   1.371  0.0494 -1.0794 -0.4793
 3084TIP3    H230888   6.494   1.658   1.431 -0.1064 -0.2334  1.4783
 3085TIP3   OH230889   3.590   0.373   1.277  0.5056 -0.5654 -0.2892
 3085TIP3    H130890   3.673   0.327   1.277  1.4624  1.0777  0.1083
 3085TIP3    H230891   3.602   0.447   1.217 -0.8269 -0.5723 -0.6102
 3086TIP3   OH230892   4.927   0.267   2.054  0.1436  0.3600 -0.5193
 3086TIP3    H130893   4.994   0.225   2.107 -0.1119  1.1413  0.4507
 3086TIP3    H230894   4.858   0.201   2.046  0.8907 -0.3641 -1.3282
 3087TIP3   OH230895   1.786   1.316   8.434  0.2622  0.2305 -0.8878
 3087TIP3    H130896   1.727   1.384   8.464  0.5312  0.8498 -1.7108
 3087TIP3    H230897   1.873   1.357   8.435  0.2864  0.3066 -2.4702
 3088TIP3   OH230898   5.609   5.261   2.186  0.0170  0.1571  0.3798
 3088TIP3    H130899   5.563   5.345   2.191 -0.1764  0.2347 -1.6991
 3088TIP3    H230900   5.697   5.284   2.157  0.2356 -0.2935  0.6854
 3089TIP3   OH230901   4.153   6.398   0.771 -0.1914 -0.3277  0.5014
 3089TIP3    H130902   4.170   6.453   0.694  1.4127 -2.2640 -0.6129
 3089TIP3    H230903   4.121   6.459   0.837 -0.3855  1.6203 -1.2756
 3090TIP3   OH230904   0.588   4.433   7.419  0.4456 -0.0989  0.7206
 3090TIP3    H130905   0.543   4.517   7.413 -0.3271 -0.4577  1.3203
 3090TIP3    H230906   0.549   4.390   7.494  2.6054  0.0274  2.0080
 3091TIP3   OH230907   5.482   6.254   7.698  0.1279  0.0305  0.6878
 3091TIP3    H130908   5.416   6.249   7.628 -0.6159 -0.0352  1.3718
 3091TIP3    H230909   5.439   6.305   7.767  0.5424 -0.6049  1.4222
 3092TIP3   OH230910   2.820   4.324   7.370 -0.3750 -0.6006 -0.1283
 3092TIP3    H130911   2.778   4.290   7.291 -1.0711  1.2975 -0.6303
 3092TIP3    H230912   2.771   4.403   7.391  1.2346  0.1741  0.8973
 3093TIP3   OH230913   1.955   2.929   2.327  0.4109  0.3379  0.5426
 3093TIP3    H130914   1.861   2.936   2.310  0.8550  0.9510 -2.1798
 3093TIP3    H230915   1.963   2.856   2.388 -1.8042  0.1973  0.7560
 3094TIP3   OH230916   5.261   1.373   8.472  0.0578  0.1079  0.3749
 3094TIP3    H130917   5.215   1.380   8.388 -0.7858 -1.9180  0.6266
 3094TIP3    H230918   5.309   1.290   8.467 -2.1791 -1.4997  2.8633
 3095TIP3   OH230919   5.672   1.511   8.225  0.0880  0.0491 -0.1337
 3095TIP3    H130920   5.635   1.427   8.199  1.3127 -0.2105 -1.1797
 3095TIP3    H230921   5.763   1.490   8.249  0.1444  0.9383  0.4768
 3096TIP3   OH230922   0.470   2.565   7.656  0.0233  0.1878  0.0462
 3096TIP3    H130923   0.516   2.525   7.730  0.9699 -0.4877 -0.8689
 3096TIP3    H230924   0.540   2.595   7.598 -0.6932  0.4081 -0.7215
 3097TIP3   OH230925   6.020   0.193   7.815  0.2170 -0.3311  0.2525
 3097TIP3    H130926   5.963   0.118   7.830  0.9742 -0.8815  0.4779
 3097TIP3    H230927   6.085   0.188   7.885  0.3907  0.4244  0.1548
 3098TIP3   OH230928   6.602   1.075   8.216 -0.1540  0.0105 -1.1628
 3098TIP3    H130929   6.563   1.042   8.297  1.8622 -0.7889 -0.4588
 3098TIP3    H230930   6.549   1.151   8.193 -1.3374 -0.2924  0.4009
 3099TIP3   OH230931   6.324   6.621   2.241 -0.5000 -0.1298 -0.3493
 3099TIP3    H130932   6.338   6.687   2.173  1.0289  1.1589  1.1122
 3099TIP3    H230933   6.290   6.670   2.316 -0.5392 -1.2160  0.3651
 3100TIP3   OH230934   0.842   2.151   6.318 -0.0705  0.2503  0.2190
 3100TIP3    H130935   0.823   2.059   6.334 -2.5356  0.9381  1.7611
 3100TIP3    H230936   0.772   2.179   6.258 -0.5825  1.5635  1.3954
 3101TIP3   OH230937   2.986   5.769   1.502 -0.0363 -0.5211  0.1850
 3101TIP3    H130938   3.070   5.726   1.520  0.6342  0.3816 -0.7003
 3101TIP3    H230939   2.958   5.804   1.587  0.6421 -0.5510  0.4304
 3102TIP3   OH230940   5.477   3.577   7.310  0.4168 -0.0472  0.6381
 3102TIP3    H130941   5.524   3.641   7.363 -1.0679 -0.4724  2.5943
 3102TIP3    H230942   5.444   3.627   7.236  0.5420  1.1300  1.3555
 3103TIP3   OH230943   6.084   4.010   1.195  0.0517  0.1106  0.0513
 3103TIP3    H130944   6.106   4.022   1.288 -2.4293  1.5545  0.5501
 3103TIP3    H230945   6.079   3.915   1.184 -1.0582 -0.0906  1.8277
 3104TIP3   OH230946   0.458   0.007   7.635  0.6041  0.1564  0.0492
 3104TIP3    H130947   0.442  -0.086   7.615  2.1125 -0.2069  0.4543
 3104TIP3    H230948   0.380   0.034   7.684 -1.1590 -0.1204 -2.3518
 3105TIP3   OH230949   0.543   3.740   1.995  0.4253  0.1876 -0.1484
 3105TIP3    H130950   0.600   3.729   2.071  0.5096 -1.7575 -0.4371
 3105TIP3    H230951   0.468   3.684   2.014 -0.5077  1.2248 -0.6399
 3106TIP3   OH230952   0.996   0.109   1.243 -0.3570 -0.1083 -0.2183
 3106TIP3    H130953   1.079   0.065   1.224 -0.2034  0.1832 -0.2406
 3106TIP3    H230954   0.929   0.049   1.213 -0.1283  0.2555 -1.5188
 3107TIP3   OH230955   3.584   5.971   0.059 -0.0814 -0.1950 -0.2887
 3107TIP3    H130956   3.662   6.027   0.065 -0.0749 -0.1949 -0.3706
 3107TIP3    H230957   3.585   5.920   0.140 -0.0568 -0.1156 -0.2386
 3108TIP3   OH230958   3.239   4.066   8.449 -0.0170  0.1932 -0.1425
 3108TIP3    H130959   3.192   4.039   8.370 -0.8646  2.5789 -0.5311
 3108TIP3    H230960   3.210   4.156   8.465  3.0288  1.1401  0.6929
 3109TIP3   OH230961   0.516   5.392   8.316 -0.4373 -0.5065  0.3793
 3109TIP3    H130962   0.543   5.310   8.356 -1.2657 -0.6796  0.5960
 3109TIP3    H230963   0.554   5.460   8.372  1.9898 -0.6791 -0.9366
 3110TIP3   OH230964   6.032   2.030   7.427 -1.0385  0.1919 -0.4584
 3110TIP3    H130965   5.961   2.003   7.369 -1.0470  1.5915 -1.1427
 3110TIP3    H230966   5.989   2.055   7.509 -1.3227  0.7510 -0.7702
 3111TIP3   OH230967   2.364   4.111   1.495 -0.1979 -0.0277 -0.5032
 3111TIP3    H130968   2.423   4.130   1.423  1.8328 -1.4832  0.6946
 3111TIP3    H230969   2.386   4.022   1.523 -0.3203  0.7481  2.4160
 3112TIP3   OH230970   6.771   1.952   6.012 -0.2029  0.0545  0.5060
 3112TIP3    H130971   6.776   1.881   5.948 -0.7360  0.4933 -0.0398
 3112TIP3    H230972   6.710   1.919   6.078 -0.2068 -0.1201  0.4177
 3113TIP3   OH230973   5.135   5.709   1.712  0.4054  0.1214 -0.3515
 3113TIP3    H130974   5.077   5.724   1.637 -0.2988  3.0328  0.6220
 3113TIP3    H230975   5.204   5.775   1.702  1.1312 -0.4425  0.7785
 3114TIP3   OH230976   4.098   0.151   6.546 -0.3284  0.0421  0.1801
 3114TIP3    H130977   4.014   0.195   6.556 -0.3326  0.1266 -0.2021
 3114TIP3    H230978   4.092   0.108   6.460  0.1362  0.3111  0.0121
 3115TIP3   OH230979   1.276   3.653   8.431  0.2585  0.0108  0.4020
 3115TIP3    H130980   1.225   3.723   8.390  0.7364 -0.1667 -0.5155
 3115TIP3    H230981   1.337   3.624   8.363 -0.2432 -1.6174  0.6105
 3116TIP3   OH230982   1.287   4.413   7.226 -0.1117 -0.2110  0.0193
 3116TIP3    H130983   1.374   4.379   7.248 -0.3236 -0.6702  0.1737
 3116TIP3    H230984   1.249   4.437   7.310 -0.8750 -1.8484  0.1820
 3117TIP3   OH230985   0.014   5.121   0.040 -0.1193  0.0643 -0.3412
 3117TIP3    H130986   0.051   5.121  -0.049  2.5950 -0.0874  0.6762
 3117TIP3    H230987   0.005   5.028   0.062 -0.9416  0.1022 -0.4906
 3118TIP3   OH230988   6.232   6.036   7.039 -0.4359 -0.3059  0.1110
 3118TIP3    H130989   6.218   6.055   6.947 -0.5361 -3.2649 -0.5855
 3118TIP3    H230990   6.288   5.958   7.040 -2.2353 -1.7273  2.4625
 3119TIP3   OH230991   0.719   6.872   7.582  0.3352 -0.1429 -0.0074
 3119TIP3    H130992   0.630   6.882   7.616  0.2446 -0.8694 -0.0238
 3119TIP3    H230993   0.712   6.893   7.489  0.4078  0.9281  0.2114
 3120TIP3   OH230994   1.360   0.359   6.568  0.1288  0.2580  0.0308
 3120TIP3    H130995   1.383   0.405   6.487 -0.0331  1.5566  0.6979
 3120TIP3    H230996   1.270   0.329   6.555  0.2948 -0.0248 -0.4765
 3121TIP3   OH230997   1.976   5.555   7.465  0.1798 -0.2495  0.0596
 3121TIP3    H130998   1.988   5.639   7.511  1.1129 -0.2843 -0.0897
 3121TIP3    H230999   1.897   5.567   7.414  0.2150  0.4970  0.1615
 3122TIP3   OH231000   2.860   5.751   1.081 -0.4238 -0.5108  0.4611
 3122TIP3    H131001   2.873   5.815   1.011 -1.9307  1.3069  1.7560
 3122TIP3    H231002   2.777   5.776   1.122  0.4596 -1.3919  2.9888
 3123TIP3   OH231003   0.405   0.298   1.068 -0.2662 -0.1490  0.1647
 3123TIP3    H131004   0.363   0.370   1.115  1.8902  1.6205 -0.4702
 3123TIP3    H231005   0.499   0.319   1.070  0.4927 -3.0213  0.0561
 3124TIP3   OH231006   4.140   0.116   7.648  0.4603 -0.3836 -0.2315
 3124TIP3    H131007   4.095   0.084   7.569 -1.2075  1.2965 -0.0269
 3124TIP3    H231008   4.206   0.177   7.616 -1.5391  1.8514 -0.3349
 3125TIP3   OH231009   6.343   2.534   2.163 -0.0960 -0.4277  0.0495
 3125TIP3    H131010   6.432   2.503   2.180 -0.0025 -0.0170  0.3237
 3125TIP3    H231011   6.354   2.622   2.127 -0.3214 -1.1312 -1.8047
 3126TIP3   OH231012   5.924   5.862   0.946 -0.0656 -0.9391 -0.9468
 3126TIP3    H131013   5.986   5.924   0.984 -2.1526  0.4324  0.3681
 3126TIP3    H231014   5.965   5.836   0.863  1.6018  0.9797 -0.8086
 3127TIP3   OH231015   6.841   4.796   0.422 -0.2265 -0.1734 -0.7520
 3127TIP3    H131016   6.770   4.761   0.475  0.2666  0.7440  0.5708
 3127TIP3    H231017   6.798   4.853   0.359 -0.6409  1.0857  0.6131
 3128TIP3   OH231018   4.360   4.340   0.086 -0.3631 -0.2237 -0.2872
 3128TIP3    H131019   4.393   4.423   0.121 -1.6394 -0.1510  0.8396
 3128TIP3    H231020   4.319   4.364   0.003 -0.8554  0.3234  0.1007
 3129TIP3   OH231021   5.922   6.704   6.978  0.1813 -0.0996 -0.3425
 3129TIP3    H131022   5.934   6.632   7.040  1.1927  1.0546  0.8631
 3129TIP3    H231023   5.913   6.661   6.893 -2.9472 -1.8574  0.6914
 3130TIP3   OH231024   1.179   1.308   2.376 -0.7843  0.2067  0.8038
 3130TIP3    H131025   1.084   1.312   2.367 -0.8605 -1.3112  0.7735
 3130TIP3    H231026   1.212   1.352   2.298 -1.4807 -1.3431 -0.4110
 3131TIP3   OH231027   0.777   6.419   1.427  0.4460 -0.1317  0.5172
 3131TIP3    H131028   0.785   6.514   1.415  1.6061 -0.0567  1.6636
 3131TIP3    H231029   0.866   6.390   1.445  0.4477 -1.7772 -1.7948
 3132TIP3   OH231030   0.389   5.050   0.420  0.0473  0.1950  0.0559
 3132TIP3    H131031   0.295   5.044   0.437  0.2592 -2.7779  0.7950
 3132TIP3    H231032   0.399   5.017   0.330  0.2486  2.8921 -1.0219
 3133TIP3   OH231033   6.543   0.140   6.629 -0.1182  0.1480  0.6908
 3133TIP3    H131034   6.524   0.066   6.686  1.0278 -1.1590 -0.5580
 3133TIP3    H231035   6.476   0.136   6.561 -1.5372  1.7579  1.8975
 3134TIP3   OH231036   2.429   5.227   1.131  0.3320  0.2509  0.6379
 3134TIP3    H131037   2.411   5.206   1.222  0.8469 -2.4226  0.1943
 3134TIP3    H231038   2.458   5.145   1.092 -0.4796  1.1514 -2.1104
 3135TIP3   OH231039   0.346   2.607   1.393 -0.6800 -0.3241 -0.4512
 3135TIP3    H131040   0.426   2.573   1.355  0.1327  1.4487 -0.4350
 3135TIP3    H231041   0.315   2.537   1.451 -0.3084 -1.8493 -2.0318
 3136TIP3   OH231042   6.735   5.823   8.583  0.0423  0.0297  0.4139
 3136TIP3    H131043   6.663   5.835   8.646  0.6583  1.8094  0.8481
 3136TIP3    H231044   6.802   5.776   8.632 -0.2149 -0.2402  0.5060
 3137TIP3   OH231045   5.775   2.969   1.482 -0.0196  0.1103 -0.3180
 3137TIP3    H131046   5.775   3.064   1.492 -0.9756  0.0938 -0.0710
 3137TIP3    H231047   5.713   2.953   1.410  1.8512 -0.1939 -1.9625
 3138TIP3   OH231048   0.877   3.376   2.326 -0.0803 -0.1866  0.3273
 3138TIP3    H131049   0.918   3.325   2.395  1.3170  0.2963 -0.1099
 3138TIP3    H231050   0.932   3.454   2.318 -2.4780  1.7100  1.3775
 3139TIP3   OH231051   2.251   2.233   7.510 -0.3776  0.1356 -0.0052
 3139TIP3    H131052   2.314   2.281   7.563 -0.7979  0.7669 -0.0574
 3139TIP3    H231053   2.294   2.150   7.490  0.7598  0.8699 -0.7109
 3140TIP3   OH231054   6.662   1.469   6.360 -0.5297 -0.7817  0.1450
 3140TIP3    H131055   6.600   1.507   6.299 -0.3620 -0.7550 -0.0094
 3140TIP3    H231056   6.724   1.422   6.304  0.5279  0.5264  0.1755
 3141TIP3   OH231057   2.063   1.263   7.398 -0.0479 -0.3913 -0.5924
 3141TIP3    H131058   2.117   1.189   7.369 -0.9875 -0.9939 -0.8528
 3141TIP3    H231059   2.027   1.234   7.482 -0.9259 -0.4926 -0.9969
 3142TIP3   OH231060   0.849   5.772   1.318 -0.9611 -0.0235 -0.2739
 3142TIP3    H131061   0.871   5.850   1.369  0.3843  0.6546 -1.7867
 3142TIP3    H231062   0.772   5.797   1.267 -0.3990  0.4298 -0.9242
 3143TIP3   OH231063   5.962   5.082   0.627  0.3618  0.0338  0.1377
 3143TIP3    H131064   6.024   5.040   0.686  0.0744  0.9121  1.0833
 3143TIP3    H231065   6.011   5.096   0.546  1.3874  0.6600  0.8495
 3144TIP3   OH231066   0.071   1.360   2.162  0.3882  0.0707 -0.5286
 3144TIP3    H131067   0.030   1.299   2.101 -1.1332  0.5395 -0.0130
 3144TIP3    H231068   0.122   1.304   2.221  0.2720 -0.5485 -1.0087
 3145TIP3   OH231069   5.806   0.339   1.230  0.1479  0.0247 -0.7762
 3145TIP3    H131070   5.876   0.386   1.275  0.9384 -2.6908  1.0869
 3145TIP3    H231071   5.737   0.332   1.296 -0.9550  0.6359 -1.8294
 3146TIP3   OH231072   4.860   0.272   7.197 -0.3232 -1.0461  0.7695
 3146TIP3    H131073   4.943   0.320   7.194 -0.2005 -1.2696 -1.6146
 3146TIP3    H231074   4.854   0.240   7.287  1.5693  0.0011  1.3311
 3147TIP3   OH231075   5.185   0.856   8.202 -0.0861  0.3293 -0.5788
 3147TIP3    H131076   5.205   0.942   8.164 -1.4025  0.2896 -1.4156
 3147TIP3    H231077   5.270   0.813   8.210  0.5818  1.6507 -0.2662
 3148TIP3   OH231078   0.016   5.615   1.559  0.4853  0.0321 -0.3488
 3148TIP3    H131079   0.075   5.649   1.627 -2.4273  0.7655  2.0473
 3148TIP3    H231080   0.048   5.527   1.541  3.6416  1.1825 -0.9945
 3149TIP3   OH231081   3.797   3.856   2.302  0.0957 -0.0298  0.2937
 3149TIP3    H131082   3.815   3.946   2.329 -0.0710  0.6070 -1.5715
 3149TIP3    H231083   3.708   3.858   2.267  0.3926 -0.7065 -0.5625
 3150TIP3   OH231084   2.991   4.105   1.031  0.1618 -0.8254  0.5209
 3150TIP3    H131085   2.972   4.028   1.084  0.3847 -1.7212 -0.6707
 3150TIP3    H231086   2.916   4.113   0.972 -0.3553  0.4957  1.3162
 3151TIP3   OH231087   0.155   0.677   7.107 -0.1507 -0.2070  0.9867
 3151TIP3    H131088   0.149   0.769   7.082  1.1446 -0.4543 -0.3862
 3151TIP3    H231089   0.064   0.647   7.108 -0.5341  0.8730  0.6038
 3152TIP3   OH231090   2.263   1.010   8.100  0.2658  0.1952  0.1773
 3152TIP3    H131091   2.206   0.983   8.028  1.0353  2.3118 -1.3138
 3152TIP3    H231092   2.266   1.105   8.093  2.2985  0.2796  1.5429
 3153TIP3   OH231093   4.132   0.553   6.275 -0.7270  0.1033  0.1991
 3153TIP3    H131094   4.072   0.486   6.307 -1.3755  0.3398 -0.4889
 3153TIP3    H231095   4.219   0.523   6.302 -0.7281 -2.2021 -2.0121
 3154TIP3   OH231096   6.460   6.825   1.497  0.2957 -0.1012 -0.3226
 3154TIP3    H131097   6.458   6.804   1.404 -1.8370 -2.3349  0.1266
 3154TIP3    H231098   6.368   6.836   1.521  0.7031 -0.8323  1.7863
 3155TIP3   OH231099   5.774   1.141   7.217 -0.1090  0.5792  0.6544
 3155TIP3    H131100   5.743   1.189   7.141  1.2662 -1.2092 -1.1292
 3155TIP3    H231101   5.854   1.097   7.188  0.5177 -0.1456  3.1489
 3156TIP3   OH231102   6.447   4.981   7.648  0.2529  0.2008  0.1637
 3156TIP3    H131103   6.488   5.061   7.616  0.2114  0.1529 -0.0081
 3156TIP3    H231104   6.355   4.989   7.625  0.3927 -0.2642 -0.5977
 3157TIP3   OH231105   1.301   1.986   7.367 -0.2561  0.4748  0.1043
 3157TIP3    H131106   1.367   1.921   7.390  0.8678  1.1515 -1.0574
 3157TIP3    H231107   1.229   1.935   7.331  0.5092 -0.1791 -0.5722
 3158TIP3   OH231108   4.920   4.776   8.308 -0.3850 -0.1974 -0.1297
 3158TIP3    H131109   4.973   4.794   8.230 -0.9467  2.1987 -0.0495
 3158TIP3    H231110   4.870   4.698   8.286  1.0617 -0.8454 -1.3022
 3159TIP3   OH231111   4.724   4.522   2.218 -0.1008  0.1337  0.9114
 3159TIP3    H131112   4.662   4.539   2.148  1.2287 -1.3142 -0.7213
 3159TIP3    H231113   4.807   4.559   2.186  0.2608  0.5975  2.3102
 3160TIP3   OH231114   3.811   4.154   0.325  0.4588 -0.4551 -0.4072
 3160TIP3    H131115   3.789   4.240   0.360 -0.6959  0.6903 -3.5211
 3160TIP3    H231116   3.889   4.168   0.272  0.1021 -1.2158 -1.1742
 3161TIP3   OH231117   5.607   5.348   7.394  0.0941  0.3155 -0.0416
 3161TIP3    H131118   5.681   5.334   7.336 -0.7943 -0.0420 -1.1326
 3161TIP3    H231119   5.635   5.418   7.453  0.9000  0.9222 -1.1169
 3162TIP3   OH231120   0.193   5.809   1.002 -0.3527  0.2212 -0.6852
 3162TIP3    H131121   0.146   5.889   0.976 -0.8665  0.3962  0.7135
 3162TIP3    H231122   0.125   5.741   1.003 -0.4959  0.3522  0.7677
 3163TIP3   OH231123   2.050   1.713   8.546  0.2518  0.1846  0.5738
 3163TIP3    H131124   1.967   1.752   8.573 -1.0139 -2.8246  1.4549
 3163TIP3    H231125   2.102   1.709   8.626  1.2117  1.8288  0.0747
 3164TIP3   OH231126   5.705   6.825   6.173 -0.1284  0.3061 -0.4337
 3164TIP3    H131127   5.800   6.818   6.175 -0.1473 -0.2342 -1.1037
 3164TIP3    H231128   5.688   6.918   6.164  0.2849  0.6326  1.5659
 3165TIP3   OH231129   2.021   4.834   1.718  0.1249  0.5292 -0.2646
 3165TIP3    H131130   1.965   4.757   1.710  1.1314 -0.1855 -0.6964
 3165TIP3    H231131   1.993   4.892   1.648 -1.0055  0.8125  0.4000
 3166TIP3   OH231132   0.590   3.775   7.010 -0.0660  0.4616  0.3121
 3166TIP3    H131133   0.518   3.823   7.051  0.1277  0.8811  0.1712
 3166TIP3    H231134   0.596   3.812   6.922  1.0357  1.2255  0.6781
 3167TIP3   OH231135   3.014   0.271   0.891  0.2380 -0.0664 -0.1588
 3167TIP3    H131136   2.948   0.296   0.956  0.4587  0.3109 -0.0750
 3167TIP3    H231137   2.975   0.294   0.807  0.1354 -0.1394 -0.1321
 3168TIP3   OH231138   0.498   1.941   7.187  0.0801  0.0644  1.1621
 3168TIP3    H131139   0.468   1.887   7.261 -1.9717 -1.3670 -0.5774
 3168TIP3    H231140   0.439   2.016   7.187  0.2173  0.1714  1.0926
 3169TIP3   OH231141   5.387   1.895   1.462 -0.2808  0.0029 -0.2181
 3169TIP3    H131142   5.393   1.979   1.417  1.8574 -0.2458 -0.5040
 3169TIP3    H231143   5.464   1.893   1.518  0.1648 -2.1115 -0.8349
 3170TIP3   OH231144   6.347   4.667   0.025 -0.0889  0.0067 -0.6578
 3170TIP3    H131145   6.291   4.631  -0.044  2.5754  0.4351 -3.2058
 3170TIP3    H231146   6.433   4.628   0.009  0.4921 -0.6095  3.0814
 3171TIP3   OH231147   6.568   5.960   7.630  0.6178  0.0830  0.4435
 3171TIP3    H131148   6.477   5.933   7.618  0.4777  0.1238  1.3608
 3171TIP3    H231149   6.591   5.930   7.718  1.6106 -0.2527  0.0811
 3172TIP3   OH231150   0.821   4.175   0.527 -0.4696 -0.3795 -0.5313
 3172TIP3    H131151   0.857   4.091   0.553  1.6884  0.5527 -0.3220
 3172TIP3    H231152   0.818   4.172   0.431 -0.2610 -0.6299 -0.5291
 3173TIP3   OH231153   5.886   1.080   6.841  0.3820 -0.2788  0.1820
 3173TIP3    H131154   5.948   1.045   6.905 -1.7913 -0.9954  2.0429
 3173TIP3    H231155   5.882   1.014   6.773  0.4399 -1.0401  0.8968
 3174TIP3   OH231156   6.163   2.594   0.201  0.1081 -0.6494 -0.0530
 3174TIP3    H131157   6.227   2.545   0.150  0.3734 -0.3593 -0.0014
 3174TIP3    H231158   6.181   2.686   0.180  0.4846 -0.5075  0.8733
 3175TIP3   OH231159   5.117   2.563   0.435 -0.2341  0.1799 -0.2040
 3175TIP3    H131160   5.196   2.581   0.383 -0.1782 -3.2079 -1.5640
 3175TIP3    H231161   5.150   2.524   0.516 -0.4781  1.6265  0.6264
 3176TIP3   OH231162   4.888   6.106   1.098  0.3483  0.3444  0.3152
 3176TIP3    H131163   4.934   6.034   1.056  0.4286 -0.4362  1.6837
 3176TIP3    H231164   4.957   6.156   1.142  0.1124  0.2322  0.8276
 3177TIP3   OH231165   0.294   6.439   0.156  0.4504 -0.5675 -0.5409
 3177TIP3    H131166   0.279   6.463   0.248 -0.2347 -2.3139 -0.1550
 3177TIP3    H231167   0.235   6.497   0.107  0.2111 -0.1881  0.1769
 3178TIP3   OH231168   2.323   4.262   7.651  0.0074  0.5023 -0.0466
 3178TIP3    H131169   2.356   4.335   7.704  0.9147  1.1515 -1.4582
 3178TIP3    H231170   2.292   4.303   7.570  0.8467 -0.7103 -1.0067
 3179TIP3   OH231171   4.170   6.700   0.381 -0.4322 -0.0187  0.0419
 3179TIP3    H131172   4.165   6.749   0.463 -3.0140 -0.9388  0.5361
 3179TIP3    H231173   4.079   6.692   0.353  0.3226 -0.4222 -2.5317
 3180TIP3   OH231174   5.179   6.596   1.699  0.7670  0.1305  0.6188
 3180TIP3    H131175   5.273   6.612   1.686  0.8995 -1.3902 -0.6262
 3180TIP3    H231176   5.168   6.597   1.794  1.8934  1.0606  0.7721
 3181TIP3   OH231177   4.296   3.586   7.232 -0.0391  0.2171 -0.7347
 3181TIP3    H131178   4.331   3.654   7.290 -1.1125 -1.0019  1.4706
 3181TIP3    H231179   4.345   3.596   7.150  1.1549  2.3862  0.1785
 3182TIP3   OH231180   0.702   5.931   8.614 -0.1243  0.5216 -0.3026
 3182TIP3    H131181   0.783   5.981   8.628  1.1855 -1.5339  0.0259
 3182TIP3    H231182   0.712   5.854   8.670 -1.5777 -0.5956 -1.4895
 3183TIP3   OH231183   5.960   2.217   1.020 -0.2001  0.0672  0.7475
 3183TIP3    H131184   5.937   2.298   0.973  0.8476  0.3299  0.6536
 3183TIP3    H231185   5.895   2.211   1.091  1.0988  2.3186  2.2721
 3184TIP3   OH231186   6.646   2.582   8.002 -0.4925  0.6336  0.2100
 3184TIP3    H131187   6.559   2.553   8.030 -0.1561 -1.0574 -0.3565
 3184TIP3    H231188   6.684   2.505   7.959  0.2287  2.1567 -2.0346
 3185TIP3   OH231189   5.542   4.775   8.256  0.3110 -0.5983  0.6386
 3185TIP3    H131190   5.493   4.851   8.289  0.9400  0.6960 -1.1960
 3185TIP3    H231191   5.493   4.748   8.178  1.2447 -0.7086  0.0740
 3186TIP3   OH231192   2.315   6.134   7.339  0.7082 -0.4954 -0.1509
 3186TIP3    H131193   2.235   6.185   7.350  0.1766 -0.4759 -3.2094
 3186TIP3    H231194   2.377   6.172   7.401 -1.0686  0.7382  0.9458
 3187TIP3   OH231195   2.265   2.242   0.817  0.2182 -0.1270  0.2637
 3187TIP3    H131196   2.326   2.289   0.760  0.7428 -2.3657 -1.1773
 3187TIP3    H231197   2.183   2.239   0.767  0.1129 -0.4922  0.4550
 3188TIP3   OH231198   2.640   2.709   7.161 -0.5560  0.3775  0.3526
 3188TIP3    H131199   2.592   2.628   7.146  0.1955  0.1309 -0.8540
 3188TIP3    H231200   2.694   2.719   7.083 -0.4985  1.9474  0.5720
 3189TIP3   OH231201   2.913   6.459   8.656 -0.4415  0.0051 -0.0061
 3189TIP3    H131202   2.951   6.435   8.572 -2.6860  0.1884 -1.1255
 3189TIP3    H231203   2.937   6.550   8.669  0.3871 -0.1832 -0.1318
 3190TIP3   OH231204   2.068   1.801   6.333  0.3369  0.0976  0.4590
 3190TIP3    H131205   1.978   1.776   6.351  1.1038 -2.2760  1.4141
 3190TIP3    H231206   2.100   1.837   6.416  0.8355 -1.0343  0.7814
 3191TIP3   OH231207   5.200   0.872   1.571 -0.0890  0.0546 -0.1715
 3191TIP3    H131208   5.236   0.954   1.536  0.8637 -0.5997 -0.7555
 3191TIP3    H231209   5.274   0.830   1.614 -0.7341 -0.2003  0.7121
 3192TIP3   OH231210   3.220   0.508   7.940  0.2145 -0.5396  0.1071
 3192TIP3    H131211   3.270   0.430   7.966 -0.3044 -1.3777 -1.2832
 3192TIP3    H231212   3.129   0.483   7.953  0.0458 -0.1337 -0.2869
 3193TIP3   OH231213   4.681   1.489   0.918  0.0439 -0.3502 -0.0236
 3193TIP3    H131214   4.753   1.550   0.933  0.9560 -0.5982 -2.7618
 3193TIP3    H231215   4.646   1.471   1.005  2.0369  1.2860  1.2112
 3194TIP3   OH231216   2.341   1.739   7.120  0.6910  0.5176 -0.0790
 3194TIP3    H131217   2.393   1.807   7.162  1.5412  0.3802 -0.8859
 3194TIP3    H231218   2.351   1.754   7.026 -0.4223  0.2526 -0.2558
 3195TIP3   OH231219   6.587   1.933   8.161  0.1268 -0.3892 -0.2853
 3195TIP3    H131220   6.671   1.938   8.206  0.1241 -0.5875 -0.2574
 3195TIP3    H231221   6.604   1.877   8.086 -0.0147 -0.5441 -0.2013
 3196TIP3   OH231222   2.263   6.489   7.778  0.6263  0.3959 -0.2823
 3196TIP3    H131223   2.216   6.509   7.697  2.8626  1.3753 -1.4312
 3196TIP3    H231224   2.316   6.412   7.757  0.7256  0.2537  0.4633
 3197TIP3   OH231225   3.993   6.250   2.283 -0.0296 -0.4111  0.5756
 3197TIP3    H131226   4.003   6.162   2.248  0.9194 -0.3623  0.6912
 3197TIP3    H231227   4.046   6.250   2.363  1.4380  0.7717 -0.3544
 3198TIP3   OH231228   5.896   4.147   6.199  0.6343  0.1688  0.3380
 3198TIP3    H131229   5.923   4.234   6.172  0.5666  0.0247 -0.1998
 3198TIP3    H231230   5.805   4.139   6.168  0.0198  0.5567  1.9030
 3199TIP3   OH231231   3.005   2.475   7.316 -0.0238  0.3712 -0.5718
 3199TIP3    H131232   2.926   2.424   7.301  0.7645 -0.3759 -2.5329
 3199TIP3    H231233   2.977   2.566   7.311 -1.1065  0.1576  0.9604
 3200TIP3   OH231234   1.756   2.597   0.068 -0.0397 -0.0125 -0.1438
 3200TIP3    H131235   1.755   2.643   0.152  1.0791  0.6666 -0.4861
 3200TIP3    H231236   1.669   2.615   0.030 -0.4560 -0.1151  0.7373
 3201TIP3   OH231237   3.964   4.636   7.723 -0.5549 -0.0635 -0.5514
 3201TIP3    H131238   3.917   4.643   7.640  0.2003  1.7470 -0.8534
 3201TIP3    H231239   3.972   4.726   7.754  0.7092 -0.5539  0.6260
 3202TIP3   OH231240   4.379   2.190   6.676  0.4577 -0.1428 -0.3866
 3202TIP3    H131241   4.303   2.134   6.664  1.0327 -1.3646  1.2462
 3202TIP3    H231242   4.369   2.259   6.611 -1.3298 -1.0183 -1.1037
 3203TIP3   OH231243   6.552   4.586   7.220 -0.6349  0.1716  0.1449
 3203TIP3    H131244   6.506   4.532   7.285 -2.1707  2.0862  0.7665
 3203TIP3    H231245   6.492   4.590   7.146 -0.2780  0.5235 -0.1264
 3204TIP3   OH231246   0.302   2.921   1.919  0.2987  0.5676 -0.4924
 3204TIP3    H131247   0.392   2.948   1.900  0.1173  1.8327  0.2880
 3204TIP3    H231248   0.250   3.000   1.907 -0.2765  0.6385  1.8768
 3205TIP3   OH231249   3.328   0.405   0.630 -0.2315  0.0266 -0.4599
 3205TIP3    H131250   3.296   0.486   0.590  0.6726 -0.8700 -3.2182
 3205TIP3    H231251   3.408   0.431   0.675 -1.2011  1.0540  0.7422
 3206TIP3   OH231252   6.673   4.666   6.424  0.1640 -0.1768  0.0719
 3206TIP3    H131253   6.723   4.683   6.503 -0.8714  0.2430  0.6592
 3206TIP3    H231254   6.736   4.677   6.352  0.8995  0.3101  0.7796
 3207TIP3   OH231255   3.995   5.530   7.744 -0.1977 -0.3207  0.1254
 3207TIP3    H131256   3.934   5.509   7.815 -0.5170 -0.7759 -0.2765
 3207TIP3    H231257   3.977   5.464   7.677  1.0858 -0.7660  0.1990
 3208TIP3   OH231258   6.542   6.150   8.375 -0.0114 -0.8526  0.6007
 3208TIP3    H131259   6.630   6.114   8.365  0.2858 -0.1713  0.7374
 3208TIP3    H231260   6.495   6.118   8.298  0.9587  0.4885 -0.6110
 3209TIP3   OH231261   5.113   6.476   7.181 -0.4727  0.2682 -1.0916
 3209TIP3    H131262   5.035   6.502   7.132 -1.7076 -1.6108 -0.2248
 3209TIP3    H231263   5.133   6.388   7.150  0.2412  0.0393 -0.0398
 3210TIP3   OH231264   1.625   0.316   7.361  0.2275  0.6612  0.3428
 3210TIP3    H131265   1.631   0.363   7.444  0.6935  2.0370 -0.4298
 3210TIP3    H231266   1.532   0.296   7.350 -0.2275  2.6953  0.0510
 3211TIP3   OH231267   4.617   4.103   8.083 -0.1755 -0.1604  0.1670
 3211TIP3    H131268   4.533   4.057   8.079 -0.1315 -0.3894  1.5310
 3211TIP3    H231269   4.683   4.035   8.068 -0.2237  0.1185 -1.5039
 3212TIP3   OH231270   6.080   0.029   6.786 -0.2079  0.2895  0.1695
 3212TIP3    H131271   6.069  -0.027   6.709  1.1808  0.0604  0.1174
 3212TIP3    H231272   6.118   0.110   6.752 -0.5484  0.5909  0.4903
 3213TIP3   OH231273   6.489   0.381   0.343  0.0595 -0.8815 -0.1301
 3213TIP3    H131274   6.581   0.396   0.321  0.1018  0.1551  0.6943
 3213TIP3    H231275   6.458   0.320   0.276  1.0989 -0.5293 -0.9560
 3214TIP3   OH231276   6.684   5.447   8.242 -0.5776 -0.2238 -0.0281
 3214TIP3    H131277   6.640   5.442   8.327 -0.0565 -2.5153  0.1697
 3214TIP3    H231278   6.776   5.466   8.264 -0.1820 -2.1063  0.0491
 3215TIP3   OH231279   6.664   2.456   2.293 -0.2207 -0.0441  0.5775
 3215TIP3    H131280   6.686   2.363   2.292  1.1372  0.2624  0.7483
 3215TIP3    H231281   6.740   2.500   2.255 -0.8286  1.0025  0.5259
 3216TIP3   OH231282   1.141   5.176   7.219  0.1886 -1.1542 -0.1662
 3216TIP3    H131283   1.205   5.242   7.244 -0.4367 -0.8015  0.5442
 3216TIP3    H231284   1.157   5.162   7.126 -0.1081  0.5152 -0.5031
 3217TIP3   OH231285   1.237   4.747   8.048 -0.1250  0.1260  0.1202
 3217TIP3    H131286   1.225   4.675   8.110 -1.2867 -1.7031 -2.0704
 3217TIP3    H231287   1.300   4.714   7.985  0.6204  1.7271 -0.0125
 3218TIP3   OH231288   1.719   3.838   1.026 -0.4187  0.5999 -0.0027
 3218TIP3    H131289   1.717   3.917   1.080 -1.6347  0.4242  0.2312
 3218TIP3    H231290   1.757   3.771   1.083 -0.9663  0.6094  0.3829
 3219TIP3   OH231291   0.238   6.573   0.410 -0.4233  0.2222 -0.1452
 3219TIP3    H131292   0.303   6.640   0.388  1.0694 -1.0864  0.0690
 3219TIP3    H231293   0.229   6.579   0.505  0.8391 -0.8007  0.0734
 3220TIP3   OH231294   5.874   0.089   6.428 -0.2316 -1.1113 -0.2638
 3220TIP3    H131295   5.882   0.041   6.346  0.7316  1.0973 -1.5600
 3220TIP3    H231296   5.959   0.077   6.471  0.1258 -0.3597 -0.7395
 3221TIP3   OH231297   6.404   5.428   8.601 -0.3354  0.3297  0.1078
 3221TIP3    H131298   6.491   5.455   8.574  0.3307 -1.6933  0.0874
 3221TIP3    H231299   6.372   5.501   8.654  1.2321  1.2384 -0.1364
 3222TIP3   OH231300   4.486   5.860   7.570  0.3585 -0.0547 -0.0220
 3222TIP3    H131301   4.522   5.772   7.586  1.1628  0.1820 -0.4677
 3222TIP3    H231302   4.483   5.867   7.475  1.2052  0.7470 -0.0059
 3223TIP3   OH231303   4.404   6.196   7.055 -0.0618 -0.8319 -0.2079
 3223TIP3    H131304   4.435   6.281   7.086  0.1560 -1.4244  1.2747
 3223TIP3    H231305   4.327   6.178   7.108 -0.2226 -1.4797 -0.6516
 3224TIP3   OH231306   4.207   3.383   8.283 -0.1458  0.3103  0.0392
 3224TIP3    H131307   4.190   3.477   8.287 -0.3359  0.2874 -0.2279
 3224TIP3    H231308   4.170   3.355   8.200  0.4239  0.1038 -0.1504
 3225TIP3   OH231309   4.031   2.229   0.995  0.5292  0.6133  0.1081
 3225TIP3    H131310   3.994   2.152   0.951 -0.2763  1.8337 -1.4496
 3225TIP3    H231311   3.984   2.233   1.079 -0.1817  0.0024 -0.2438
 3226TIP3   OH231312   1.334   6.532   0.324 -0.4954  0.5231  0.2308
 3226TIP3    H131313   1.329   6.555   0.231 -0.7730 -0.7407 -0.0889
 3226TIP3    H231314   1.244   6.535   0.355 -0.5013  0.1866  0.2547
 3227TIP3   OH231315   4.023   0.157   1.090  0.5072 -0.0681  0.5385
 3227TIP3    H131316   4.094   0.196   1.141  0.6830 -1.0351  1.0438
 3227TIP3    H231317   4.046   0.064   1.084  0.9573  0.1338 -2.0323
 3228TIP3   OH231318   3.000   6.376   8.398 -0.4151 -0.2490  0.5663
 3228TIP3    H131319   2.921   6.364   8.345  0.3525  2.0815 -1.2773
 3228TIP3    H231320   3.069   6.333   8.348  0.2394  1.6105 -0.2167
 3229TIP3   OH231321   4.621   0.078   1.550 -0.3207  0.0117  0.3520
 3229TIP3    H131322   4.576   0.033   1.478  0.5483  0.0701 -0.2410
 3229TIP3    H231323   4.576   0.047   1.629 -0.8489 -0.5732 -0.1632
 3230TIP3   OH231324   4.977   2.397   2.211 -0.1754  0.3524  0.7063
 3230TIP3    H131325   4.955   2.304   2.221 -1.8991  0.4822 -1.2278
 3230TIP3    H231326   5.070   2.397   2.187  0.2013 -0.7442  2.0180
 3231TIP3   OH231327   1.630   1.790   8.185 -0.1683 -0.3027 -0.1900
 3231TIP3    H131328   1.571   1.728   8.229  2.5046 -2.0127  1.2988
 3231TIP3    H231329   1.703   1.736   8.156  1.5607  1.9513 -0.2870
 3232TIP3   OH231330   5.568   1.979   1.659  0.2444 -0.1190 -0.1870
 3232TIP3    H131331   5.664   1.974   1.655  0.3892  1.8158  0.0070
 3232TIP3    H231332   5.548   1.978   1.753 -0.0038 -1.2070 -0.2343
 3233TIP3   OH231333   4.300   1.601   7.114 -0.7537 -0.1604  0.2031
 3233TIP3    H131334   4.213   1.598   7.074 -0.5786  0.3876 -0.2299
 3233TIP3    H231335   4.339   1.516   7.093 -1.3756 -0.6172  0.8474
 3234TIP3   OH231336   5.306   3.096   0.982  0.1883 -0.3979  0.2090
 3234TIP3    H131337   5.331   3.099   1.074  1.5703 -1.3415 -0.0957
 3234TIP3    H231338   5.292   3.003   0.963  0.5513 -0.2910 -0.6678
 3235TIP3   OH231339   0.376   0.141   0.236  0.3291 -0.2419 -0.2364
 3235TIP3    H131340   0.429   0.061   0.239 -2.1271 -1.9590  0.3813
 3235TIP3    H231341   0.380   0.177   0.324 -0.9889 -1.4355  0.3430
 3236TIP3   OH231342   5.057   1.168   2.402  0.5717 -0.1400 -0.6332
 3236TIP3    H131343   5.143   1.180   2.443  1.0365  0.3097 -1.6944
 3236TIP3    H231344   5.075   1.118   2.322 -0.0851  0.2885 -1.0635
 3237TIP3   OH231345   0.559   3.979   7.662  0.1932 -0.0229 -0.2749
 3237TIP3    H131346   0.649   4.011   7.649 -0.3792  1.3278 -1.1385
 3237TIP3    H231347   0.505   4.058   7.656 -1.0331 -0.7805  0.5522
 3238TIP3   OH231348   5.016   6.336   8.143 -0.2712 -0.5290  0.0097
 3238TIP3    H131349   5.015   6.289   8.060 -2.1961 -1.7284  0.6388
 3238TIP3    H231350   5.019   6.429   8.117 -0.9965 -0.8647 -1.4079
 3239TIP3   OH231351   3.557   2.133   6.475 -0.1664 -0.1097 -0.1446
 3239TIP3    H131352   3.461   2.129   6.478 -0.1249 -2.6414  1.2306
 3239TIP3    H231353   3.583   2.044   6.451  1.8420 -0.5413  3.0911
 3240TIP3   OH231354   5.863   0.448   0.759 -0.7558  0.4463  0.5257
 3240TIP3    H131355   5.911   0.429   0.840 -2.1925  0.5410  1.4465
 3240TIP3    H231356   5.881   0.541   0.743  1.4095 -0.1184 -0.6062
 3241TIP3   OH231357   0.485   2.660   2.334 -0.2504  0.2388  0.1266
 3241TIP3    H131358   0.391   2.651   2.316 -0.2412  0.2489  0.0727
 3241TIP3    H231359   0.510   2.742   2.291  0.3458 -1.0554 -2.2071
 3242TIP3   OH231360   3.764   3.345   8.399 -0.3876 -0.4804 -0.5115
 3242TIP3    H131361   3.753   3.388   8.484 -3.5867 -0.3039 -0.8833
 3242TIP3    H231362   3.834   3.394   8.356 -2.6071  3.3522 -0.2007
 3243TIP3   OH231363   4.001   5.296   6.370 -0.2262 -0.1263 -0.3702
 3243TIP3    H131364   3.949   5.289   6.290  1.5750 -0.5600 -1.5765
 3243TIP3    H231365   3.975   5.379   6.410 -3.0501 -1.1187  0.0368
 3244TIP3   OH231366   1.377   5.319   7.253 -0.0874 -0.4775 -0.5814
 3244TIP3    H131367   1.356   5.361   7.336 -0.4866  1.2015 -1.4810
 3244TIP3    H231368   1.444   5.375   7.214 -1.3074 -0.0897 -2.2559
 3245TIP3   OH231369   1.002   5.845   2.625  0.3165  0.0622  0.3422
 3245TIP3    H131370   0.934   5.858   2.559 -0.1338  0.5535  0.8872
 3245TIP3    H231371   1.041   5.932   2.635  1.4805 -0.3486 -0.4383
 3246TIP3   OH231372   2.573   0.625   7.519 -0.3677  0.1033  0.4097
 3246TIP3    H131373   2.570   0.603   7.613  1.6749  1.6894  0.9025
 3246TIP3    H231374   2.579   0.720   7.517  1.7185 -0.0150 -1.2497
 3247TIP3   OH231375   6.632   6.608   7.745  0.3453 -0.5668 -0.2806
 3247TIP3    H131376   6.558   6.555   7.776 -1.5612  1.0957 -1.7221
 3247TIP3    H231377   6.607   6.698   7.764  2.7516 -0.0099  0.5774
 3248TIP3   OH231378   1.726   6.684   7.375 -0.5410  0.0308  0.5108
 3248TIP3    H131379   1.794   6.744   7.406  0.7966 -1.6829  1.0087
 3248TIP3    H231380   1.747   6.600   7.416 -0.7131 -1.5121 -2.3477
 3249TIP3   OH231381   0.542   3.099   1.988 -0.1619  0.0829  0.0101
 3249TIP3    H131382   0.619   3.151   2.012  0.4353 -0.5615 -0.4500
 3249TIP3    H231383   0.470   3.162   1.984 -0.1282  0.3976  2.5657
 3250TIP3   OH231384   1.892   2.892   7.794 -0.4206  0.6474  0.1975
 3250TIP3    H131385   1.881   2.961   7.729  0.1491  1.3619  0.8429
 3250TIP3    H231386   1.976   2.911   7.836  0.9802 -1.8067 -1.2405
 3251TIP3   OH231387   2.110   0.200   0.734 -0.3865 -0.0217  0.2637
 3251TIP3    H131388   2.074   0.289   0.732 -0.5605 -0.0939  0.1577
 3251TIP3    H231389   2.094   0.166   0.646  3.3917  1.2948 -1.1067
 3252TIP3   OH231390   3.255   0.368   0.983 -0.2477 -0.3358 -0.4741
 3252TIP3    H131391   3.298   0.282   0.985 -1.8963 -1.1911 -0.2021
 3252TIP3    H231392   3.177   0.355   0.929 -1.0809  0.7194  0.4246
 3253TIP3   OH231393   4.989   1.176   7.323  0.2192 -0.8484 -0.2789
 3253TIP3    H131394   4.956   1.263   7.345 -1.2625 -1.3579 -0.4083
 3253TIP3    H231395   5.084   1.185   7.326  0.0854  0.7408 -0.1701
 3254TIP3   OH231396   0.574   3.026   8.064  0.2498 -0.6585  0.0792
 3254TIP3    H131397   0.503   3.021   8.128 -1.2334  0.6487 -1.3784
 3254TIP3    H231398   0.627   3.100   8.092 -0.1215 -0.3835  0.0534
 3255TIP3   OH231399   0.958   5.008   6.230 -0.1313 -0.0185 -0.0726
 3255TIP3    H131400   0.872   4.966   6.226 -0.6096  0.7561  1.3356
 3255TIP3    H231401   1.006   4.958   6.296  0.6003 -0.5807 -1.0029
 3256TIP3   OH231402   3.645   1.729   0.181  0.2034 -0.3124 -0.2445
 3256TIP3    H131403   3.712   1.744   0.247  0.3605  0.4125 -0.5605
 3256TIP3    H231404   3.594   1.656   0.215  1.4088 -1.1594 -0.2090
 3257TIP3   OH231405   5.106   1.203   0.010  0.1938 -0.1981 -0.7315
 3257TIP3    H131406   5.083   1.291   0.040  0.2449  0.0448 -1.3876
 3257TIP3    H231407   5.180   1.217  -0.050 -0.0671 -0.6399 -1.1632
 3258TIP3   OH231408   6.875   2.764   1.519 -0.3657  0.3573  0.5700
 3258TIP3    H131409   6.918   2.766   1.604  1.1692 -0.1832 -0.1633
 3258TIP3    H231410   6.806   2.698   1.527 -0.3361  0.4303  1.4231
 3259TIP3   OH231411   0.810   2.329   1.166  0.2425 -0.3522  0.5018
 3259TIP3    H131412   0.738   2.362   1.111  0.7522 -0.4236 -0.2193
 3259TIP3    H231413   0.780   2.243   1.194 -0.9748  0.5458  2.1668
 3260TIP3   OH231414   5.068   2.533   7.097  0.0953 -0.5593  0.2232
 3260TIP3    H131415   4.996   2.470   7.107 -0.6405  0.0971 -0.6542
 3260TIP3    H231416   5.087   2.532   7.003  0.4798  0.0923  0.2895
 3261TIP3   OH231417   1.689   5.391   7.304 -0.4542  0.2595  0.1915
 3261TIP3    H131418   1.746   5.452   7.256 -0.9175  0.3068 -0.2974
 3261TIP3    H231419   1.697   5.308   7.256 -1.1041  0.3706 -0.1142
 3262TIP3   OH231420   5.639   5.782   8.471 -0.0335 -0.2899  1.0517
 3262TIP3    H131421   5.655   5.695   8.508  2.4432 -1.0266 -1.4129
 3262TIP3    H231422   5.720   5.830   8.484 -0.3898  0.6908 -0.0717
 3263TIP3   OH231423   1.638   2.124   7.310  0.3788 -0.6106 -0.0138
 3263TIP3    H131424   1.667   2.129   7.401  0.5032  0.0920 -0.0919
 3263TIP3    H231425   1.719   2.111   7.260  0.5463  1.0624 -0.2056
 3264TIP3   OH231426   4.784   5.704   7.824 -0.1223  1.0340 -0.5316
 3264TIP3    H131427   4.802   5.752   7.743 -1.8565  0.9367 -1.0102
 3264TIP3    H231428   4.801   5.612   7.802 -0.7391  0.9894 -0.8510
 3265TIP3   OH231429   4.835   5.942   1.819  0.5561 -0.5632 -0.1703
 3265TIP3    H131430   4.792   6.027   1.803  1.2101 -0.1837  0.0421
 3265TIP3    H231431   4.775   5.897   1.879 -0.7118 -1.0242 -1.7261
 3266TIP3   OH231432   6.754   0.824   1.647 -0.1429  0.7514  0.4452
 3266TIP3    H131433   6.692   0.870   1.704  1.0892 -0.3276  2.8130
 3266TIP3    H231434   6.813   0.893   1.616 -0.8237  1.3691  0.5009
 3267TIP3   OH231435   5.174   5.938   0.555 -0.8589  0.3041  0.0828
 3267TIP3    H131436   5.168   5.904   0.645 -0.8843  0.6913  0.2290
 3267TIP3    H231437   5.085   5.964   0.533 -0.5579  1.9094  0.6214
 3268TIP3   OH231438   3.115   0.072   1.098  0.4479  0.6522  0.5993
 3268TIP3    H131439   3.057  -0.004   1.110  1.8276 -0.3131  1.3935
 3268TIP3    H231440   3.064   0.133   1.044 -0.2764 -1.3068 -1.0440
 3269TIP3   OH231441   5.714   5.435   1.105  0.1858 -0.2237 -0.0943
 3269TIP3    H131442   5.677   5.389   1.030  1.3608  0.7921 -1.3463
 3269TIP3    H231443   5.702   5.375   1.179 -1.2393 -1.1361 -1.0205
 3270TIP3   OH231444   3.531   1.123   0.369 -0.0887  0.2439 -0.1909
 3270TIP3    H131445   3.607   1.178   0.351 -0.2450 -0.0103 -1.7397
 3270TIP3    H231446   3.464   1.184   0.399  0.2816  0.6619 -0.2047
 3271TIP3   OH231447   0.854   3.316   8.284  0.1430 -0.0489 -0.5800
 3271TIP3    H131448   0.849   3.370   8.363  0.1894  0.9134 -1.2149
 3271TIP3    H231449   0.885   3.231   8.315 -1.6544 -0.2856  0.7022
 3272TIP3   OH231450   0.531   2.899   2.192 -0.1650  0.1357  0.1262
 3272TIP3    H131451   0.503   2.987   2.221 -0.2813  1.0341 -2.4779
 3272TIP3    H231452   0.551   2.910   2.099  4.2909 -1.5728  0.6536
 3273TIP3   OH231453   5.269   4.709   7.513  0.2318  0.3033  0.2047
 3273TIP3    H131454   5.339   4.673   7.458 -1.0460 -0.4945 -0.9773
 3273TIP3    H231455   5.235   4.633   7.562 -1.4467  0.1142 -1.1432
 3274TIP3   OH231456   5.709   3.320   8.544  0.0165  0.3804  0.5458
 3274TIP3    H131457   5.795   3.346   8.511  0.5654 -0.7322  1.0626
 3274TIP3    H231458   5.663   3.403   8.556  0.7766  0.9611 -0.3605
 3275TIP3   OH231459   2.311   3.603   6.560  0.3952  0.0431  0.1562
 3275TIP3    H131460   2.348   3.528   6.513 -1.6981 -1.0956  0.2123
 3275TIP3    H231461   2.223   3.574   6.584 -0.3856  2.4553  0.3796
 3276TIP3   OH231462   5.004   2.079   0.951 -0.2208 -0.9525 -0.0538
 3276TIP3    H131463   5.050   2.041   1.026  1.2656 -1.6083 -1.2343
 3276TIP3    H231464   4.920   2.108   0.986  1.3560  1.0476  2.3904
 3277TIP3   OH231465   2.538   0.559   7.779 -0.2107  0.1833 -0.0307
 3277TIP3    H131466   2.526   0.464   7.781  0.1772  0.0265 -2.3165
 3277TIP3    H231467   2.553   0.583   7.870 -2.4816 -1.6262  0.9388
 3278TIP3   OH231468   5.148   2.334   6.793  0.3197 -0.7561  0.0370
 3278TIP3    H131469   5.141   2.426   6.768 -0.3029 -0.9525 -0.5584
 3278TIP3    H231470   5.178   2.290   6.714 -1.3500 -1.3416 -0.3074
 3279TIP3   OH231471   5.783   0.143   8.141  0.2289 -0.1690 -0.0087
 3279TIP3    H131472   5.708   0.084   8.147  1.3288 -1.5979  0.1656
 3279TIP3    H231473   5.839   0.104   8.075  1.0891  0.5689  0.2678
 3280TIP3   OH231474   4.268   0.396   2.100 -1.1044 -0.2471 -0.0037
 3280TIP3    H131475   4.195   0.349   2.060 -2.1322 -0.8785  2.4336
 3280TIP3    H231476   4.233   0.483   2.118 -1.2164 -0.4856  0.9764
 3281TIP3   OH231477   2.997   2.883   1.203 -0.8394  0.4925 -0.1856
 3281TIP3    H131478   2.992   2.932   1.285  0.5044 -0.7687  0.7095
 3281TIP3    H231479   2.958   2.798   1.224 -0.1503  0.0313 -0.7143
 3282TIP3   OH231480   1.951   5.344   0.156 -0.0700 -0.2980 -0.0635
 3282TIP3    H131481   2.034   5.302   0.136 -0.2576 -1.2186  0.9668
 3282TIP3    H231482   1.895   5.272   0.187 -1.0383  0.4055 -0.1431
 3283TIP3   OH231483   2.258   4.487   6.689  0.3263 -0.4623 -0.8238
 3283TIP3    H131484   2.347   4.519   6.675  0.5589 -1.3225 -1.3514
 3283TIP3    H231485   2.268   4.413   6.749 -0.4051  1.6534  2.2061
 3284TIP3   OH231486   6.447   4.777   0.647  0.3376  0.1384 -0.0800
 3284TIP3    H131487   6.531   4.732   0.638 -0.2130 -0.5297 -2.7663
 3284TIP3    H231488   6.385   4.708   0.670  0.2987  0.4212  0.6954
 3285TIP3   OH231489   6.025   0.260   2.016 -0.7392  0.0734  0.6326
 3285TIP3    H131490   6.107   0.233   2.058 -0.4575  0.5079  0.3685
 3285TIP3    H231491   6.029   0.220   1.929 -1.1838 -0.5772  0.9077
 3286TIP3   OH231492   6.811   3.554   0.394 -0.4765  0.3554 -0.2760
 3286TIP3    H131493   6.806   3.602   0.311  0.3319  0.2078 -0.4134
 3286TIP3    H231494   6.775   3.615   0.458  0.3432  1.0887 -0.4846
 3287TIP3   OH231495   4.299   5.999   0.267  0.3332  0.1262 -0.1742
 3287TIP3    H131496   4.288   5.999   0.172 -1.8812  2.6247 -0.0312
 3287TIP3    H231497   4.392   6.018   0.281  0.6840 -0.3059 -1.8197
 3288TIP3   OH231498   5.766   6.379   8.427  0.5308 -0.2024  0.4583
 3288TIP3    H131499   5.813   6.353   8.347  1.4048 -0.0785  0.9203
 3288TIP3    H231500   5.674   6.369   8.404  0.6066  2.4107 -1.5249
 3289TIP3   OH231501   5.976   5.419   0.996  0.5986 -0.1841 -0.0290
 3289TIP3    H131502   5.899   5.423   1.053  0.4674 -1.1768 -0.1345
 3289TIP3    H231503   6.006   5.329   1.002  1.1606 -0.0536 -0.7791
 3290TIP3   OH231504   2.032   0.678   6.526 -0.6072  0.4024 -0.6963
 3290TIP3    H131505   1.946   0.695   6.487 -1.2394  0.7479  0.7811
 3290TIP3    H231506   2.045   0.584   6.515 -2.0227  0.0054  0.6425
 3291TIP3   OH231507   3.982   4.527   7.014 -0.0490 -0.2819 -0.0028
 3291TIP3    H131508   3.922   4.523   6.940 -1.3337 -0.6141  1.0164
 3291TIP3    H231509   3.975   4.617   7.046  0.7829 -0.0308 -0.4688
 3292TIP3   OH231510   5.670   4.295   6.788  0.3235  0.4922 -0.0798
 3292TIP3    H131511   5.665   4.241   6.709  0.2601  1.4875 -0.7731
 3292TIP3    H231512   5.628   4.243   6.855 -0.3054 -0.0599 -0.8794
 3293TIP3   OH231513   4.496   0.036   7.159  0.5484 -0.4454 -0.6551
 3293TIP3    H131514   4.555   0.109   7.142  2.2212 -1.6895 -0.3718
 3293TIP3    H231515   4.487   0.033   7.254 -0.1452 -0.1434 -0.7053
 3294TIP3   OH231516   3.825   3.588   0.302 -0.0191  0.8786 -0.2967
 3294TIP3    H131517   3.848   3.680   0.314 -1.7483  1.6211 -2.0932
 3294TIP3    H231518   3.730   3.586   0.307 -0.1222 -0.4977 -1.9792
 3295TIP3   OH231519   0.756   5.090   2.371  0.3778 -0.0935 -0.2961
 3295TIP3    H131520   0.779   5.115   2.281 -0.7580 -0.4723 -0.7068
 3295TIP3    H231521   0.773   5.169   2.422  1.0289  0.1325 -0.8446
 3296TIP3   OH231522   1.288   2.364   7.832 -0.0893 -0.7064 -0.7932
 3296TIP3    H131523   1.286   2.280   7.879  1.3798 -0.8437 -0.9476
 3296TIP3    H231524   1.356   2.353   7.766 -2.1526 -0.5601 -3.0990
 3297TIP3   OH231525   4.422   6.116   0.832 -0.0150 -0.8001 -0.0190
 3297TIP3    H131526   4.385   6.190   0.881  0.3374  0.6397 -1.8349
 3297TIP3    H231527   4.516   6.130   0.836  0.0627 -1.2838 -0.1883
 3298TIP3   OH231528   3.355   6.631   7.913  0.2091  0.2624  0.2866
 3298TIP3    H131529   3.393   6.690   7.848 -0.6747 -0.1458 -0.6078
 3298TIP3    H231530   3.396   6.546   7.895  1.1784  0.4777  1.3181
 3299TIP3   OH231531   2.173   6.368   0.341 -0.4460 -0.1591  0.2698
 3299TIP3    H131532   2.150   6.388   0.432  0.3239 -1.9569  0.9207
 3299TIP3    H231533   2.091   6.339   0.301 -0.7538  0.4685  0.4364
 3300TIP3   OH231534   2.574   4.202   7.965 -0.5004  0.0503 -0.0539
 3300TIP3    H131535   2.600   4.179   8.054 -1.0411  0.0478  0.1071
 3300TIP3    H231536   2.505   4.268   7.976 -1.3644 -0.7607 -0.4322
 3301TIP3   OH231537   0.102   0.235   7.506 -0.1315 -0.1283  0.5191
 3301TIP3    H131538   0.074   0.149   7.474  1.5245 -0.6766  0.4753
 3301TIP3    H231539   0.163   0.215   7.577 -2.7829  1.0413  3.3946
 3302TIP3   OH231540   5.964   3.007   7.852  0.1292 -0.1294  0.3891
 3302TIP3    H131541   5.887   2.995   7.908  0.3898 -0.8617  0.5952
 3302TIP3    H231542   6.028   3.050   7.909 -0.1873  0.6503  0.1639
 3303TIP3   OH231543   0.681   3.147   0.912 -0.5095  0.1338 -0.6468
 3303TIP3    H131544   0.640   3.177   0.993 -2.2217 -2.1755 -0.5468
 3303TIP3    H231545   0.641   3.201   0.844 -1.6731 -0.1841 -0.2516
 3304TIP3   OH231546   2.017   6.223   0.166  0.2821  0.3129  0.5478
 3304TIP3    H131547   2.023   6.166   0.242 -2.7895  0.2003  0.7990
 3304TIP3    H231548   2.056   6.172   0.095 -1.8786 -1.9539  0.8661
 3305TIP3   OH231549   1.643   2.798   8.437  0.6878 -1.1294 -0.0780
 3305TIP3    H131550   1.556   2.839   8.444  1.5317  0.7027  0.3999
 3305TIP3    H231551   1.630   2.708   8.466 -1.1728 -1.0914 -0.6528
 3306TIP3   OH231552   1.390   6.294   2.507 -0.1616  0.4362 -0.7716
 3306TIP3    H131553   1.420   6.207   2.535 -2.2259 -1.1001 -3.0457
 3306TIP3    H231554   1.333   6.323   2.578 -0.1105 -0.4065 -0.3706
 3307TIP3   OH231555   1.535   1.706   2.003  0.4032  0.8509 -0.1208
 3307TIP3    H131556   1.471   1.716   2.074  1.5189  3.5039  0.6360
 3307TIP3    H231557   1.565   1.795   1.986  1.6124  0.0332 -2.6198
 3308TIP3   OH231558   2.006   4.689   8.649 -0.2221  0.0490 -0.4970
 3308TIP3    H131559   2.006   4.594   8.659  0.1552 -0.0891 -1.6371
 3308TIP3    H231560   1.953   4.705   8.571 -1.5013  0.8977  0.5215
 3309TIP3   OH231561   6.226   5.361   0.609 -0.0707  0.1485 -0.8433
 3309TIP3    H131562   6.208   5.339   0.701  0.8856 -1.1730 -0.9425
 3309TIP3    H231563   6.222   5.456   0.606  0.9204  0.2802  0.8171
 3310TIP3   OH231564   1.347   1.595   7.715  0.2839  0.4891 -0.5617
 3310TIP3    H131565   1.306   1.565   7.797  0.1257 -1.9557 -1.4517
 3310TIP3    H231566   1.287   1.661   7.682  0.7340  2.1024  1.6206
 3311TIP3   OH231567   6.842   3.228   0.139  0.0648  0.1955 -0.0978
 3311TIP3    H131568   6.797   3.263   0.216  0.8439  2.6120 -0.6740
 3311TIP3    H231569   6.841   3.299   0.076  0.3661 -1.3868 -1.9701
 3312TIP3   OH231570   6.730   6.684   7.026 -0.3728 -0.0177  0.1098
 3312TIP3    H131571   6.800   6.644   6.974 -0.5752 -0.7484  0.4031
 3312TIP3    H231572   6.760   6.678   7.116 -0.6831 -0.0712  0.2106
 3313TIP3   OH231573   4.696   5.441   6.441 -0.6936 -0.7732  0.2868
 3313TIP3    H131574   4.608   5.475   6.428 -0.5575 -0.7919 -0.7765
 3313TIP3    H231575   4.716   5.395   6.359  0.3133 -0.7343  0.4984
 3314TIP3   OH231576   0.810   3.681   0.927  0.2900 -0.3028 -0.2178
 3314TIP3    H131577   0.893   3.668   0.973 -0.1077 -0.1730  0.5532
 3314TIP3    H231578   0.788   3.773   0.942 -0.7846 -0.7283  0.9494
 3315TIP3   OH231579   0.311   3.369   1.161  0.1940 -0.5663  0.6957
 3315TIP3    H131580   0.317   3.444   1.103  0.5230 -1.9458 -1.1490
 3315TIP3    H231581   0.292   3.406   1.247  0.5904  1.6115 -0.1075
 3316TIP3   OH231582   5.897   3.930   1.533  0.0937 -0.3216 -0.3763
 3316TIP3    H131583   5.970   3.928   1.472 -0.1653 -1.3576 -0.6757
 3316TIP3    H231584   5.837   3.996   1.498  2.2497  2.9475  1.5538
 3317TIP3   OH231585   4.225   6.692   0.753 -0.4907 -0.1635 -0.3304
 3317TIP3    H131586   4.134   6.722   0.745  0.4284  2.4771 -2.2898
 3317TIP3    H231587   4.258   6.737   0.830 -0.6921 -0.8425  0.1688
 3318TIP3   OH231588   4.186   1.988   1.399 -0.0273 -0.1615  0.1472
 3318TIP3    H131589   4.136   1.907   1.386 -1.0190  0.4209  0.2284
 3318TIP3    H231590   4.120   2.054   1.419  0.8731  0.4266  1.2884
 3319TIP3   OH231591   4.018   5.437   1.457  0.3289  0.0669 -0.0399
 3319TIP3    H131592   4.059   5.478   1.533  0.4806 -0.7773  0.3488
 3319TIP3    H231593   4.079   5.367   1.432  0.9018  1.1080 -1.7237
 3320TIP3   OH231594   0.405   2.987   0.786  0.0640 -0.4900 -0.0318
 3320TIP3    H131595   0.409   3.000   0.880 -0.8530 -0.0620 -0.0393
 3320TIP3    H231596   0.332   3.042   0.757  0.2907 -0.6649 -0.9793
 3321TIP3   OH231597   0.005   5.058   8.458 -0.3018 -0.0662  0.9828
 3321TIP3    H131598  -0.050   5.106   8.396 -1.4779 -1.8004  0.6142
 3321TIP3    H231599   0.039   4.985   8.407 -1.6233 -1.7806  2.4302
 3322TIP3   OH231600   5.750   2.705   7.937  0.3035  0.2531 -0.0053
 3322TIP3    H131601   5.781   2.708   8.027 -1.3140 -0.1281  0.5957
 3322TIP3    H231602   5.787   2.624   7.901 -0.0294 -0.2236  0.7076
 3323TIP3   OH231603   5.547   5.225   0.900  0.0629 -0.6162 -0.0915
 3323TIP3    H131604   5.635   5.190   0.886 -0.0602 -0.7874 -0.4363
 3323TIP3    H231605   5.491   5.147   0.909  0.2908 -0.5868  2.4968
 3324TIP3   OH231606   2.686   4.925   8.503 -0.0699 -0.1542 -0.0909
 3324TIP3    H131607   2.596   4.955   8.491  0.2654  0.8166 -0.2752
 3324TIP3    H231608   2.740   4.993   8.463  0.8292  0.1089  1.4899
 3325TIP3   OH231609   3.130   3.081   7.901 -0.0833  0.7449 -0.5429
 3325TIP3    H131610   3.084   3.058   7.981 -0.9515  0.1434 -1.1888
 3325TIP3    H231611   3.063   3.124   7.847  0.3238  0.6069 -1.1730
 3326TIP3   OH231612   5.097   5.823   6.718 -0.3791 -0.2723 -0.1053
 3326TIP3    H131613   5.064   5.734   6.708 -0.1631 -0.5076  1.1011
 3326TIP3    H231614   5.151   5.837   6.640 -2.2678 -0.3156 -1.5168
 3327TIP3   OH231615   6.238   1.588   0.818  0.0152  0.8327  0.0264
 3327TIP3    H131616   6.173   1.622   0.879  0.1985  0.7975  0.2398
 3327TIP3    H231617   6.213   1.626   0.733  0.8035  2.3263  0.4348
 3328TIP3   OH231618   5.085   5.233   7.845  0.2414  0.0629  0.2785
 3328TIP3    H131619   5.040   5.230   7.930 -2.3360  1.1002 -0.9439
 3328TIP3    H231620   5.068   5.321   7.812  2.1404  0.0499 -0.8764
 3329TIP3   OH231621   2.983   1.876   6.459 -0.2022 -0.2795 -0.6897
 3329TIP3    H131622   2.918   1.838   6.400 -1.3678 -1.3495  1.1832
 3329TIP3    H231623   3.067   1.861   6.415 -1.1107  0.3082 -2.7249
 3330TIP3   OH231624   6.533   6.281   7.002  0.3624 -0.4938 -0.0910
 3330TIP3    H131625   6.505   6.367   6.973  2.9748 -0.2074 -2.2145
 3330TIP3    H231626   6.578   6.243   6.926  1.9278 -2.4628  1.6678
 3331TIP3   OH231627   4.585   1.837   0.423 -0.1219 -0.3680  0.4189
 3331TIP3    H131628   4.517   1.833   0.356 -0.4357 -3.1147  0.7683
 3331TIP3    H231629   4.539   1.822   0.505  0.8042 -2.0848  0.6766
 3332TIP3   OH231630   6.651   2.277   8.339  0.0272  0.1356  0.9180
 3332TIP3    H131631   6.689   2.350   8.290  0.7420 -1.0901 -0.4086
 3332TIP3    H231632   6.714   2.206   8.328 -1.1603 -1.0026  1.3217
 3333TIP3   OH231633   4.480   1.880   6.322  0.4795  0.0019 -0.0680
 3333TIP3    H131634   4.392   1.886   6.285  1.1727 -2.0834 -2.2520
 3333TIP3    H231635   4.482   1.795   6.366  1.3338  0.1067  0.1112
 3334TIP3   OH231636   6.798   0.593   8.120  0.4010 -0.3201 -0.0600
 3334TIP3    H131637   6.731   0.656   8.094  0.6727  0.3523  0.8392
 3334TIP3    H231638   6.816   0.543   8.040 -0.8934 -0.2620 -0.4105
 3335TIP3   OH231639   4.472   0.675   0.817  0.2748  0.3433 -0.0201
 3335TIP3    H131640   4.494   0.609   0.883 -0.6778  0.5318  0.5062
 3335TIP3    H231641   4.381   0.656   0.794  0.3384  0.8006 -0.6725
 3336TIP3   OH231642   4.728   1.296   8.495  0.7990  0.0826  1.0891
 3336TIP3    H131643   4.700   1.321   8.407 -1.0497  0.3500  1.7206
 3336TIP3    H231644   4.795   1.361   8.518  2.1397 -0.6635 -0.5118
 3337TIP3   OH231645   0.499   6.825   2.197  0.7981  0.2976  0.7127
 3337TIP3    H131646   0.501   6.735   2.164 -0.7199  0.9970 -1.5190
 3337TIP3    H231647   0.577   6.866   2.159  0.2415  0.5038 -0.2509
 3338TIP3   OH231648   1.876   2.849   1.028  0.1642  0.4222  0.1480
 3338TIP3    H131649   1.965   2.881   1.014 -0.5767  1.5815 -2.6413
 3338TIP3    H231650   1.830   2.870   0.947 -2.1099 -2.0836  0.6352
 3339TIP3   OH231651   6.706   3.627   8.376  0.2087  0.3143  0.0879
 3339TIP3    H131652   6.793   3.614   8.413 -0.1879  1.8583  1.7230
 3339TIP3    H231653   6.718   3.620   8.282  1.7587 -1.2218  0.3607
 3340TIP3   OH231654   6.290   2.160   0.339 -0.0763 -0.2908 -0.3129
 3340TIP3    H131655   6.350   2.220   0.295  1.2292 -1.3909 -0.0939
 3340TIP3    H231656   6.282   2.194   0.428  0.2727 -0.1643 -0.3295
 3341TIP3   OH231657   4.717   6.160   6.249 -0.3964  0.3322  0.0297
 3341TIP3    H131658   4.812   6.157   6.254 -0.3993  0.1165 -0.0104
 3341TIP3    H231659   4.694   6.086   6.192 -0.5973  0.2721  0.1858
 3342TIP3   OH231660   2.846   0.287   0.659  0.0945 -0.1015  0.4482
 3342TIP3    H131661   2.844   0.280   0.564 -0.3698 -1.7611  0.5349
 3342TIP3    H231662   2.789   0.361   0.679 -0.0096  0.1028 -0.5546
 3343TIP3   OH231663   5.232   1.955   7.186  0.0339  0.1523  0.1927
 3343TIP3    H131664   5.282   2.031   7.213  1.1819 -1.1029  1.7591
 3343TIP3    H231665   5.297   1.890   7.159 -0.9541  0.0817 -2.2778
 3344TIP3   OH231666   5.955   4.762   1.764  0.6932  0.0911  0.2638
 3344TIP3    H131667   5.928   4.826   1.830  1.1289 -0.1691  0.7060
 3344TIP3    H231668   6.029   4.803   1.720 -1.7243  1.8014 -2.5219
 3345TIP3   OH231669   1.042   4.890   0.638 -0.2187 -0.6577  0.4531
 3345TIP3    H131670   1.112   4.829   0.617  1.1768  0.5646  1.3729
 3345TIP3    H231671   0.962   4.845   0.610  0.7685 -2.7629  0.7980
 3346TIP3   OH231672   6.645   2.905   6.751 -0.1612  1.0299  0.2536
 3346TIP3    H131673   6.589   2.972   6.711 -0.3275 -1.2016 -3.7179
 3346TIP3    H231674   6.733   2.926   6.723  0.0523  0.6223  0.5955
 3347TIP3   OH231675   4.743   0.616   1.957 -0.0060  0.5589 -0.0913
 3347TIP3    H131676   4.690   0.537   1.961  0.8477 -0.0154  0.1046
 3347TIP3    H231677   4.808   0.605   2.027  0.3473  1.2627 -0.2967
 3348TIP3   OH231678   2.974   4.774   7.753 -0.1047 -0.0424  0.2894
 3348TIP3    H131679   3.059   4.731   7.768  0.1863  0.4370  0.0374
 3348TIP3    H231680   2.967   4.778   7.657 -0.3970 -0.0447  0.3119
 3349TIP3   OH231681   2.855   0.004   2.229  0.2264  0.0794  0.2539
 3349TIP3    H131682   2.941  -0.034   2.247  0.7092  1.3553  0.7350
 3349TIP3    H231683   2.817  -0.055   2.164  0.9886 -1.1454  0.8632
 3350TIP3   OH231684   3.997   0.978   8.521  0.4258 -0.4661 -0.5888
 3350TIP3    H131685   4.000   1.000   8.428 -0.8156  0.6241 -0.3951
 3350TIP3    H231686   4.079   1.014   8.556  0.3449  0.1742 -1.0370
 3351TIP3   OH231687   5.379   0.233   8.590  0.4884  0.1829 -0.0973
 3351TIP3    H131688   5.345   0.146   8.614  1.2149  0.2707  1.3755
 3351TIP3    H231689   5.312   0.294   8.622 -0.0721  0.1857 -1.2264
 3352TIP3   OH231690   5.102   5.013   6.538  0.2603 -0.2740  0.0158
 3352TIP3    H131691   5.184   4.981   6.499  1.3369  1.4192  0.7684
 3352TIP3    H231692   5.130   5.060   6.617 -1.5044 -0.1529  0.6081
 3353TIP3   OH231693   3.760   0.982   1.681 -0.0844  0.5235  0.7266
 3353TIP3    H131694   3.841   0.951   1.720  0.1248  0.4384  0.2313
 3353TIP3    H231695   3.785   1.058   1.629 -0.4650  1.0272  1.2715
 3354TIP3   OH231696   6.173   3.369   1.131  1.0129 -0.1157 -0.2548
 3354TIP3    H131697   6.081   3.388   1.111  1.0105  0.7347  0.4868
 3354TIP3    H231698   6.187   3.281   1.098  0.3538  0.3043 -1.7263
 3355TIP3   OH231699   0.510   5.631   6.845  0.1546 -0.8658  0.0073
 3355TIP3    H131700   0.565   5.709   6.850  1.6611 -1.7960 -1.2599
 3355TIP3    H231701   0.424   5.664   6.818  0.4202  0.4602  0.6702
 3356TIP3   OH231702   6.508   6.055   1.028 -0.6118  0.3080  0.4012
 3356TIP3    H131703   6.574   6.080   1.093 -2.4491  0.4059  2.3224
 3356TIP3    H231704   6.521   5.961   1.014 -1.4013 -0.1421  2.4292
 3357TIP3   OH231705   1.334   0.977   7.112 -0.4066 -0.5462  0.4013
 3357TIP3    H131706   1.312   1.069   7.099 -0.3750 -0.4286  1.1261
 3357TIP3    H231707   1.259   0.929   7.076 -1.5146 -0.1694  2.1100
 3358TIP3   OH231708   5.913   1.593   6.078 -0.3503  0.4461  0.3136
 3358TIP3    H131709   5.855   1.666   6.060 -0.1543  0.8995  1.4340
 3358TIP3    H231710   6.001   1.628   6.066 -0.2673 -0.4026 -1.9887
 3359TIP3   OH231711   2.984   5.779   8.646 -0.2758  0.1372 -0.4257
 3359TIP3    H131712   2.919   5.848   8.631 -0.9681 -0.5972 -0.9204
 3359TIP3    H231713   3.063   5.811   8.604 -0.3954  0.9203 -0.0757
 3360TIP3   OH231714   4.506   5.018   1.837  0.1121 -0.4854 -0.0178
 3360TIP3    H131715   4.431   5.031   1.895  0.9422 -0.2841  1.0515
 3360TIP3    H231716   4.469   5.016   1.749 -0.9815  1.2749  0.3516
 3361TIP3   OH231717   6.887   1.544   0.207 -0.0104  0.4221 -0.1284
 3361TIP3    H131718   6.833   1.479   0.254 -0.6894  1.7726  1.0308
 3361TIP3    H231719   6.952   1.572   0.271  0.2138  0.9639 -0.5888
 3362TIP3   OH231720   5.700   0.050   0.521  0.2308  0.5324  0.1234
 3362TIP3    H131721   5.794   0.028   0.517  0.2051 -0.0886  1.9941
 3362TIP3    H231722   5.670   0.041   0.431  1.4265 -1.8911 -0.1258
 3363TIP3   OH231723   0.554   6.263   6.608 -0.2779  0.2820 -0.4563
 3363TIP3    H131724   0.460   6.265   6.628 -0.5008  0.5092 -1.4768
 3363TIP3    H231725   0.562   6.203   6.535  0.7741 -2.0725  1.4440
 3364TIP3   OH231726   2.676   4.272   1.074  0.0170  0.7302  0.0572
 3364TIP3    H131727   2.613   4.265   1.003  0.1798  1.2980 -0.1518
 3364TIP3    H231728   2.729   4.349   1.052  0.9694  0.0996  0.0834
 3365TIP3   OH231729   5.217   2.822   1.533 -0.0026 -0.3787 -0.0280
 3365TIP3    H131730   5.241   2.915   1.532 -3.2856  0.6292  0.1501
 3365TIP3    H231731   5.240   2.792   1.621  1.6298  0.0707 -0.2819
 3366TIP3   OH231732   3.733   3.084   7.851 -0.3064  0.0380  0.9223
 3366TIP3    H131733   3.687   3.129   7.922  2.1654  1.6534  1.6544
 3366TIP3    H231734   3.805   3.038   7.896 -0.9564 -2.1672 -0.1749
 3367TIP3   OH231735   4.662   0.532   0.559  0.2020 -0.1260  0.3988
 3367TIP3    H131736   4.666   0.571   0.472 -1.2819  2.2487  1.2912
 3367TIP3    H231737   4.714   0.452   0.552  0.3473  0.1226 -2.5621
 3368TIP3   OH231738   3.170   4.320   7.816  0.2043  0.7527 -0.3433
 3368TIP3    H131739   3.167   4.233   7.777  0.8575  1.1792 -1.4002
 3368TIP3    H231740   3.161   4.305   7.910  0.9322 -0.5049 -0.4536
 3369TIP3   OH231741   4.554   0.534   7.704 -0.3220 -0.5574 -0.1677
 3369TIP3    H131742   4.512   0.525   7.619 -0.3743  0.2807 -0.2391
 3369TIP3    H231743   4.645   0.558   7.683 -0.3656 -0.2335  0.0070
 3370TIP3   OH231744   4.532   3.781   7.290  0.1673  0.0840 -0.6527
 3370TIP3    H131745   4.618   3.823   7.288 -0.5000  2.1575  3.0618
 3370TIP3    H231746   4.549   3.693   7.324  0.8831  0.4985  0.1104
 3371TIP3   OH231747   2.363   6.901   2.184  0.0935 -0.2395 -0.6852
 3371TIP3    H131748   2.367   6.812   2.220 -0.1946  0.1013  0.2021
 3371TIP3    H231749   2.453   6.920   2.158  0.0363 -1.0524 -1.5517
 3372TIP3   OH231750   0.514   3.551   7.681  0.0423 -0.2286  0.2693
 3372TIP3    H131751   0.581   3.576   7.745 -0.2056 -2.6271  1.5686
 3372TIP3    H231752   0.433   3.546   7.731 -0.0552 -2.7707  0.0065
 3373TIP3   OH231753   5.470   4.984   8.582 -0.3730 -0.3377 -0.0495
 3373TIP3    H131754   5.498   5.037   8.507 -1.8740 -0.3932 -0.7045
 3373TIP3    H231755   5.380   4.957   8.559 -0.5880 -0.9788  1.4439
 3374TIP3   OH231756   2.357   2.472   0.651 -0.3498 -0.4382 -0.3099
 3374TIP3    H131757   2.433   2.420   0.628  0.5478  1.2140 -1.2030
 3374TIP3    H231758   2.292   2.451   0.584 -0.6700 -1.7059  0.3494
 3375TIP3   OH231759   3.773   5.163   1.366 -0.0900  0.5206 -0.0728
 3375TIP3    H131760   3.711   5.187   1.298  0.9567  0.1051 -1.2154
 3375TIP3    H231761   3.856   5.202   1.338  0.5775 -0.4628  0.4574
 3376TIP3   OH231762   4.083   1.753   7.312 -0.2158  0.2019  0.5401
 3376TIP3    H131763   4.135   1.772   7.234 -0.0804  0.0112  0.5852
 3376TIP3    H231764   4.022   1.684   7.283 -0.1971  0.1647  0.5901
 3377TIP3   OH231765   4.581   5.716   1.341 -0.2896 -0.6812  0.8089
 3377TIP3    H131766   4.634   5.690   1.266  1.6010  0.8280  1.5538
 3377TIP3    H231767   4.615   5.664   1.414 -1.8507 -1.8522  0.7428
 3378TIP3   OH231768   3.195   2.833   0.409  0.4019 -0.6775  0.1264
 3378TIP3    H131769   3.113   2.882   0.416  1.0362  0.6187 -1.0073
 3378TIP3    H231770   3.191   2.792   0.323  1.7398  1.0136 -0.8115
 3379TIP3   OH231771   0.186   0.776   1.347  1.1364 -0.1916  0.5949
 3379TIP3    H131772   0.097   0.744   1.332  0.4639  1.3320  1.0518
 3379TIP3    H231773   0.187   0.863   1.305  2.8125 -0.6818 -0.4872
 3380TIP3   OH231774   4.010   2.502   0.579  0.6614 -0.5031  0.6614
 3380TIP3    H131775   4.068   2.446   0.528  1.3632  0.9041 -0.1344
 3380TIP3    H231776   4.067   2.569   0.617 -0.3491  0.6921  0.1658
 3381TIP3   OH231777   1.805   3.975   8.470 -0.4469 -0.2008 -0.0592
 3381TIP3    H131778   1.820   3.972   8.565  1.1473 -1.9174 -0.3118
 3381TIP3    H231779   1.710   3.965   8.461 -0.4072 -2.7515  1.3384
 3382TIP3   OH231780   0.829   5.913   2.427  0.1336 -0.1682  0.0268
 3382TIP3    H131781   0.824   5.863   2.345  1.2396  1.6795 -1.2245
 3382TIP3    H231782   0.876   5.993   2.404  0.4098  0.4529  2.4703
 3383TIP3   OH231783   1.112   1.928   8.674  0.0029 -0.0287  0.0863
 3383TIP3    H131784   1.124   2.023   8.679  2.6387 -0.3676  2.1059
 3383TIP3    H231785   1.130   1.897   8.763  1.0569 -2.5896 -0.9438
 3384TIP3   OH231786   2.068   6.395   8.052  0.3534 -0.0032 -0.3060
 3384TIP3    H131787   2.009   6.469   8.038  0.4896  0.6620  2.2428
 3384TIP3    H231788   2.149   6.434   8.082  0.6962 -1.1499  0.3151
 3385TIP3   OH231789   0.142   2.330   6.182 -0.3838 -0.5927  0.2289
 3385TIP3    H131790   0.132   2.329   6.277 -0.3931 -0.0119  0.2403
 3385TIP3    H231791   0.052   2.325   6.148 -0.3142 -2.4252  0.2112
 3386TIP3   OH231792   1.031   5.582   1.705  0.1592 -0.9393 -0.2891
 3386TIP3    H131793   1.096   5.549   1.643  0.5571 -2.8597  1.0663
 3386TIP3    H231794   1.054   5.541   1.788 -0.7385  1.0632  1.0093
 3387TIP3   OH231795   5.282   4.310   2.018 -0.6845 -0.3116 -0.9378
 3387TIP3    H131796   5.352   4.375   2.026 -1.2618  0.3599 -1.2072
 3387TIP3    H231797   5.210   4.346   2.069 -0.6495 -1.2743 -0.1946
 3388TIP3   OH231798   4.148   1.529   1.977 -0.3844 -0.2012  0.0571
 3388TIP3    H131799   4.099   1.599   1.934  0.0151 -0.5996 -1.0769
 3388TIP3    H231800   4.135   1.544   2.070  1.7019  2.8923 -0.0089
 3389TIP3   OH231801   5.159   1.897   0.311 -0.0319  0.0964 -0.4589
 3389TIP3    H131802   5.193   1.925   0.396 -1.5162  1.0696 -0.1567
 3389TIP3    H231803   5.066   1.920   0.313  0.0635  0.9387 -2.6806
 3390TIP3   OH231804   2.479   4.642   8.047  0.0393 -0.9765  0.1004
 3390TIP3    H131805   2.396   4.670   8.086 -0.0532 -0.1819 -0.6319
 3390TIP3    H231806   2.536   4.718   8.055  0.4077 -1.2169 -0.2057
 3391TIP3   OH231807   5.673   5.524   2.171 -0.0790  0.2195 -0.1376
 3391TIP3    H131808   5.640   5.604   2.129 -1.0638  0.1755  0.5151
 3391TIP3    H231809   5.724   5.556   2.245  0.2477  0.2563 -0.3754
 3392TIP3   OH231810   2.777   0.824   6.985  0.3242  0.1829 -0.7626
 3392TIP3    H131811   2.852   0.875   7.016  1.6561 -1.3319 -1.3886
 3392TIP3    H231812   2.764   0.757   7.052 -0.0857  0.0669 -0.9564
 3393TIP3   OH231813   2.322   6.824   0.667 -0.0100  0.4945 -0.1489
 3393TIP3    H131814   2.358   6.850   0.751  0.8090  1.5906 -0.8113
 3393TIP3    H231815   2.381   6.863   0.602  0.2730 -1.5954 -1.2407
 3394TIP3   OH231816   3.596   5.992   2.191  0.6454 -0.1746 -0.1701
 3394TIP3    H131817   3.523   6.039   2.232  1.1103  0.3477  0.0813
 3394TIP3    H231818   3.616   5.921   2.252 -0.9253 -1.5378 -1.1887
 3395TIP3   OH231819   6.697   6.371   8.111 -0.0957 -0.1776  0.1625
 3395TIP3    H131820   6.629   6.421   8.157  0.0757  0.2471 -0.0405
 3395TIP3    H231821   6.650   6.296   8.073 -0.4474  0.0987  0.0452
 3396TIP3   OH231822   3.033   0.524   6.397  0.1659 -0.5449 -0.0381
 3396TIP3    H131823   3.059   0.612   6.423  1.5244 -0.5922 -1.1319
 3396TIP3    H231824   2.999   0.484   6.477  0.8708  0.4872  0.7958
 3397TIP3   OH231825   1.116   3.417   6.945  0.1317 -0.0406  0.3281
 3397TIP3    H131826   1.086   3.454   6.862  0.9444 -0.7267 -0.2853
 3397TIP3    H231827   1.069   3.467   7.012 -0.0923  0.9246 -0.5254
 3398TIP3   OH231828   3.060   1.876   7.836  0.0671  0.5272  0.1976
 3398TIP3    H131829   3.120   1.919   7.896 -1.0997  3.3635 -0.4801
 3398TIP3    H231830   3.034   1.945   7.774 -1.4342 -1.3691 -1.4503
 3399TIP3   OH231831   3.847   6.326   7.332  0.0778  0.5189  0.5157
 3399TIP3    H131832   3.880   6.302   7.419  2.9928  1.9892 -0.0587
 3399TIP3    H231833   3.869   6.252   7.276  1.1943  0.9122  0.4184
 3400TIP3   OH231834   3.910   6.668   0.477 -0.3242  0.2791  0.4083
 3400TIP3    H131835   3.905   6.574   0.456 -0.4453  0.3007  0.3416
 3400TIP3    H231836   3.823   6.689   0.511 -0.7082  0.6591 -0.7567
 3401TIP3   OH231837   2.936   1.730   0.491 -0.4083 -0.5225 -0.4861
 3401TIP3    H131838   2.872   1.800   0.505 -2.6667 -1.9300 -2.9848
 3401TIP3    H231839   2.963   1.704   0.579 -1.7602  1.4597  0.5841
 3402TIP3   OH231840   5.643   3.186   7.481 -0.1198  0.2194 -0.7873
 3402TIP3    H131841   5.655   3.140   7.563 -2.7569 -0.7962 -0.8814
 3402TIP3    H231842   5.650   3.118   7.414  1.0501  0.8788 -1.3801
 3403TIP3   OH231843   3.520   4.451   8.457 -0.2775 -0.2353 -0.6095
 3403TIP3    H131844   3.553   4.410   8.377 -0.3688 -0.9933 -0.2718
 3403TIP3    H231845   3.588   4.434   8.522  0.3120  1.3488 -0.7806
 3404TIP3   OH231846   3.644   6.707   0.555 -0.1684 -0.6591  0.2799
 3404TIP3    H131847   3.566   6.672   0.599  0.0232 -1.0766  0.2947
 3404TIP3    H231848   3.610   6.759   0.482 -0.5100  0.3976  1.1595
 3405TIP3   OH231849   2.859   2.345   2.329 -0.0301  0.0154 -0.1403
 3405TIP3    H131850   2.844   2.438   2.314 -0.9336 -0.2238 -0.7797
 3405TIP3    H231851   2.884   2.340   2.422  2.7185  1.1663 -0.7143
 3406TIP3   OH231852   1.115   0.652   1.573  0.5123 -0.5323  0.7165
 3406TIP3    H131853   1.104   0.646   1.668 -0.7811  0.8108  0.6860
 3406TIP3    H231854   1.056   0.722   1.547  0.8595 -0.8757 -1.0933
 3407TIP3   OH231855   6.868   3.927   6.619  1.2491 -0.1999  0.8794
 3407TIP3    H131856   6.942   3.926   6.680  0.7652  0.3803  1.4924
 3407TIP3    H231857   6.905   3.965   6.539  1.2923  1.4783  1.6499
 3408TIP3   OH231858   0.118   5.008   0.451 -0.4688 -0.7350  0.4417
 3408TIP3    H131859   0.034   5.047   0.477  0.1843  0.1839  1.2480
 3408TIP3    H231860   0.101   4.914   0.449 -1.6325 -0.5365  0.1443
 3409TIP3   OH231861   2.305   2.821   0.249  0.1932 -0.4719 -0.2378
 3409TIP3    H131862   2.342   2.765   0.317  2.2952  0.7279 -0.3259
 3409TIP3    H231863   2.336   2.783   0.166  0.3098 -0.0934 -0.3698
 3410TIP3   OH231864   5.126   6.760   0.757  0.4564 -0.0165 -0.1499
 3410TIP3    H131865   5.102   6.790   0.670  1.1067  0.0444 -0.3167
 3410TIP3    H231866   5.108   6.666   0.756  0.5856 -0.0395 -0.3927
 3411TIP3   OH231867   1.145   0.013   0.016 -0.1958 -0.2523 -0.3558
 3411TIP3    H131868   1.174   0.092   0.061  0.4432  0.1696 -1.4719
 3411TIP3    H231869   1.178   0.022  -0.073 -4.2817  0.6013 -2.0171
 3412TIP3   OH231870   0.827   4.531   8.373  0.2370 -0.4052 -0.7595
 3412TIP3    H131871   0.775   4.600   8.331 -1.3944 -0.2196  1.3708
 3412TIP3    H231872   0.891   4.578   8.427 -2.2945 -0.2548  2.4769
 3413TIP3   OH231873   0.213   2.125   8.250 -0.8815 -0.4988 -0.0665
 3413TIP3    H131874   0.236   2.209   8.289  0.8797 -0.2416 -1.5464
 3413TIP3    H231875   0.228   2.137   8.156 -1.1978 -2.2769 -0.3787
 3414TIP3   OH231876   4.825   0.794   1.244  0.6794 -0.3627  0.2109
 3414TIP3    H131877   4.878   0.861   1.288 -0.9236 -0.4513  2.4264
 3414TIP3    H231878   4.778   0.750   1.315 -0.1247 -2.2652 -1.4081
 3415TIP3   OH231879   3.902   5.791   6.192 -0.3931  0.3610  0.2879
 3415TIP3    H131880   3.814   5.754   6.187  0.0300 -0.5159 -2.2564
 3415TIP3    H231881   3.925   5.809   6.101  3.6594 -3.4082  0.2268
 3416TIP3   OH231882   2.373   1.038   6.884 -0.0284  0.1509  0.6284
 3416TIP3    H131883   2.407   1.040   6.794 -1.1667 -0.4001  0.1623
 3416TIP3    H231884   2.448   1.058   6.939  0.7575  0.1935 -0.4366
 3417TIP3   OH231885   2.757   3.318   1.711  0.4969 -0.0837 -0.0991
 3417TIP3    H131886   2.787   3.409   1.714  0.1133  0.0271  0.3807
 3417TIP3    H231887   2.663   3.323   1.723  0.4040 -0.5078 -0.6129
 3418TIP3   OH231888   4.867   4.322   8.386 -0.2641  0.4992  0.1760
 3418TIP3    H131889   4.785   4.314   8.435  0.4191 -0.0847  1.2814
 3418TIP3    H231890   4.874   4.240   8.337 -0.8045  0.9621 -0.7118
 3419TIP3   OH231891   2.709   5.414   6.612  0.9201 -0.3056 -0.4583
 3419TIP3    H131892   2.627   5.416   6.662  1.0590  0.8810 -0.2519
 3419TIP3    H231893   2.731   5.321   6.606  0.5946 -0.5233  1.1906
 3420TIP3   OH231894   6.837   2.245   2.231 -0.0029  0.3022 -0.3422
 3420TIP3    H131895   6.807   2.160   2.263  2.1275 -0.4159 -0.0699
 3420TIP3    H231896   6.933   2.237   2.228  0.2602  2.7028 -0.3090
 3421TIP3   OH231897   1.463   6.378   8.230  0.0515  0.4329 -0.2735
 3421TIP3    H131898   1.495   6.297   8.269 -0.5179 -0.2189 -1.1235
 3421TIP3    H231899   1.379   6.393   8.271 -0.2528  0.0957 -0.7592
 3422TIP3   OH231900   5.541   0.568   1.024  0.0484 -0.1364  0.2515
 3422TIP3    H131901   5.614   0.594   1.081 -0.3766 -0.4026  0.9343
 3422TIP3    H231902   5.516   0.648   0.978  1.8010 -0.3722 -1.2022
 3423TIP3   OH231903   1.782   1.438   7.502 -0.2153  0.7595  0.0553
 3423TIP3    H131904   1.807   1.484   7.582  0.1828 -0.0026  0.3846
 3423TIP3    H231905   1.696   1.400   7.523 -0.2464  0.8083  0.0159
 3424TIP3   OH231906   6.303   2.100   8.622 -0.5145  0.2441 -0.2040
 3424TIP3    H131907   6.339   2.188   8.638 -0.6528  0.2581  0.0287
 3424TIP3    H231908   6.344   2.073   8.539  1.4404 -0.4766  0.9304
 3425TIP3   OH231909   1.045   5.229   6.370  0.2243  0.1215  0.2374
 3425TIP3    H131910   1.027   5.136   6.366 -0.1333  0.2280 -1.1079
 3425TIP3    H231911   1.087   5.250   6.286  1.0387  1.0250  0.8405
 3426TIP3   OH231912   6.104   3.593   1.569 -0.5599  0.0714 -0.4990
 3426TIP3    H131913   6.048   3.582   1.492 -0.3083 -0.3306 -0.6239
 3426TIP3    H231914   6.168   3.522   1.563  0.3878  0.9290 -0.7135
 3427TIP3   OH231915   5.085   1.771   2.459  0.4673 -0.4928 -0.3297
 3427TIP3    H131916   5.174   1.746   2.435  0.7498  0.0060  0.1487
 3427TIP3    H231917   5.050   1.814   2.380  0.7562 -0.4307 -0.4262
 3428TIP3   OH231918   4.573   2.385   7.103 -0.1341 -0.0641 -0.2925
 3428TIP3    H131919   4.557   2.367   7.196  2.6079  0.8317  0.4647
 3428TIP3    H231920   4.585   2.299   7.064  1.0078 -0.3945  0.7180
 3429TIP3   OH231921   1.100   3.159   6.996 -0.0245 -0.5522  0.4354
 3429TIP3    H131922   1.101   3.242   6.949  0.8547 -1.1294 -0.5991
 3429TIP3    H231923   1.188   3.153   7.035  1.0441 -2.3194 -1.9733
 3430TIP3   OH231924   5.509   1.933   8.160 -0.1288 -0.0980  0.1016
 3430TIP3    H131925   5.441   1.870   8.185 -0.8837  0.5884 -0.1579
 3430TIP3    H231926   5.464   1.994   8.101  0.7663  0.2632 -0.2192
 3431TIP3   OH231927   6.366   4.678   1.113  0.0920  0.5222  0.0409
 3431TIP3    H131928   6.398   4.641   1.196  0.0583 -0.7786 -0.5060
 3431TIP3    H231929   6.380   4.772   1.122 -1.1478  0.5717  2.0726
 3432TIP3   OH231930   4.156   4.923   0.061 -0.0298 -0.4593 -0.1250
 3432TIP3    H131931   4.237   4.897   0.017 -0.7586  0.0692 -1.8681
 3432TIP3    H231932   4.156   5.018   0.057 -0.7054 -0.4563 -0.0833
 3433TIP3   OH231933   0.662   1.180   7.161 -0.2077  0.0944 -0.3120
 3433TIP3    H131934   0.597   1.182   7.090 -1.3173  2.0636  0.6953
 3433TIP3    H231935   0.680   1.272   7.180 -0.0938 -0.3606  2.0761
 3434TIP3   OH231936   5.465   6.420   1.873 -0.0318 -0.2076  0.5888
 3434TIP3    H131937   5.477   6.511   1.901  0.7783  0.0969 -0.6457
 3434TIP3    H231938   5.375   6.418   1.839  0.1667  0.3124  0.0117
 3435TIP3   OH231939   3.204   5.252   6.918 -0.1570 -0.0104 -0.0404
 3435TIP3    H131940   3.281   5.198   6.900 -1.0734 -1.7997  1.1400
 3435TIP3    H231941   3.190   5.243   7.012 -0.8186  1.6742  0.0462
 3436TIP3   OH231942   5.575   2.645   0.610  0.3282 -0.2707  0.0319
 3436TIP3    H131943   5.527   2.563   0.602  0.8616 -0.4282 -2.3687
 3436TIP3    H231944   5.582   2.660   0.704 -2.3516 -1.4237  0.4982
 3437TIP3   OH231945   1.271   2.760   8.538 -0.0101 -0.2058  0.0985
 3437TIP3    H131946   1.220   2.838   8.561 -0.0240 -0.5262  1.2002
 3437TIP3    H231947   1.211   2.706   8.486 -1.0379 -0.8446  1.8599
 3438TIP3   OH231948   5.139   5.444   0.421  0.3182  0.4712 -0.3400
 3438TIP3    H131949   5.105   5.484   0.501  0.1901  0.3803 -0.3480
 3438TIP3    H231950   5.155   5.518   0.362  0.1804  0.5206 -0.3172
 3439TIP3   OH231951   1.363   0.506   1.076  0.3433 -0.1872 -0.2197
 3439TIP3    H131952   1.449   0.477   1.046 -0.8104 -1.2432 -2.7824
 3439TIP3    H231953   1.362   0.600   1.059  0.4602 -0.4335 -1.6932
 3440TIP3   OH231954   2.342   3.414   8.185  0.1532 -0.0932  0.1258
 3440TIP3    H131955   2.267   3.467   8.209 -0.6907 -1.5459  0.8494
 3440TIP3    H231956   2.413   3.477   8.171 -0.3015  1.1175  2.7507
 3441TIP3   OH231957   1.267   5.980   8.072 -0.5756 -0.8247 -0.2524
 3441TIP3    H131958   1.294   5.948   7.987  0.2883 -0.1762 -0.2365
 3441TIP3    H231959   1.250   6.074   8.059  0.0335 -0.6128  0.3797
 3442TIP3   OH231960   6.650   4.016   6.906 -0.7747 -0.2330  0.3668
 3442TIP3    H131961   6.608   4.091   6.947 -0.7181  1.2383 -2.0473
 3442TIP3    H231962   6.741   4.043   6.893 -0.1989 -1.5777  1.3520
 3443TIP3   OH231963   6.880   6.617   7.243 -0.4872  0.2754 -0.1684
 3443TIP3    H131964   6.849   6.623   7.333  1.9684 -1.2188  0.8908
 3443TIP3    H231965   6.864   6.525   7.219  1.7388 -0.2013 -0.0272
 3444TIP3   OH231966   2.814   1.383   8.556 -0.2842 -0.0486 -0.5407
 3444TIP3    H131967   2.731   1.430   8.559  0.3669  1.1123  1.1875
 3444TIP3    H231968   2.877   1.444   8.595  1.0906 -1.4515 -0.4860
 3445TIP3   OH231969   5.073   4.484   0.822 -0.0006 -0.0199  0.3006
 3445TIP3    H131970   5.166   4.475   0.843 -0.1771  0.2899  1.2813
 3445TIP3    H231971   5.035   4.398   0.842 -0.0017 -0.0129  0.3286
 3446TIP3   OH231972   6.888   4.269   8.316 -0.1632 -0.2873 -0.1569
 3446TIP3    H131973   6.854   4.257   8.404 -1.7092 -1.7399 -0.8896
 3446TIP3    H231974   6.983   4.253   8.324  0.1765  2.0436  1.6133
 3447TIP3   OH231975   1.106   5.084   1.428  0.3159  0.3976 -0.1782
 3447TIP3    H131976   1.136   5.000   1.464 -2.2811 -0.7107 -0.4111
 3447TIP3    H231977   1.060   5.126   1.501 -0.4389  0.5452 -0.7361
 3448TIP3   OH231978   4.275   4.360   6.695 -0.1897 -0.3008  0.2283
 3448TIP3    H131979   4.271   4.451   6.723 -0.5707 -0.6489  1.3383
 3448TIP3    H231980   4.204   4.351   6.632  0.4414  0.3913 -0.6103
 3449TIP3   OH231981   1.605   6.154   1.195  0.3795  0.0712 -0.0108
 3449TIP3    H131982   1.675   6.199   1.242  0.5848 -0.8758  0.6062
 3449TIP3    H231983   1.609   6.189   1.106  0.9883  0.7456  0.2767
 3450TIP3   OH231984   4.012   4.004   6.788 -0.8836 -0.1666  0.0331
 3450TIP3    H131985   4.039   4.025   6.698 -0.4918 -0.2870  0.1194
 3450TIP3    H231986   4.058   4.068   6.842 -2.6052  1.1533  0.0109
 3451TIP3   OH231987   1.330   2.031   7.677  0.0098  0.6657  0.6317
 3451TIP3    H131988   1.335   2.039   7.773 -1.2976  0.6647  0.7191
 3451TIP3    H231989   1.305   2.118   7.647 -1.5073  0.2049  0.4767
 3452TIP3   OH231990   6.792   3.940   0.058  0.1599  0.3491 -0.3254
 3452TIP3    H131991   6.727   3.918   0.124  0.7823 -0.7820 -0.0609
 3452TIP3    H231992   6.746   3.929  -0.026  0.3681 -1.8485 -0.1986
 3453TIP3   OH231993   0.245   3.837   1.113 -0.2623 -0.0728 -0.0160
 3453TIP3    H131994   0.270   3.880   1.195 -0.9545  1.1828 -0.4472
 3453TIP3    H231995   0.231   3.745   1.138 -2.1392  0.6065  1.6443
 3454TIP3   OH231996   3.370   5.337   2.030  0.0428 -0.2408  0.0183
 3454TIP3    H131997   3.299   5.341   1.966  0.4994  0.3410 -0.4667
 3454TIP3    H231998   3.426   5.412   2.008 -0.1643  0.3998  1.5523
 3455TIP3   OH231999   0.137   2.236   7.786 -0.4330  0.2130  0.0464
 3455TIP3    H132000   0.074   2.232   7.714  2.1361  1.2088 -2.4538
 3455TIP3    H232001   0.197   2.307   7.762  0.8901  0.2394  2.9511
 3456TIP3   OH232002   1.902   5.297   6.855  0.2784 -0.1167  0.1600
 3456TIP3    H132003   1.985   5.291   6.903  0.7688 -1.3863 -0.7793
 3456TIP3    H232004   1.912   5.234   6.783 -0.8338  0.9500 -0.9789
 3457TIP3   OH232005   4.988   5.091   1.826  0.4371 -0.5671 -0.0548
 3457TIP3    H132006   5.060   5.040   1.788  0.3641 -0.3525 -0.4916
 3457TIP3    H232007   4.939   5.028   1.879  1.2214 -0.6051  0.6294
 3458TIP3   OH232008   0.296   4.173   2.186  0.0455  0.1864 -0.3263
 3458TIP3    H132009   0.366   4.137   2.133  0.3744  0.2389  0.0658
 3458TIP3    H232010   0.337   4.244   2.235 -0.6090  1.1546 -1.1439
 3459TIP3   OH232011   0.096   0.197   8.473  0.3973 -0.7550 -0.0475
 3459TIP3    H132012   0.127   0.116   8.514  1.2205 -0.5287 -0.2185
 3459TIP3    H232013   0.104   0.181   8.379  0.0909 -0.6528 -0.0931
 3460TIP3   OH232014   2.273   6.400   6.451  0.4008 -0.4511  0.0074
 3460TIP3    H132015   2.215   6.384   6.524 -0.8234  1.2959 -0.5258
 3460TIP3    H232016   2.320   6.317   6.439 -0.0078 -1.0529  2.1527
 3461TIP3   OH232017   1.035   5.579   0.738  0.1351  0.5148 -0.0028
 3461TIP3    H132018   1.073   5.606   0.655  0.6610  2.6458  0.8550
 3461TIP3    H232019   0.961   5.638   0.752 -0.1399 -0.0112  0.8939
 3462TIP3   OH232020   4.715   5.883   0.113  0.6941  0.0807 -0.3324
 3462TIP3    H132021   4.785   5.881   0.177 -2.0049  3.0613  3.1212
 3462TIP3    H232022   4.721   5.970   0.073 -0.4457  0.0368 -0.6396
 3463TIP3   OH232023   4.244   4.009   1.026  0.4355 -0.0220  0.2411
 3463TIP3    H132024   4.266   3.988   0.936  0.9864 -1.6607  0.7144
 3463TIP3    H232025   4.329   4.013   1.071  0.3731  2.9260  0.3327
 3464TIP3   OH232026   2.223   6.574   0.701  0.3729 -1.0502 -0.2271
 3464TIP3    H132027   2.234   6.664   0.671 -1.0192 -0.9244 -0.3931
 3464TIP3    H232028   2.227   6.580   0.796 -1.4205 -0.5387 -0.1523
 3465TIP3   OH232029   4.774   2.814   1.323  0.2610 -0.0973  0.1971
 3465TIP3    H132030   4.816   2.732   1.297  0.6019  0.3704 -0.8008
 3465TIP3    H232031   4.842   2.860   1.373 -0.5451 -1.1968  2.4732
 3466TIP3   OH232032   5.541   2.830   1.722 -0.6353 -0.2043  0.3065
 3466TIP3    H132033   5.590   2.762   1.677 -3.8602 -2.0421 -0.6601
 3466TIP3    H232034   5.450   2.804   1.715 -1.9637  3.5995  1.0016
 3467TIP3   OH232035   0.174   0.465   8.189  0.1541 -0.0342  0.3376
 3467TIP3    H132036   0.108   0.527   8.220  1.5362  0.6521  2.1171
 3467TIP3    H232037   0.231   0.517   8.132  1.2409  0.3726  1.7308
 3468TIP3   OH232038   4.097   5.834   8.349  0.8535  0.0937  0.4285
 3468TIP3    H132039   4.109   5.787   8.266  1.5475  0.5037  0.2879
 3468TIP3    H232040   4.110   5.767   8.417 -0.9969 -0.5387  0.2190
 3469TIP3   OH232041   5.916   5.825   8.425 -0.2998  0.2499 -0.3507
 3469TIP3    H132042   5.864   5.884   8.370 -0.4013  0.7051  0.2191
 3469TIP3    H232043   5.968   5.884   8.481 -0.1980 -0.1980  0.0306
 3470TIP3   OH232044   3.328   6.335   6.978  0.2770 -0.5466 -0.1477
 3470TIP3    H132045   3.397   6.350   6.913 -1.3977  0.9647 -1.6995
 3470TIP3    H232046   3.295   6.247   6.958  0.5134 -0.5321 -0.6235
 3471TIP3   OH232047   4.540   2.496   6.753  0.4461  0.2434 -0.3246
 3471TIP3    H132048   4.628   2.523   6.728  0.1260 -0.6225 -2.5392
 3471TIP3    H232049   4.517   2.425   6.693 -2.1010  1.0005 -0.3800
 3472TIP3   OH232050   2.960   5.821   0.543  0.7213  0.1830  0.5434
 3472TIP3    H132051   2.953   5.856   0.454 -2.1971  2.0895  1.3714
 3472TIP3    H232052   2.877   5.776   0.558  1.5273 -0.8947  2.0131
 3473TIP3   OH232053   1.360   5.437   7.486 -0.5996  0.4044 -0.2434
 3473TIP3    H132054   1.447   5.467   7.511 -1.4696  1.1439  2.1334
 3473TIP3    H232055   1.322   5.400   7.566 -3.2334  2.0404 -0.5982
 3474TIP3   OH232056   4.597   2.934   7.936  0.1328  1.2260  0.1178
 3474TIP3    H132057   4.576   2.961   7.847  0.9756  0.1185 -0.4324
 3474TIP3    H232058   4.629   3.013   7.979  0.0092  1.6947 -0.6503
 3475TIP3   OH232059   6.299   3.606   1.166  0.3910 -0.4280  0.5969
 3475TIP3    H132060   6.390   3.592   1.192  0.4713  1.1270  1.2971
 3475TIP3    H232061   6.264   3.518   1.154  1.9940 -1.0625  0.2480
 3476TIP3   OH232062   3.694   0.073   7.387  0.6800  0.1253  0.1474
 3476TIP3    H132063   3.674   0.164   7.410 -1.7323  0.1336 -1.6581
 3476TIP3    H232064   3.710   0.074   7.293 -0.7386 -1.4750 -0.1700
 3477TIP3   OH232065   5.293   0.601   8.605  0.5499  0.2933  0.0724
 3477TIP3    H132066   5.352   0.652   8.661 -2.2178  0.1119  3.5028
 3477TIP3    H232067   5.235   0.666   8.565  0.4201  0.2052  0.1164
 3478TIP3   OH232068   2.893   2.141   0.828 -0.2097  0.1301 -0.6381
 3478TIP3    H132069   2.976   2.130   0.782  0.4843  1.5594  0.2148
 3478TIP3    H232070   2.913   2.121   0.920 -0.7782  0.5667 -0.4094
 3479TIP3   OH232071   5.829   4.033   1.286  0.2505 -0.2872  0.0456
 3479TIP3    H132072   5.904   4.003   1.234  0.4835 -0.1529  0.3000
 3479TIP3    H232073   5.867   4.097   1.347 -0.0718 -0.2198  0.1747
 3480TIP3   OH232074   0.518   3.426   6.483  0.0203 -0.0632  0.8158
 3480TIP3    H132075   0.436   3.459   6.446 -0.4840  0.1925  2.0806
 3480TIP3    H232076   0.548   3.360   6.422 -1.7097 -0.9490  0.8572
 3481TIP3   OH232077   4.380   6.725   8.307 -0.8036 -0.1416  1.0433
 3481TIP3    H132078   4.468   6.743   8.272 -1.4213  1.4239  0.2190
 3481TIP3    H232079   4.320   6.751   8.237 -1.9425 -1.9101  1.2948
 3482TIP3   OH232080   5.064   3.676   0.653 -0.3071  0.4241 -0.0269
 3482TIP3    H132081   4.994   3.726   0.611  0.0929  1.5855  0.6446
 3482TIP3    H232082   5.141   3.690   0.597 -0.4926 -0.5060 -0.5339
 3483TIP3   OH232083   1.309   3.990   6.510  0.1938 -0.0482 -0.0062
 3483TIP3    H132084   1.217   4.005   6.491  0.4777 -0.6777 -2.1901
 3483TIP3    H232085   1.340   3.937   6.436  3.0607  2.8308 -1.0874
 3484TIP3   OH232086   0.187   3.823   8.442 -0.1097  0.3921 -0.2995
 3484TIP3    H132087   0.189   3.878   8.364  2.1510  0.7437 -0.0681
 3484TIP3    H232088   0.179   3.885   8.515 -2.5187  0.0512 -0.1994
 3485TIP3   OH232089   2.130   2.392   7.021 -0.7190  0.2862 -0.3791
 3485TIP3    H132090   2.059   2.362   6.964 -1.2938  1.4624 -0.3197
 3485TIP3    H232091   2.126   2.487   7.015 -0.6574  0.4308  1.4761
 3486TIP3   OH232092   0.087   5.083   1.755 -0.8174  0.5626 -0.0370
 3486TIP3    H132093   0.147   5.039   1.814  0.0571 -0.4260 -1.5769
 3486TIP3    H232094   0.124   5.171   1.744 -1.0705  0.7993  0.9803
 3487TIP3   OH232095   3.553   4.193   7.668 -0.3278 -0.4534  0.3383
 3487TIP3    H132096   3.513   4.246   7.736 -2.7421 -0.2991 -1.1082
 3487TIP3    H232097   3.596   4.257   7.610  1.0074 -0.5257  1.2012
 3488TIP3   OH232098   4.952   2.409   1.021  0.0163  0.2770  0.3990
 3488TIP3    H132099   4.945   2.499   0.989  1.0189  1.0185  2.1405
 3488TIP3    H232100   5.045   2.396   1.036 -0.2128 -0.7623  0.9712
 3489TIP3   OH232101   0.725   0.705   1.088 -0.2085  0.4768 -0.1639
 3489TIP3    H132102   0.807   0.753   1.082 -1.1099  2.2379  0.7231
 3489TIP3    H232103   0.670   0.745   1.019 -0.8312  0.4428  0.3066
 3490TIP3   OH232104   0.737   4.226   1.423 -0.0734 -0.1535 -0.6826
 3490TIP3    H132105   0.654   4.266   1.398  0.6955  1.0652 -1.3414
 3490TIP3    H232106   0.722   4.194   1.512  0.4529  5.5309  1.8954
 3491TIP3   OH232107   6.585   6.380   0.024  0.4655  0.1981  0.1250
 3491TIP3    H132108   6.504   6.364  -0.025  1.3000  3.1496 -2.5199
 3491TIP3    H232109   6.557   6.424   0.104 -0.6389 -0.8397  0.3387
 3492TIP3   OH232110   5.419   5.059   7.472 -0.6279 -0.4413  0.4601
 3492TIP3    H132111   5.342   5.079   7.524 -1.3411 -1.6799 -0.0701
 3492TIP3    H232112   5.443   5.143   7.431 -0.4404  0.3979  2.1998
 3493TIP3   OH232113   4.916   0.258   8.124 -0.1336  0.6623  0.7693
 3493TIP3    H132114   4.854   0.190   8.152 -1.3612  1.5677  0.3295
 3493TIP3    H232115   4.999   0.233   8.164 -0.4062 -1.4129  0.1507
 3494TIP3   OH232116   3.393   6.767   6.472 -0.1466  0.0662 -0.0835
 3494TIP3    H132117   3.385   6.675   6.493 -1.2131 -0.0778 -1.0369
 3494TIP3    H232118   3.303   6.797   6.457  0.3274  0.7321 -1.8646
 3495TIP3   OH232119   3.371   6.813   7.710 -0.1340  0.1791 -0.3706
 3495TIP3    H132120   3.426   6.885   7.740 -0.1342  0.3388 -0.7467
 3495TIP3    H232121   3.384   6.811   7.615 -2.7195  1.8618 -0.8712
 3496TIP3   OH232122   1.571   3.980   7.922 -0.4187 -0.1980  0.3206
 3496TIP3    H132123   1.577   3.896   7.967  1.4868 -0.1213  0.2808
 3496TIP3    H232124   1.539   3.959   7.835  0.3316 -0.9292  0.2173
 3497TIP3   OH232125   6.033   3.882   0.766  0.0980  0.1476  0.1402
 3497TIP3    H132126   6.097   3.826   0.810 -0.9601  0.1298  1.7518
 3497TIP3    H232127   6.086   3.949   0.723  1.3110 -1.2384 -0.6375
 3498TIP3   OH232128   1.852   2.997   6.728  0.2638 -0.3826  0.3340
 3498TIP3    H132129   1.932   2.957   6.763  1.6435  1.5283 -0.4709
 3498TIP3    H232130   1.883   3.072   6.677 -1.9924 -0.2742 -0.9804
 3499TIP3   OH232131   4.880   0.385   6.905 -0.1531  0.6558 -0.2457
 3499TIP3    H132132   4.858   0.354   6.993 -1.0934  1.8201 -0.0506
 3499TIP3    H232133   4.826   0.463   6.893 -0.3899  0.2581 -2.0363
 3500TIP3   OH232134   0.711   0.457   7.890  0.2556  0.2127 -0.2349
 3500TIP3    H132135   0.716   0.422   7.801  1.8807  0.1914 -0.1719
 3500TIP3    H232136   0.660   0.538   7.882 -1.0246 -0.6289 -0.8814
 3501TIP3   OH232137   1.629   2.888   1.884  0.5651 -0.1265 -0.5819
 3501TIP3    H132138   1.595   2.823   1.946 -4.1274  1.0158 -1.5182
 3501TIP3    H232139   1.638   2.839   1.802 -0.0830 -0.2612 -0.5834
 3502TIP3   OH232140   6.220   1.218   7.950 -0.0284 -0.1674  0.2599
 3502TIP3    H132141   6.186   1.254   7.868  0.1140  0.4380  0.4608
 3502TIP3    H232142   6.254   1.132   7.926  0.7007  0.3016 -0.4704
 3503TIP3   OH232143   2.241   0.320   7.911  0.9409  0.5998  0.1510
 3503TIP3    H132144   2.245   0.225   7.901 -1.6164  0.6207 -2.0247
 3503TIP3    H232145   2.212   0.333   8.002  0.3399 -0.7470  0.1743
 3504TIP3   OH232146   5.813   1.957   6.328 -0.1490  0.4592  0.8603
 3504TIP3    H132147   5.755   1.924   6.396 -2.1590  0.6829 -0.6541
 3504TIP3    H232148   5.772   2.039   6.299  0.6258  0.3603 -0.6349
 3505TIP3   OH232149   6.666   1.606   2.223 -0.1860  0.5749 -0.1729
 3505TIP3    H132150   6.761   1.611   2.236 -0.3501 -0.2804  1.7684
 3505TIP3    H232151   6.653   1.534   2.161  0.4487  1.0073 -0.8125
 3506TIP3   OH232152   5.693   5.004   7.608  0.1489  0.0107 -0.5043
 3506TIP3    H132153   5.598   5.001   7.617 -0.0359  2.3263 -0.9476
 3506TIP3    H232154   5.710   4.970   7.520 -0.1921 -1.0786 -0.1560
 3507TIP3   OH232155   0.819   1.347   0.290  0.0644  0.2262  0.1132
 3507TIP3    H132156   0.813   1.289   0.367  0.9704 -0.0816 -0.0356
 3507TIP3    H232157   0.739   1.329   0.240 -0.3509  0.1509  0.7858
 3508TIP3   OH232158   6.576   3.468   1.150  0.0926 -0.5517 -0.4233
 3508TIP3    H132159   6.662   3.490   1.114  0.2221 -0.2541  0.0611
 3508TIP3    H232160   6.546   3.394   1.098 -0.2321  0.5825 -1.9005
 3509TIP3   OH232161   1.203   6.592   7.012 -0.0696  0.3900  0.2060
 3509TIP3    H132162   1.141   6.639   6.956  0.4851  0.4261 -0.3890
 3509TIP3    H232163   1.166   6.504   7.020  0.8848 -0.2867 -2.0024
 3510TIP3   OH232164   3.174   2.448   2.366  0.1065 -0.0137  0.1399
 3510TIP3    H132165   3.087   2.422   2.395 -0.1994 -0.1229 -0.8308
 3510TIP3    H232166   3.234   2.399   2.421 -0.4052  1.2547  1.9196
 3511TIP3   OH232167   4.524   2.358   7.374  0.2052 -0.6281  0.7755
 3511TIP3    H132168   4.567   2.316   7.448  1.2635  0.4794  0.8071
 3511TIP3    H232169   4.454   2.410   7.413 -0.0417 -1.0343  0.8783
 3512TIP3   OH232170   2.649   3.337   0.533  0.5562 -0.3157  0.6804
 3512TIP3    H132171   2.571   3.293   0.501  0.7908 -0.1824 -0.0873
 3512TIP3    H232172   2.720   3.304   0.478  0.8558  0.4348  0.6009
 3513TIP3   OH232173   0.839   4.323   2.255 -0.2895  0.3362 -0.0998
 3513TIP3    H132174   0.842   4.304   2.161 -0.1551 -1.2749  0.1943
 3513TIP3    H232175   0.760   4.279   2.286  1.1686 -1.6527  0.9974
 3514TIP3   OH232176   5.548   1.690   8.671 -0.5961 -0.4109 -0.0107
 3514TIP3    H132177   5.492   1.680   8.594  0.9810 -1.1132 -1.1192
 3514TIP3    H232178   5.618   1.748   8.642 -0.7094  0.4462  1.3475
 3515TIP3   OH232179   0.493   4.368   2.278  0.0793  0.0634  0.5378
 3515TIP3    H132180   0.428   4.415   2.226  0.5673  0.2128  0.0438
 3515TIP3    H232181   0.545   4.437   2.320  0.5232 -0.0346  0.1602
 3516TIP3   OH232182   5.551   2.014   0.793 -0.6145 -0.0773 -0.3191
 3516TIP3    H132183   5.532   2.098   0.833  0.8013  0.6750 -1.1684
 3516TIP3    H232184   5.629   1.982   0.839  0.4837  0.3761 -1.8097
 3517TIP3   OH232185   6.676   1.758   1.195  0.8307 -0.2771  0.1703
 3517TIP3    H132186   6.624   1.835   1.172 -0.7693 -1.4379 -0.2301
 3517TIP3    H232187   6.692   1.714   1.111 -1.1711 -2.1327  0.6750
 3518TIP3   OH232188   4.122   2.022   7.519  0.4768 -0.5017  0.3584
 3518TIP3    H132189   4.060   1.954   7.544  1.1693 -0.6850  1.6377
 3518TIP3    H232190   4.207   1.988   7.547  0.9031  0.6106  0.4420
 3519TIP3   OH232191   3.829   2.224   1.223 -0.2160  0.1699 -0.4858
 3519TIP3    H132192   3.792   2.149   1.177 -0.0868 -0.6405  0.6833
 3519TIP3    H232193   3.796   2.300   1.175 -0.8873 -0.6111 -1.3015
 3520TIP3   OH232194   0.016   5.964   1.449 -0.1632 -0.4559 -0.9627
 3520TIP3    H132195  -0.024   6.044   1.482 -1.4559 -1.4746  0.0107
 3520TIP3    H232196   0.108   5.972   1.474 -0.1958  0.8615 -1.1834
 3521TIP3   OH232197   5.048   5.896   2.202 -0.5563  0.2114  0.6773
 3521TIP3    H132198   5.096   5.853   2.131 -1.0865 -1.5003  1.3140
 3521TIP3    H232199   5.082   5.986   2.203  1.0204 -0.3336 -0.3146
 3522TIP3   OH232200   5.961   4.215   7.060 -0.1566 -0.3370 -0.6612
 3522TIP3    H132201   6.027   4.146   7.055  0.8889  0.6469 -0.8604
 3522TIP3    H232202   6.011   4.297   7.066 -1.2609  0.2815  2.8881
 3523TIP3   OH232203   6.013   3.772   7.301 -0.1747 -0.0759 -0.4446
 3523TIP3    H132204   5.952   3.706   7.334 -0.6697  0.6649  0.1475
 3523TIP3    H232205   6.022   3.835   7.372  0.6540  0.2610 -0.8293
 3524TIP3   OH232206   6.040   0.696   7.045  0.0961 -0.0365 -0.0368
 3524TIP3    H132207   6.108   0.639   7.080  0.3222  0.0929 -0.2672
 3524TIP3    H232208   6.003   0.648   6.972 -1.1383 -0.8001  1.0425
 3525TIP3   OH232209   2.114   6.286   1.281  0.4968  0.6734  0.0813
 3525TIP3    H132210   2.174   6.213   1.293 -0.5948 -0.2134  0.3733
 3525TIP3    H232211   2.155   6.359   1.326  1.5361  0.2046 -0.0743
 3526TIP3   OH232212   5.240   3.753   6.691  0.0561  0.0605  0.0157
 3526TIP3    H132213   5.216   3.661   6.688  0.6447 -0.0798 -0.9041
 3526TIP3    H232214   5.202   3.791   6.612 -1.0017  0.8327  0.8650
 3527TIP3   OH232215   2.241   3.090   1.186 -0.3572  0.1235 -0.1038
 3527TIP3    H132216   2.303   3.081   1.259  0.9363 -0.6965 -1.2435
 3527TIP3    H232217   2.155   3.072   1.225  0.1215  1.0989  1.4865
 3528TIP3   OH232218   1.568   4.982   0.896  0.4617 -0.4336  0.2264
 3528TIP3    H132219   1.484   4.987   0.851 -0.8281 -0.2846  2.5262
 3528TIP3    H232220   1.547   4.988   0.989  3.0987  0.5527  0.8629
 3529TIP3   OH232221   6.014   4.256   8.134  0.0415  0.1737 -0.3884
 3529TIP3    H132222   5.933   4.236   8.087 -0.2210  0.3598 -0.0227
 3529TIP3    H232223   6.075   4.188   8.106  0.1867  0.8332 -1.7257
 3530TIP3   OH232224   1.086   5.370   8.544 -0.0318  0.0134 -0.2295
 3530TIP3    H132225   1.168   5.411   8.516 -0.6418  1.3592 -0.1522
 3530TIP3    H232226   1.019   5.435   8.522 -0.8544 -0.1566  1.6572
 3531TIP3   OH232227   6.826   3.376   1.955  0.4731  1.1059  0.2160
 3531TIP3    H132228   6.910   3.396   1.996 -0.2110  0.4875  2.0611
 3531TIP3    H232229   6.770   3.350   2.028 -0.7960 -0.3040 -1.1823
 3532TIP3   OH232230   3.784   1.785   1.615  0.6998  0.3605  0.4412
 3532TIP3    H132231   3.875   1.778   1.585  0.3638 -0.2412 -0.4781
 3532TIP3    H232232   3.778   1.873   1.652  1.8880  0.0902  1.3200
 3533TIP3   OH232233   5.688   2.443   0.827  0.3429 -0.4621 -0.1352
 3533TIP3    H132234   5.688   2.373   0.762 -0.5867 -0.3692 -0.2524
 3533TIP3    H232235   5.772   2.435   0.872 -0.5124 -2.9201  1.2081
 3534TIP3   OH232236   4.085   6.752   7.828  0.0615  0.1408 -0.5209
 3534TIP3    H132237   4.001   6.785   7.858 -1.2513 -2.4483 -1.0922
 3534TIP3    H232238   4.080   6.758   7.732  0.4316 -0.2446 -0.5649
 3535TIP3   OH232239   5.359   5.501   1.560 -0.0909  0.2299 -0.1963
 3535TIP3    H132240   5.278   5.533   1.600  0.8848  1.3702  0.9117
 3535TIP3    H232241   5.356   5.406   1.574 -0.8420  0.3486  0.5541
 3536TIP3   OH232242   4.426   1.500   6.831 -0.2136  0.3704 -0.5317
 3536TIP3    H132243   4.482   1.533   6.760  1.5324 -0.2466  0.4882
 3536TIP3    H232244   4.420   1.406   6.815 -2.3264  0.6160 -1.4997
 3537TIP3   OH232245   5.540   2.369   0.405  0.4757  0.2516  0.1454
 3537TIP3    H132246   5.517   2.351   0.314 -0.9854 -1.7270  0.8237
 3537TIP3    H232247   5.636   2.363   0.407  0.5543  0.7333 -1.3234
 3538TIP3   OH232248   3.093   4.541   8.665  0.3029  0.8676 -0.7773
 3538TIP3    H132249   3.181   4.576   8.680  0.8692 -0.5095 -0.7140
 3538TIP3    H232250   3.092   4.519   8.572  0.4677 -0.2323 -0.5330
 3539TIP3   OH232251   0.480   6.309   8.271 -0.2307  0.2675 -0.4937
 3539TIP3    H132252   0.546   6.239   8.265 -0.1380  0.0524  2.0272
 3539TIP3    H232253   0.484   6.337   8.362 -2.8916  1.0106 -0.5445
 3540TIP3   OH232254   6.801   6.738   1.055  0.1653  0.0229 -0.5639
 3540TIP3    H132255   6.781   6.649   1.083 -1.7365  0.6727  0.3315
 3540TIP3    H232256   6.890   6.754   1.086  0.3971 -1.4269 -0.4339
 3541TIP3   OH232257   0.302   1.788   2.125  0.3359  0.1430 -0.3482
 3541TIP3    H132258   0.374   1.817   2.180  0.0050 -0.6589  0.5504
 3541TIP3    H232259   0.223   1.819   2.170  0.0331 -1.0524 -0.0028
 3542TIP3   OH232260   4.806   5.187   6.044 -0.6492 -0.2424  0.5924
 3542TIP3    H132261   4.901   5.190   6.031 -0.7397  1.3152  0.1171
 3542TIP3    H232262   4.783   5.274   6.078 -2.0139 -0.2878 -0.1286
 3543TIP3   OH232263   6.050   6.049   0.163  0.2411 -0.3888 -0.7715
 3543TIP3    H132264   6.081   6.005   0.242  0.5908  2.5394  0.8819
 3543TIP3    H232265   5.955   6.053   0.174  0.3371  0.4984 -0.1892
 3544TIP3   OH232266   6.473   4.584   1.574  0.1700  0.4101 -0.1323
 3544TIP3    H132267   6.417   4.612   1.646  0.6881  0.8127  0.1182
 3544TIP3    H232268   6.444   4.636   1.499 -0.6430 -0.2999 -0.3264
 3545TIP3   OH232269   1.521   1.036   6.856  0.6594 -0.1918  0.0805
 3545TIP3    H132270   1.439   0.987   6.846  0.2182  0.4065  0.6486
 3545TIP3    H232271   1.493   1.128   6.857  1.1964 -0.0215  1.5019
 3546TIP3   OH232272   2.090   0.901   1.783 -0.2446 -0.1656 -0.8815
 3546TIP3    H132273   2.005   0.942   1.765 -1.3302 -1.0879  1.7122
 3546TIP3    H232274   2.127   0.951   1.855 -0.4081 -2.0519  0.5916
 3547TIP3   OH232275   5.719   2.875   8.433  0.4637  0.0410  0.8264
 3547TIP3    H132276   5.793   2.866   8.493 -0.7992 -0.4569  2.3851
 3547TIP3    H232277   5.644   2.842   8.483 -0.9124  1.0641 -0.4867
 3548TIP3   OH232278   1.459   0.080   8.665 -0.5100 -0.6673  0.3543
 3548TIP3    H132279   1.416   0.141   8.724  0.8050  1.6059 -0.8973
 3548TIP3    H232280   1.403   0.079   8.587 -0.4911 -1.0118  0.3431
 3549TIP3   OH232281   1.620   2.932   0.576 -0.3816 -0.9344  0.5436
 3549TIP3    H132282   1.581   2.977   0.650 -0.3174 -1.0983  0.6768
 3549TIP3    H232283   1.709   2.911   0.604  1.1007  2.5467 -0.9725
 3550TIP3   OH232284   5.300   0.120   0.849 -0.0646  0.1209 -0.3545
 3550TIP3    H132285   5.318   0.214   0.851 -1.1934  0.3792 -1.3611
 3550TIP3    H232286   5.221   0.110   0.902  1.8771 -0.7763  2.6391
 3551TIP3   OH232287   6.366   6.303   8.559 -0.4167 -0.2503  0.4857
 3551TIP3    H132288   6.413   6.266   8.485  0.4525 -0.4342  1.1192
 3551TIP3    H232289   6.296   6.356   8.519  1.3772  1.4763 -0.5194
 3552TIP3   OH232290   0.827   1.590   6.784  0.6743  0.1345 -0.1903
 3552TIP3    H132291   0.907   1.607   6.834  1.6471  0.1197 -1.6723
 3552TIP3    H232292   0.858   1.571   6.695 -0.9099 -1.1889 -0.4990
 3553TIP3   OH232293   0.258   2.318   0.542 -0.2332 -0.6387  0.3401
 3553TIP3    H132294   0.254   2.229   0.577  3.0630 -0.8502  0.4952
 3553TIP3    H232295   0.311   2.366   0.605 -0.0080  0.8267 -0.9221
 3554TIP3   OH232296   1.938   0.301   8.133  0.0484 -0.1697  0.0711
 3554TIP3    H132297   1.915   0.261   8.049 -3.5132  1.2108  0.1987
 3554TIP3    H232298   2.011   0.359   8.113 -1.6441  1.2539 -2.5042
 3555TIP3   OH232299   3.220   4.095   1.689 -0.2324  0.4216  0.1371
 3555TIP3    H132300   3.162   4.042   1.744 -1.4859 -0.6140 -2.0817
 3555TIP3    H232301   3.173   4.178   1.678 -1.1411 -0.2469 -1.2749
 3556TIP3   OH232302   1.082   5.115   0.789  0.3340  0.0063 -0.1623
 3556TIP3    H132303   1.013   5.149   0.846 -0.5401 -2.3977  0.3525
 3556TIP3    H232304   1.043   5.039   0.747  2.2969 -0.7249 -0.7851
 3557TIP3   OH232305   4.951   1.292   6.881 -0.1872 -0.0820 -0.0971
 3557TIP3    H132306   5.012   1.247   6.821  0.0616  1.1737 -0.8154
 3557TIP3    H232307   4.928   1.225   6.945  0.5273 -1.1108 -0.8706
 3558TIP3   OH232308   5.787   3.599   7.293 -0.6781 -0.0808 -0.0034
 3558TIP3    H132309   5.710   3.546   7.270  0.1749 -0.2982 -2.6615
 3558TIP3    H232310   5.758   3.690   7.279 -0.8199 -0.0798  0.2783
 3559TIP3   OH232311   4.262   4.646   8.009 -0.4924  0.0100 -0.3386
 3559TIP3    H132312   4.329   4.676   8.070 -1.1254  1.8349 -0.4809
 3559TIP3    H232313   4.225   4.568   8.051 -0.6750  1.0149  1.4594
 3560TIP3   OH232314   4.483   5.363   1.125 -0.1947  0.4541 -0.3509
 3560TIP3    H132315   4.468   5.310   1.047 -1.8101  1.9025 -1.0919
 3560TIP3    H232316   4.565   5.331   1.161  0.4460 -0.4366 -2.4954
 3561TIP3   OH232317   3.708   4.242   1.595 -0.2869  0.5435 -0.0156
 3561TIP3    H132318   3.780   4.198   1.549 -1.1830 -0.9723 -0.0186
 3561TIP3    H232319   3.733   4.240   1.687 -0.8526 -1.1017  0.1356
 3562TIP3   OH232320   4.757   5.457   8.116 -0.3092 -0.0388 -0.2297
 3562TIP3    H132321   4.719   5.501   8.191 -0.6854 -0.5733 -0.0964
 3562TIP3    H232322   4.691   5.464   8.047  0.4384  1.3222 -0.8471
 3563TIP3   OH232323   5.378   6.512   0.129 -0.0759  0.1913  0.9239
 3563TIP3    H132324   5.372   6.571   0.054  0.3028  0.8074  1.3716
 3563TIP3    H232325   5.289   6.479   0.141 -0.5763  1.6637  1.4551
 3564TIP3   OH232326   3.224   2.766   1.496  0.0930 -0.4366  0.3383
 3564TIP3    H132327   3.208   2.800   1.584  0.7295  0.5534  0.0783
 3564TIP3    H232328   3.164   2.814   1.440  1.3624  0.6691 -0.1065
 3565TIP3   OH232329   0.506   6.373   1.381 -0.3227  0.1166  0.2142
 3565TIP3    H132330   0.500   6.441   1.314  1.1042  0.9096  0.8571
 3565TIP3    H232331   0.598   6.373   1.408 -0.1887 -2.3359 -0.0295
 3566TIP3   OH232332   6.551   5.319   0.756  0.0619 -0.2306  0.0248
 3566TIP3    H132333   6.578   5.344   0.667  1.8656 -0.4203  0.4963
 3566TIP3    H232334   6.500   5.239   0.743  0.7523 -0.5561 -0.8122
 3567TIP3   OH232335   4.116   3.857   7.135  0.7653  0.3678 -0.2968
 3567TIP3    H132336   4.175   3.874   7.208 -1.2320  1.9766  1.0889
 3567TIP3    H232337   4.055   3.791   7.169 -0.8584  1.9283  0.0168
 3568TIP3   OH232338   4.771   6.399   1.400 -0.2646  0.7821 -0.1611
 3568TIP3    H132339   4.721   6.318   1.413  1.5218 -0.2817  0.3934
 3568TIP3    H232340   4.862   6.374   1.415  0.4677  2.6520 -1.1356
 3569TIP3   OH232341   3.830   1.415   7.900  0.2254 -0.0383  0.1693
 3569TIP3    H132342   3.880   1.496   7.911 -0.0508  0.1037  0.4137
 3569TIP3    H232343   3.892   1.345   7.920  0.3258  0.1356  0.4764
 3570TIP3   OH232344   0.608   2.851   1.604  0.2916  0.0183  0.6688
 3570TIP3    H132345   0.638   2.771   1.561 -3.1910  0.5282 -3.3200
 3570TIP3    H232346   0.527   2.826   1.647 -0.3187  1.1562  0.2158
 3571TIP3   OH232347   1.637   0.917   6.597  0.3733 -0.3576 -0.2040
 3571TIP3    H132348   1.641   0.927   6.692  0.9607 -0.9403 -0.1681
 3571TIP3    H232349   1.543   0.923   6.576  0.2119 -0.5993  0.4481
 3572TIP3   OH232350   4.158   5.781   8.065  0.2735 -0.3322  0.2563
 3572TIP3    H132351   4.189   5.775   7.975 -0.9553  2.1712 -0.4089
 3572TIP3    H232352   4.063   5.785   8.058 -0.0139 -2.4659  1.8751
 3573TIP3   OH232353   3.975   2.225   6.069  0.0542  0.2093 -0.4968
 3573TIP3    H132354   3.953   2.258   6.156 -0.1315 -0.5622 -0.2445
 3573TIP3    H232355   4.022   2.297   6.027 -0.4017  0.8156  0.0112
 3574TIP3   OH232356   5.698   6.397   7.656  0.0964 -0.6075 -0.0720
 3574TIP3    H132357   5.615   6.351   7.671 -0.4442 -0.5117 -2.4579
 3574TIP3    H232358   5.759   6.328   7.629 -0.2489 -0.2255 -1.9531
 3575TIP3   OH232359   6.848   2.974   2.007  0.0186  0.5199  0.8635
 3575TIP3    H132360   6.921   3.024   1.968 -0.2474  1.9683  2.1353
 3575TIP3    H232361   6.824   3.024   2.085 -0.8125 -1.2121  1.7601
 3576TIP3   OH232362   1.706   2.444   7.361  0.1945 -0.0793  0.3632
 3576TIP3    H132363   1.691   2.365   7.411  0.4610  0.9802  2.2012
 3576TIP3    H232364   1.800   2.459   7.368  0.0585  0.7224  0.5626
 3577TIP3   OH232365   0.013   6.098   6.643  0.0867 -0.0863 -0.3090
 3577TIP3    H132366   0.032   6.177   6.593 -0.1746 -0.1201 -0.4678
 3577TIP3    H232367   0.098   6.055   6.654 -0.1996 -2.0304 -3.9884
 3578TIP3   OH232368   0.597   1.665   0.781 -0.2347  0.0673  0.5689
 3578TIP3    H132369   0.650   1.651   0.859 -0.1852  1.6762  0.8656
 3578TIP3    H232370   0.540   1.739   0.803 -0.3907  0.3995 -0.8293
 3579TIP3   OH232371   1.507   6.110   8.260 -0.1975 -0.4513  0.1148
 3579TIP3    H132372   1.561   6.043   8.302 -1.8814 -1.2847  1.0923
 3579TIP3    H232373   1.445   6.060   8.206 -0.1397  0.4537 -0.8253
 3580TIP3   OH232374   4.441   3.410   1.095  0.1019 -0.0605 -0.2412
 3580TIP3    H132375   4.349   3.431   1.082 -0.1014 -1.0989 -0.5663
 3580TIP3    H232376   4.456   3.423   1.188 -0.9433 -1.9587  0.2344
 3581TIP3   OH232377   2.800   2.421   0.472 -0.2483 -0.0347  0.0789
 3581TIP3    H132378   2.798   2.516   0.460 -0.9631 -0.1444 -0.8688
 3581TIP3    H232379   2.890   2.401   0.497  0.4051  0.7092 -1.5340
 3582TIP3   OH232380   5.158   4.971   7.553  0.3961  0.3855  0.1634
 3582TIP3    H132381   5.206   4.902   7.508 -1.2988 -0.7564  0.0232
 3582TIP3    H232382   5.090   4.925   7.602  1.0524  1.7196  2.5030
 3583TIP3   OH232383   2.597   4.522   1.236  0.3914  0.4137 -0.5329
 3583TIP3    H132384   2.584   4.521   1.141  2.9087 -2.2757 -1.0138
 3583TIP3    H232385   2.658   4.595   1.251  0.1765  0.6961 -1.0222
 3584TIP3   OH232386   0.581   2.558   7.177  0.0913  0.3252  0.7187
 3584TIP3    H132387   0.584   2.613   7.099  0.1721  1.5869  1.5836
 3584TIP3    H232388   0.657   2.586   7.228  0.3677 -0.8948  0.9945
 3585TIP3   OH232389   3.478   6.503   0.651 -0.0095 -0.6793  0.1070
 3585TIP3    H132390   3.400   6.456   0.682 -1.5041  0.6037 -1.4525
 3585TIP3    H232391   3.497   6.465   0.566 -0.3881  0.5508 -0.5535
 3586TIP3   OH232392   3.398   5.163   2.248 -0.0916  0.0441  0.5304
 3586TIP3    H132393   3.373   5.200   2.163 -0.7046 -1.2109  0.1551
 3586TIP3    H232394   3.481   5.207   2.268  1.0706 -0.9914 -1.6315
 3587TIP3   OH232395   4.692   3.083   1.299 -0.0048  0.2725  0.2629
 3587TIP3    H132396   4.687   2.988   1.304 -1.8280  0.1826 -1.7542
 3587TIP3    H232397   4.682   3.102   1.206 -1.5430  2.5103  0.8254
 3588TIP3   OH232398   0.723   5.956   1.660 -0.1568 -0.0564  0.2523
 3588TIP3    H132399   0.731   5.972   1.566 -1.9163 -0.5664 -0.0324
 3588TIP3    H232400   0.719   5.860   1.667  0.0934 -0.0261  0.8718
 3589TIP3   OH232401   6.894   4.694   7.503 -0.3632  0.1433 -0.0381
 3589TIP3    H132402   6.820   4.749   7.526 -0.6510 -0.1418 -0.2705
 3589TIP3    H232403   6.855   4.614   7.466  0.0216 -0.6275  1.1659
 3590TIP3   OH232404   4.405   5.259   6.984 -0.0972 -0.2195 -0.1897
 3590TIP3    H132405   4.414   5.260   7.079 -1.0502  0.4016 -0.0908
 3590TIP3    H232406   4.465   5.328   6.954 -0.4777  0.2211  0.0412
 3591TIP3   OH232407   4.098   3.310   8.536  0.0567  0.2682 -0.5388
 3591TIP3    H132408   4.133   3.331   8.450  0.1281 -1.0293 -0.8516
 3591TIP3    H232409   4.014   3.268   8.517 -0.5517  1.1736  0.0945
 3592TIP3   OH232410   0.643   0.335   2.058  0.3794 -0.3100 -0.2147
 3592TIP3    H132411   0.558   0.375   2.039  1.1950  1.2047 -0.8117
 3592TIP3    H232412   0.705   0.408   2.055  1.2769 -0.6882  3.6449
 3593TIP3   OH232413   4.368   1.126   6.548 -0.9944 -0.2004  0.1834
 3593TIP3    H132414   4.321   1.043   6.548  0.4632 -1.1283 -2.2425
 3593TIP3    H232415   4.367   1.155   6.457  0.9391  0.9989  0.4724
 3594TIP3   OH232416   2.413   5.158   1.378 -0.8080 -0.0543  0.0822
 3594TIP3    H132417   2.364   5.087   1.418  0.0818 -0.7135  0.0243
 3594TIP3    H232418   2.502   5.148   1.413 -0.6926  1.0884  0.1566
 3595TIP3   OH232419   6.735   1.496   8.273 -0.5319 -0.0433 -0.0895
 3595TIP3    H132420   6.672   1.459   8.335 -1.3822 -1.6246 -1.8053
 3595TIP3    H232421   6.821   1.472   8.308 -0.8501  1.3261  1.7814
 3596TIP3   OH232422   4.707   5.671   7.301  0.4147  0.2211 -0.0414
 3596TIP3    H132423   4.669   5.721   7.229  0.0528  1.7896  1.1819
 3596TIP3    H232424   4.789   5.716   7.322  2.1244 -2.0264 -1.4212
 3597TIP3   OH232425   5.959   4.887   2.168  0.2202 -0.4274  0.2541
 3597TIP3    H132426   6.004   4.807   2.139  2.6491  0.3795  1.5589
 3597TIP3    H232427   6.009   4.958   2.130 -1.5101  0.5532 -0.3203
 3598TIP3   OH232428   5.861   2.706   8.219 -0.2350  0.0721  0.1900
 3598TIP3    H132429   5.819   2.751   8.293  0.2689  0.4288  0.2669
 3598TIP3    H232430   5.947   2.747   8.213  0.1395 -0.7130  0.0923
 3599TIP3   OH232431   5.734   3.017   7.693  0.0100 -0.1850 -0.5674
 3599TIP3    H132432   5.807   3.016   7.755 -0.6721 -0.3994  0.2398
 3599TIP3    H232433   5.702   2.927   7.692  0.4294 -0.3387 -1.7389
 3600TIP3   OH232434   2.564   1.412   0.516 -0.3206  0.0861 -0.2538
 3600TIP3    H132435   2.629   1.391   0.449  0.2299  1.4246 -0.1719
 3600TIP3    H232436   2.484   1.368   0.486  0.5799 -1.5130 -0.3932
 3601TIP3   OH232437   0.410   5.651   7.984  0.7238 -0.7567  0.3120
 3601TIP3    H132438   0.469   5.663   7.909  3.3167 -1.7990  2.0607
 3601TIP3    H232439   0.432   5.565   8.019 -2.3279 -1.4860  0.7633
 3602TIP3   OH232440   2.724   6.057   0.368  0.5554 -0.2499 -0.3183
 3602TIP3    H132441   2.745   6.138   0.414 -0.5703 -1.2959  2.2840
 3602TIP3    H232442   2.808   6.011   0.359  1.0701  0.8178 -1.0571
 3603TIP3   OH232443   2.326   4.957   0.090  0.3846 -0.0604 -0.7707
 3603TIP3    H132444   2.333   4.974   0.184  0.8825  0.2883 -0.8652
 3603TIP3    H232445   2.233   4.938   0.076  0.4653 -1.0688 -0.0551
 3604TIP3   OH232446   4.336   1.348   1.504  0.1635 -0.1960  0.0533
 3604TIP3    H132447   4.431   1.349   1.495  0.1797 -0.0525  0.2434
 3604TIP3    H232448   4.320   1.377   1.594 -0.0529 -0.3851  0.0780
 3605TIP3   OH232449   1.602   1.963   8.406 -0.0195  0.8472 -0.1657
 3605TIP3    H132450   1.639   2.047   8.381  2.5264 -0.4695 -1.2334
 3605TIP3    H232451   1.612   1.908   8.328 -1.4126 -0.5285  0.5538
 3606TIP3   OH232452   6.365   3.888   6.943 -0.2997  0.4099  1.3755
 3606TIP3    H132453   6.388   3.875   6.851 -1.5805  2.4200  0.6994
 3606TIP3    H232454   6.432   3.948   6.976 -0.0120 -0.0782  1.7020
 3607TIP3   OH232455   5.572   0.875   8.002  0.5708  0.2685  0.1851
 3607TIP3    H132456   5.518   0.928   7.944  2.2426  0.9919 -0.7797
 3607TIP3    H232457   5.662   0.894   7.975  1.2907 -1.7513  0.9524
 3608TIP3   OH232458   5.426   5.650   0.651  0.2015  0.2038  0.0478
 3608TIP3    H132459   5.409   5.665   0.744  0.0347  0.4921 -0.0291
 3608TIP3    H232460   5.521   5.637   0.645  0.2824  0.7361  0.1820
 3609TIP3   OH232461   5.705   1.968   7.959  0.2192 -0.6472  0.1699
 3609TIP3    H132462   5.764   1.893   7.945  1.1498 -0.0467  0.7772
 3609TIP3    H232463   5.646   1.939   8.028 -1.1685 -1.7785 -1.4023
 3610TIP3   OH232464   4.623   4.868   1.000  0.0689  1.2458 -0.1772
 3610TIP3    H132465   4.696   4.903   0.949  0.6441 -1.1287 -1.1135
 3610TIP3    H232466   4.663   4.838   1.081  0.3427 -0.6772 -0.9644
 3611TIP3   OH232467   6.721   0.882   0.978 -0.0829  0.1051  0.1627
 3611TIP3    H132468   6.804   0.902   0.934  0.6761  2.7053  2.4916
 3611TIP3    H232469   6.743   0.809   1.036  0.4042  0.3657  0.3131
 3612TIP3   OH232470   6.578   2.102   7.583  0.8049 -0.0495  0.4241
 3612TIP3    H132471   6.491   2.138   7.600  0.6962  0.1722 -0.5830
 3612TIP3    H232472   6.563   2.008   7.573  0.4037  0.1646 -1.3812
 3613TIP3   OH232473   5.751   5.148   1.250 -0.0536 -0.3818  0.0316
 3613TIP3    H132474   5.735   5.057   1.276  0.0064 -1.0383 -2.0589
 3613TIP3    H232475   5.840   5.166   1.280 -0.8251 -0.2102  2.4335
 3614TIP3   OH232476   1.557   2.166   6.627 -0.4758  0.5441  0.4061
 3614TIP3    H132477   1.484   2.109   6.653 -0.7086  1.5776  2.1523
 3614TIP3    H232478   1.632   2.107   6.621 -1.0595 -0.2256  0.4768
 3615TIP3   OH232479   3.779   0.601   2.197  0.4070  0.1371 -0.0074
 3615TIP3    H132480   3.772   0.695   2.209  0.3875  0.2684 -1.0025
 3615TIP3    H232481   3.711   0.564   2.254  0.8292  0.6773  0.8660
 3616TIP3   OH232482   2.363   3.980   8.014 -0.3296 -0.0075  0.2066
 3616TIP3    H132483   2.440   3.983   8.070  0.7986 -0.2636 -1.2528
 3616TIP3    H232484   2.324   4.067   8.021  0.6629  0.4408  0.2008
 3617TIP3   OH232485   0.764   0.046   6.862  0.2451  0.2271 -0.4151
 3617TIP3    H132486   0.778   0.004   6.778  1.3854  0.0910 -0.1708
 3617TIP3    H232487   0.846   0.089   6.882 -0.0851  0.4622  0.5170
 3618TIP3   OH232488   6.784   6.032   1.162  0.1138 -0.3694  0.2230
 3618TIP3    H132489   6.859   6.065   1.112  0.0101 -0.4476  0.0120
 3618TIP3    H232490   6.822   5.975   1.229  0.4429  1.5600  1.7587
 3619TIP3   OH232491   5.747   5.605   6.508  0.2202  0.4798  0.5044
 3619TIP3    H132492   5.781   5.650   6.586  0.2952  1.1256  0.1123
 3619TIP3    H232493   5.767   5.665   6.436 -0.7154  0.3382  0.1135
 3620TIP3   OH232494   5.898   5.234   8.171  0.3112  0.1955  0.2041
 3620TIP3    H132495   5.956   5.175   8.123  2.2229  0.5511  1.9427
 3620TIP3    H232496   5.822   5.245   8.114  1.4491 -1.1877 -1.6808
 3621TIP3   OH232497   2.695   2.362   1.268 -0.0147 -0.5570  0.7827
 3621TIP3    H132498   2.725   2.413   1.343 -1.9972  1.0582  0.5535
 3621TIP3    H232499   2.740   2.401   1.193 -1.3710  0.8179  0.6345
 3622TIP3   OH232500   1.613   4.520   7.108 -0.2661  0.1638 -0.1305
 3622TIP3    H132501   1.611   4.425   7.120  0.1844  0.1985  0.2503
 3622TIP3    H232502   1.568   4.534   7.025 -1.1785 -0.3001  0.2707
 3623TIP3   OH232503   6.294   5.726   7.819  0.2218  0.6409 -0.0941
 3623TIP3    H132504   6.362   5.676   7.773  2.3229  3.2471 -0.0880
 3623TIP3    H232505   6.229   5.745   7.751 -0.0566 -1.0837 -0.3452
 3624TIP3   OH232506   0.259   4.216   1.918  0.5149  0.1553  0.0089
 3624TIP3    H132507   0.229   4.285   1.976  0.9548 -1.1404  1.8786
 3624TIP3    H232508   0.181   4.164   1.899  0.4413  0.3606 -0.2525
 3625TIP3   OH232509   1.916   5.984   8.349 -0.2934  0.6892  0.3582
 3625TIP3    H132510   1.875   6.061   8.311  1.7293  2.3416  1.3159
 3625TIP3    H232511   1.883   5.980   8.438  0.1866  0.9405  0.5537
 3626TIP3   OH232512   5.318   4.414   8.658 -0.7633 -0.6156 -0.2101
 3626TIP3    H132513   5.229   4.402   8.625 -0.8154 -2.7301  0.4856
 3626TIP3    H232514   5.309   4.405   8.753  0.1295 -0.3540 -0.0923
 3627TIP3   OH232515   2.898   4.677   0.172  0.4559  0.2188 -0.0201
 3627TIP3    H132516   2.896   4.750   0.111  0.9075  0.8726  0.7176
 3627TIP3    H232517   2.962   4.616   0.136  1.4353  1.0459  0.2664
 3628TIP3   OH232518   3.446   0.073   2.179  0.3773 -0.0285 -0.7911
 3628TIP3    H132519   3.484   0.074   2.091  2.1230  2.0511 -0.1037
 3628TIP3    H232520   3.506   0.019   2.230 -0.3883 -0.8608 -0.7495
 3629TIP3   OH232521   0.773   5.662   0.006 -0.9994 -0.2603  0.1716
 3629TIP3    H132522   0.741   5.572  -0.003 -2.1758 -0.2185  2.9799
 3629TIP3    H232523   0.867   5.654   0.016 -1.2503 -1.3692  1.9572
 3630TIP3   OH232524   3.781   4.033   7.220  0.6292  0.3630 -0.2784
 3630TIP3    H132525   3.782   3.952   7.169  0.6778  0.1056  0.1216
 3630TIP3    H232526   3.815   4.100   7.160  0.9873  0.0055 -0.4838
 3631TIP3   OH232527   5.452   0.766   7.614 -0.1441  0.2178 -0.0971
 3631TIP3    H132528   5.415   0.708   7.680 -0.8279 -1.6443 -2.0143
 3631TIP3    H232529   5.415   0.852   7.634  1.3543  0.2481  3.1880
 3632TIP3   OH232530   2.150   6.744   0.360 -0.1649  0.7973  0.0435
 3632TIP3    H132531   2.093   6.668   0.373 -1.0218  1.4754  0.3591
 3632TIP3    H232532   2.239   6.708   0.367 -0.5481 -0.0605  0.9020
 3633TIP3   OH232533   6.583   0.802   8.120  0.4429 -0.1412 -0.1506
 3633TIP3    H132534   6.588   0.797   8.216 -0.2354  0.6384 -0.0639
 3633TIP3    H232535   6.606   0.893   8.100 -0.2501 -0.0742 -0.6664
 3634TIP3   OH232536   3.506   1.091   1.621 -0.2554 -0.2150 -0.0791
 3634TIP3    H132537   3.510   1.166   1.680 -0.9475  0.5094 -0.9210
 3634TIP3    H232538   3.573   1.031   1.654  1.3367  1.3855 -0.2420
 3635TIP3   OH232539   3.103   2.117   7.711 -0.0601  0.7723 -0.1357
 3635TIP3    H132540   3.081   2.204   7.742  0.6488  1.0096 -0.3034
 3635TIP3    H232541   3.187   2.127   7.666  0.7381 -0.2619  1.0637
 3636TIP3   OH232542   0.980   4.853   7.278 -0.1081 -0.1712 -0.3187
 3636TIP3    H132543   0.984   4.928   7.218 -0.2134 -0.3462 -0.5460
 3636TIP3    H232544   0.914   4.879   7.343  2.4467  1.5250  1.8274
 3637TIP3   OH232545   5.170   4.871   1.343  0.3694  0.1384  0.2626
 3637TIP3    H132546   5.129   4.856   1.428  0.3432  0.8965  0.3921
 3637TIP3    H232547   5.185   4.966   1.340  0.4379  0.1099 -0.5448
 3638TIP3   OH232548   3.706   1.729   8.596  0.3889 -0.2721  0.0598
 3638TIP3    H132549   3.669   1.724   8.684 -0.2454  0.5981 -0.1416
 3638TIP3    H232550   3.659   1.662   8.547 -0.4296  0.3377 -0.0117
 3639TIP3   OH232551   5.195   4.477   7.682 -0.4873 -0.3368  0.6905
 3639TIP3    H132552   5.148   4.399   7.712  0.8782 -1.1905  0.7162
 3639TIP3    H232553   5.276   4.443   7.643  0.8449  1.1221  2.0191
 3640TIP3   OH232554   4.238   1.347   7.965 -0.1170 -0.2332 -0.2286
 3640TIP3    H132555   4.275   1.259   7.972  2.3843  0.6487 -1.4722
 3640TIP3    H232556   4.222   1.360   7.872 -3.0688 -0.2789  0.1631
 3641TIP3   OH232557   0.479   2.144   2.403  0.2880  0.8350 -0.5298
 3641TIP3    H132558   0.508   2.235   2.413 -0.5114  1.0166  0.3042
 3641TIP3    H232559   0.524   2.097   2.473  0.6622  0.5970 -0.9303
 3642TIP3   OH232560   0.448   4.846   8.110  0.3238  0.4045 -0.5537
 3642TIP3    H132561   0.385   4.914   8.135  0.6794  0.8319 -0.8072
 3642TIP3    H232562   0.533   4.889   8.116  0.5538 -0.0299 -0.6855
 3643TIP3   OH232563   2.638   5.617   6.387 -0.4144 -0.4316 -0.0347
 3643TIP3    H132564   2.604   5.660   6.309  0.1838 -1.4815 -0.9138
 3643TIP3    H232565   2.654   5.526   6.359 -0.2228 -0.8395  1.3210
 3644TIP3   OH232566   4.442   0.372   0.714 -0.5645 -0.3113  0.2096
 3644TIP3    H132567   4.509   0.425   0.670  0.1837 -2.3384 -1.2723
 3644TIP3    H232568   4.492   0.308   0.765 -1.4332  0.0414  1.5588
 3645TIP3   OH232569   4.220   4.636   0.276  0.2975 -0.1703 -0.6334
 3645TIP3    H132570   4.217   4.620   0.370  0.7053 -2.5634 -0.9495
 3645TIP3    H232571   4.312   4.625   0.252  0.8590  3.7672 -0.9193
 3646TIP3   OH232572   4.021   4.825   7.033 -0.5715 -0.2272  0.1793
 3646TIP3    H132573   3.965   4.819   7.110 -1.8398  0.6822 -0.6278
 3646TIP3    H232574   3.975   4.886   6.974  0.7374 -0.2895 -0.9692
 3647TIP3   OH232575   0.365   0.413   6.584 -0.2532 -0.4024  0.3405
 3647TIP3    H132576   0.382   0.335   6.530  0.0579 -1.2900  1.6525
 3647TIP3    H232577   0.345   0.377   6.671  0.8649  1.0009  1.2248
 3648TIP3   OH232578   0.834   2.027   8.051 -0.8806 -0.3416 -0.5307
 3648TIP3    H132579   0.817   2.025   8.145  0.3884 -0.2479 -0.2826
 3648TIP3    H232580   0.812   1.939   8.021  1.5458 -1.3687  0.4198
 3649TIP3   OH232581   0.579   1.939   8.591 -0.1353 -0.1657  0.1938
 3649TIP3    H132582   0.548   1.854   8.622 -0.1357 -0.1703  0.1811
 3649TIP3    H232583   0.609   1.984   8.670 -1.9187  0.5874  0.4900
 3650TIP3   OH232584   3.647   0.385   2.119 -0.2388  0.4286 -0.6719
 3650TIP3    H132585   3.680   0.352   2.035  2.0251  1.3958 -0.2365
 3650TIP3    H232586   3.684   0.473   2.126 -1.7687  1.0147  0.6132
 3651TIP3   OH232587   1.595   3.494   7.744 -0.4597 -0.2624  0.4710
 3651TIP3    H132588   1.677   3.461   7.780 -0.1388  0.3980  0.3747
 3651TIP3    H232589   1.531   3.426   7.762  0.0620 -0.6817  0.7617
 3652TIP3   OH232590   6.753   5.217   7.919 -0.0713 -0.2489 -0.0991
 3652TIP3    H132591   6.658   5.227   7.924 -0.1512 -1.1474  0.3993
 3652TIP3    H232592   6.780   5.201   8.009  0.5300 -0.1705 -0.2631
 3653TIP3   OH232593   3.265   1.273   1.224 -0.3065  0.2495 -0.5056
 3653TIP3    H132594   3.324   1.198   1.218 -0.9638 -0.8423  3.7271
 3653TIP3    H232595   3.186   1.245   1.177  0.5252 -0.4617 -1.5233
 3654TIP3   OH232596   0.831   3.287   0.081  0.7457 -0.2769 -0.4701
 3654TIP3    H132597   0.805   3.371   0.045  0.1450 -0.1953  0.1417
 3654TIP3    H232598   0.778   3.277   0.160  0.9431 -1.1416 -0.4366
 3655TIP3   OH232599   5.044   0.565   7.850 -0.5116 -0.0171 -0.3838
 3655TIP3    H132600   4.957   0.579   7.814 -0.3607  0.8939 -0.4159
 3655TIP3    H232601   5.030   0.507   7.925 -1.3605  1.4482  0.6216
 3656TIP3   OH232602   6.353   1.836   2.481  0.0824 -0.0114 -0.3022
 3656TIP3    H132603   6.379   1.748   2.454  0.3921  0.1240 -0.4541
 3656TIP3    H232604   6.269   1.824   2.526  0.4484 -0.4703  0.2705
 3657TIP3   OH232605   3.387   3.049   8.636  0.0707 -0.1035 -0.0631
 3657TIP3    H132606   3.307   3.015   8.596  0.3292 -1.0013  0.1552
 3657TIP3    H232607   3.407   3.128   8.587 -1.5434  0.7266  0.5705
 3658TIP3   OH232608   1.647   6.203   8.003 -0.1073 -0.2813 -0.4930
 3658TIP3    H132609   1.613   6.286   7.970  0.4990 -0.0506 -0.5526
 3658TIP3    H232610   1.570   6.156   8.035 -0.8746 -0.8545 -2.9091
 3659TIP3   OH232611   6.394   3.478   0.254 -0.1017  0.1134 -0.2496
 3659TIP3    H132612   6.302   3.469   0.276  0.5027  0.9020  3.3585
 3659TIP3    H232613   6.433   3.394   0.278  0.0774 -0.4231 -2.3063
 3660TIP3   OH232614   3.836   1.520   1.757  0.6096 -0.1809  0.0020
 3660TIP3    H132615   3.863   1.597   1.808 -1.7294 -0.2514  1.4583
 3660TIP3    H232616   3.787   1.557   1.683  1.2151 -0.2160 -0.4247
 3661TIP3   OH232617   1.224   5.302   1.012 -0.3446 -0.7313 -0.0748
 3661TIP3    H132618   1.154   5.295   1.078 -0.8704 -1.0853 -0.6564
 3661TIP3    H232619   1.304   5.279   1.060 -0.4978  0.4715  0.8009
 3662TIP3   OH232620   0.146   2.930   7.907  0.2670 -0.0046  0.7104
 3662TIP3    H132621   0.152   2.941   8.002  1.0241 -0.1494  0.6857
 3662TIP3    H232622   0.074   2.869   7.894  0.2282 -0.0652  1.1958
 3663TIP3   OH232623   4.853   4.194   1.492 -0.7433  0.4089 -0.3196
 3663TIP3    H132624   4.759   4.177   1.483 -0.3382 -1.9748 -0.6711
 3663TIP3    H232625   4.892   4.156   1.413  0.7175 -0.6894  0.8895
 3664TIP3   OH232626   5.643   4.874   6.654 -0.3038  0.9227 -0.2276
 3664TIP3    H132627   5.702   4.835   6.590 -1.5947  1.0603 -1.5703
 3664TIP3    H232628   5.598   4.944   6.605  0.2884  2.5754  1.4782
 3665TIP3   OH232629   5.235   3.984   8.091 -0.1340  0.2682  0.5132
 3665TIP3    H132630   5.283   3.923   8.147 -0.4895  0.5620  1.1460
 3665TIP3    H232631   5.144   3.958   8.100 -0.3818  1.3595  1.3952
 3666TIP3   OH232632   1.969   1.259   8.214 -0.2461 -0.0204  0.2728
 3666TIP3    H132633   1.986   1.294   8.127  0.5202 -1.0377 -0.0099
 3666TIP3    H232634   1.912   1.324   8.256  0.4427  1.1199 -0.5132
 3667TIP3   OH232635   3.924   3.498   0.581 -0.0430  0.2073 -0.1002
 3667TIP3    H132636   3.866   3.559   0.627  0.8881 -0.9712  2.9154
 3667TIP3    H232637   3.865   3.442   0.531 -1.3768  0.3435  1.2443
 3668TIP3   OH232638   2.373   2.086   1.003 -0.0031 -0.4329 -0.5336
 3668TIP3    H132639   2.347   2.158   0.946  0.0607 -0.1331 -0.1910
 3668TIP3    H232640   2.457   2.114   1.040 -0.5871 -0.1038  0.5853
 3669TIP3   OH232641   4.951   6.529   6.732 -0.0199 -0.2690  0.4529
 3669TIP3    H132642   4.923   6.593   6.666  1.4803  1.0147  0.9882
 3669TIP3    H232643   4.870   6.499   6.772 -0.8005  0.9030 -0.1994
 3670TIP3   OH232644   5.183   4.772   0.890  0.4294 -0.8676  0.2791
 3670TIP3    H132645   5.152   4.740   0.975  1.7740 -1.1387  0.6902
 3670TIP3    H232646   5.114   4.747   0.829 -0.2279 -1.3110  1.1696
 3671TIP3   OH232647   1.185   2.499   7.528 -0.1187  0.2142 -0.0181
 3671TIP3    H132648   1.189   2.403   7.534 -3.5490 -0.1753 -1.6310
 3671TIP3    H232649   1.206   2.528   7.617  0.9655 -2.0284  0.5416
 3672TIP3   OH232650   1.132   3.245   0.147  0.0497  0.5604  0.1719
 3672TIP3    H132651   1.211   3.227   0.097 -0.7819 -0.8601 -0.7169
 3672TIP3    H232652   1.060   3.221   0.088 -1.0338  1.3725  1.1095
 3673TIP3   OH232653   0.211   6.218   1.839 -0.4479 -0.3117  0.4105
 3673TIP3    H132654   0.289   6.249   1.886  0.0403 -1.0072  0.0795
 3673TIP3    H232655   0.146   6.287   1.852  0.6243  0.9018 -0.3925
 3674TIP3   OH232656   1.900   4.808   6.436 -0.3593  0.5854  0.4807
 3674TIP3    H132657   1.880   4.716   6.453  1.4469  0.2904  1.2190
 3674TIP3    H232658   1.823   4.855   6.467 -2.2133 -0.7414 -1.7611
 3675TIP3   OH232659   3.338   6.044   8.613 -0.3962 -0.0175  0.2665
 3675TIP3    H132660   3.324   5.955   8.578  1.6111 -0.8095  1.3220
 3675TIP3    H232661   3.406   6.033   8.679 -0.0543  2.3535  0.3812
 3676TIP3   OH232662   2.592   0.408   0.751 -0.0534 -0.0446  0.2646
 3676TIP3    H132663   2.536   0.418   0.675  0.9839  0.0653 -0.5012
 3676TIP3    H232664   2.541   0.355   0.812  0.2408 -2.7999 -1.7189
 3677TIP3   OH232665   3.949   0.687   8.506 -0.1890 -0.2133  0.3801
 3677TIP3    H132666   3.995   0.770   8.518  0.3359 -0.3548 -0.5160
 3677TIP3    H232667   4.016   0.627   8.474 -0.5926 -0.9545  0.8866
 3678TIP3   OH232668   6.454   1.360   7.643  0.5417 -0.1332  0.0209
 3678TIP3    H132669   6.529   1.347   7.584  0.2379  0.5200 -0.5234
 3678TIP3    H232670   6.388   1.299   7.612  1.0345 -1.1398  0.8695
 3679TIP3   OH232671   2.946   4.548   1.500  0.6713 -0.2656  0.1766
 3679TIP3    H132672   3.020   4.607   1.516  0.4111  0.0702  0.1548
 3679TIP3    H232673   2.939   4.544   1.405  0.6208 -0.2457  0.1794
 3680TIP3   OH232674   1.074   5.731   6.763  0.4623 -0.1327  0.0034
 3680TIP3    H132675   1.119   5.809   6.795  1.0505 -0.0282 -1.0444
 3680TIP3    H232676   1.138   5.688   6.706 -0.7129 -0.0169 -1.4596
 3681TIP3   OH232677   1.624   3.071   6.869  0.0970  0.1034  0.1629
 3681TIP3    H132678   1.686   3.055   6.798  0.1867 -0.8682  0.4384
 3681TIP3    H232679   1.545   3.024   6.842  0.7663 -1.9925  1.5722
 3682TIP3   OH232680   5.242   3.381   0.924 -0.0669  0.3845  0.4772
 3682TIP3    H132681   5.223   3.288   0.941 -2.4449  0.5418 -0.8330
 3682TIP3    H232682   5.207   3.396   0.836 -1.7752  3.0377  1.4864
 3683TIP3   OH232683   2.107   0.946   1.443 -0.6344  0.2706  0.2458
 3683TIP3    H132684   2.170   1.002   1.490 -0.8180  0.0312  0.7853
 3683TIP3    H232685   2.080   0.999   1.367 -0.7083  0.8693  0.6768
 3684TIP3   OH232686   3.233   0.373   7.135  0.2861  0.1590 -0.8210
 3684TIP3    H132687   3.230   0.369   7.231  1.0666  0.7569 -0.7575
 3684TIP3    H232688   3.162   0.316   7.106  1.2935 -1.6406  0.0934
 3685TIP3   OH232689   6.355   3.242   6.973 -0.0749 -0.3365  0.1872
 3685TIP3    H132690   6.281   3.190   6.941 -0.7623  1.0623 -0.6015
 3685TIP3    H232691   6.403   3.265   6.894  0.7592 -0.5530  0.6216
 3686TIP3   OH232692   1.293   1.049   7.803  0.3579  0.0805  0.3355
 3686TIP3    H132693   1.227   1.119   7.799  0.1983 -0.0444  0.7350
 3686TIP3    H232694   1.317   1.044   7.896  0.2119 -0.5405  0.3420
 3687TIP3   OH232695   4.206   0.882   6.537 -1.0054  0.1601 -0.2438
 3687TIP3    H132696   4.294   0.860   6.506 -0.7910  1.9530 -1.0314
 3687TIP3    H232697   4.148   0.852   6.467 -0.9584 -0.3244 -0.0778
 3688TIP3   OH232698   0.168   1.920   6.932  0.4013  0.2243  0.3610
 3688TIP3    H132699   0.112   1.862   6.880 -1.8291  3.4007 -1.0925
 3688TIP3    H232700   0.174   2.001   6.880  0.9634  2.3665  3.5016
 3689TIP3   OH232701   4.779   5.929   1.468  0.3364  0.4127  0.1787
 3689TIP3    H132702   4.744   5.977   1.393 -0.4907  1.1156  1.0050
 3689TIP3    H232703   4.703   5.910   1.523  1.1068  1.2440  1.5883
 3690TIP3   OH232704   6.221   2.462   8.346 -0.0171 -0.1201 -0.3297
 3690TIP3    H132705   6.271   2.430   8.270  0.6074  2.0294 -0.8813
 3690TIP3    H232706   6.148   2.400   8.353  0.1220 -0.6182 -2.4545
 3691TIP3   OH232707   3.695   1.979   8.409 -0.4735  0.0930  0.6746
 3691TIP3    H132708   3.640   2.011   8.480  0.8041  1.4860  1.1101
 3691TIP3    H232709   3.640   1.985   8.331 -1.6408 -0.7014  1.4127
 3692TIP3   OH232710   6.767   4.503   2.033  0.4066 -0.1914  0.4335
 3692TIP3    H132711   6.798   4.593   2.024 -0.8056  0.2214  0.1850
 3692TIP3    H232712   6.846   4.452   2.050  0.9752  1.0917  1.8267
 3693TIP3   OH232713   6.493   6.162   0.352 -0.1527  0.3386  0.4845
 3693TIP3    H132714   6.465   6.071   0.366  0.1929  0.3444  1.2326
 3693TIP3    H232715   6.528   6.162   0.263  1.8818 -0.8103  1.2029
 3694TIP3   OH232716   6.175   4.573   0.435 -0.1822 -0.0591  0.1500
 3694TIP3    H132717   6.155   4.579   0.341  1.3282 -0.6512 -0.2428
 3694TIP3    H232718   6.268   4.551   0.438 -0.3149 -0.5229  1.7958
 3695TIP3   OH232719   3.247   3.609   7.708  0.5801 -0.7443  0.5061
 3695TIP3    H132720   3.268   3.521   7.676  0.8736 -0.4519 -0.1174
 3695TIP3    H232721   3.195   3.594   7.787  2.4632 -1.4837  1.6439
 3696TIP3   OH232722   0.295   1.200   0.875  0.3635 -0.0918  0.3426
 3696TIP3    H132723   0.350   1.130   0.911 -0.2945 -1.1921 -0.7502
 3696TIP3    H232724   0.228   1.214   0.942  0.4331 -0.5870  0.5199
 3697TIP3   OH232725   2.869   2.489   1.096  0.3820  0.0479 -0.6990
 3697TIP3    H132726   2.866   2.462   1.005 -0.9999 -0.2408 -0.5938
 3697TIP3    H232727   2.957   2.466   1.125  0.4105 -1.0742 -1.5989
 3698TIP3   OH232728   0.492   4.003   2.086  0.9755 -0.3205 -0.0675
 3698TIP3    H132729   0.535   3.969   2.164 -0.1793 -0.2469  0.6325
 3698TIP3    H232730   0.481   3.927   2.029  4.4335  0.1016 -1.5011
 3699TIP3   OH232731   3.238   1.701   1.034 -0.1774  0.0320 -0.0548
 3699TIP3    H132732   3.311   1.706   1.096 -0.9395 -1.6728  1.0651
 3699TIP3    H232733   3.215   1.792   1.018  1.3407  0.5743  0.5944
 3700TIP3   OH232734   5.540   4.880   0.373  0.2617 -0.1586 -0.2992
 3700TIP3    H132735   5.561   4.793   0.407  0.5043 -0.5922 -1.5179
 3700TIP3    H232736   5.590   4.886   0.291  1.7156  1.8274  0.6425
 3701TIP3   OH232737   3.964   2.081   8.373  0.2556  0.3259 -0.1966
 3701TIP3    H132738   3.870   2.065   8.374  0.1963  0.6203  0.9640
 3701TIP3    H232739   3.991   2.068   8.464  1.6836 -1.7182 -0.8543
 3702TIP3   OH232740   2.100   6.863   2.152  0.0734  0.5759 -1.0347
 3702TIP3    H132741   2.194   6.873   2.165 -0.0878 -0.9062  2.3089
 3702TIP3    H232742   2.062   6.943   2.188 -0.0198 -0.4883  1.4564
 3703TIP3   OH232743   3.605   3.645   7.176  0.7740  0.3811 -0.3261
 3703TIP3    H132744   3.647   3.559   7.171  1.6147  0.7116  0.6004
 3703TIP3    H232745   3.670   3.705   7.139  0.1915  0.6164 -0.9664
 3704TIP3   OH232746   2.310   1.318   8.313 -0.1797  0.1153  0.1217
 3704TIP3    H132747   2.396   1.279   8.300  1.2316  3.3579 -1.6364
 3704TIP3    H232748   2.264   1.304   8.230 -0.7538 -0.2441  0.4922
 3705TIP3   OH232749   5.883   5.334   7.413 -0.2280 -0.2229  0.2878
 3705TIP3    H132750   5.840   5.380   7.485 -1.3717 -0.6472 -0.1006
 3705TIP3    H232751   5.875   5.242   7.436  0.4134 -0.3165  0.1586
 3706TIP3   OH232752   1.660   2.431   0.959 -1.1066 -0.4339  0.1886
 3706TIP3    H132753   1.600   2.387   0.898 -1.7908 -0.7910  1.1022
 3706TIP3    H232754   1.655   2.523   0.935  0.1125 -0.7795 -1.5534
 3707TIP3   OH232755   3.739   2.976   1.636 -0.1912  0.1190  0.3872
 3707TIP3    H132756   3.804   3.044   1.654 -0.0675 -0.6173  3.2562
 3707TIP3    H232757   3.763   2.904   1.695 -2.2725 -1.0892 -0.1293
 3708TIP3   OH232758   4.518   2.627   6.992 -0.8008 -0.1956 -0.1901
 3708TIP3    H132759   4.527   2.546   7.043 -0.0616  0.4132  0.6696
 3708TIP3    H232760   4.525   2.599   6.901  2.9343 -0.7528  0.1216
 3709TIP3   OH232761   5.151   6.593   1.172 -0.5131  0.0387 -0.5966
 3709TIP3    H132762   5.138   6.567   1.263  0.8771 -0.2676 -0.4631
 3709TIP3    H232763   5.158   6.688   1.174  0.1071 -0.0042 -0.2781
 3710TIP3   OH232764   5.360   3.757   1.170  0.4714  0.0425  0.3575
 3710TIP3    H132765   5.384   3.753   1.263  0.7768  2.2304  0.4257
 3710TIP3    H232766   5.440   3.734   1.123  0.4630 -0.5391  0.6216
 3711TIP3   OH232767   3.534   4.293   2.358  0.1431  0.3972  0.2967
 3711TIP3    H132768   3.475   4.246   2.416 -0.4780  1.9976  1.0136
 3711TIP3    H232769   3.511   4.263   2.270 -0.2407 -0.5938  0.7275
 3712TIP3   OH232770   1.717   1.256   7.245  0.7982 -1.0018  0.1223
 3712TIP3    H132771   1.625   1.278   7.227  1.1780  1.1688  0.5133
 3712TIP3    H232772   1.736   1.184   7.185 -1.3142 -1.9395  0.4774
 3713TIP3   OH232773   1.111   1.576   8.648 -0.2950 -0.2659  0.1261
 3713TIP3    H132774   1.092   1.483   8.635  0.4759 -0.1679 -2.1621
 3713TIP3    H232775   1.029   1.612   8.683 -1.0839 -1.5532 -0.3206
 3714TIP3   OH232776   6.344   2.859   8.280 -0.6762 -0.0137  0.2983
 3714TIP3    H132777   6.327   2.808   8.359  0.6416  0.2798  0.7962
 3714TIP3    H232778   6.432   2.834   8.254 -0.7092  0.6570 -0.5081
 3715TIP3   OH232779   3.112   6.780   7.834  0.8902 -0.1047  0.1532
 3715TIP3    H132780   3.131   6.708   7.894  0.0175  1.6503  2.6435
 3715TIP3    H232781   3.186   6.779   7.772  1.9911 -1.7756  1.4185
 3716TIP3   OH232782   4.892   3.603   7.093  0.3887  0.8001 -0.2990
 3716TIP3    H132783   4.860   3.524   7.138 -0.3990  1.3409  0.1199
 3716TIP3    H232784   4.984   3.586   7.077  0.2578 -0.1561 -0.0925
 3717TIP3   OH232785   3.553   3.530   7.869  0.2969 -0.2342  0.5817
 3717TIP3    H132786   3.643   3.500   7.856  0.4330  0.8608 -1.4318
 3717TIP3    H232787   3.501   3.451   7.866  0.8468 -0.6150 -2.5275
 3718TIP3   OH232788   5.336   4.343   0.697  0.2993 -0.2233  0.1255
 3718TIP3    H132789   5.285   4.323   0.619  0.1831 -0.8200  0.3469
 3718TIP3    H232790   5.333   4.263   0.749 -0.3794  0.4650  1.1746
 3719TIP3   OH232791   5.607   0.341   8.497 -0.3446 -0.4022  0.3948
 3719TIP3    H132792   5.596   0.352   8.403  0.7567 -0.6623  0.2150
 3719TIP3    H232793   5.528   0.295   8.526  0.8214 -3.5973 -1.0487
 3720TIP3   OH232794   6.748   0.614   1.075 -0.0639  0.2573  0.1658
 3720TIP3    H132795   6.673   0.604   1.133  1.1075 -0.8876  1.5803
 3720TIP3    H232796   6.817   0.561   1.116  1.5139  1.2517 -1.0816
 3721TIP3   OH232797   1.356   1.303   7.450 -0.5086 -0.1683  0.9156
 3721TIP3    H132798   1.379   1.392   7.424 -0.3230 -0.1958  0.9812
 3721TIP3    H232799   1.400   1.292   7.535  0.4941 -0.7524  0.3354
 3722TIP3   OH232800   4.875   1.772   0.058  0.3926  0.0752  0.4428
 3722TIP3    H132801   4.814   1.698   0.061  0.8908 -0.5057 -1.9851
 3722TIP3    H232802   4.896   1.788   0.150 -0.6691 -2.0123  1.1324
 3723TIP3   OH232803   2.634   6.752   0.631  0.3217 -0.0301  0.0842
 3723TIP3    H132804   2.552   6.726   0.672  0.7899  0.3962  1.3470
 3723TIP3    H232805   2.669   6.671   0.594  0.5954 -0.7674  1.8570
 3724TIP3   OH232806   6.480   5.450   6.654  0.1833 -0.0521  0.2943
 3724TIP3    H132807   6.539   5.525   6.647 -2.0254  1.9439  1.8029
 3724TIP3    H232808   6.506   5.393   6.581  1.4585  2.5109 -1.3994
 3725TIP3   OH232809   1.135   2.082   1.264 -1.0073  0.3507 -0.0849
 3725TIP3    H132810   1.126   2.175   1.243  0.5034  0.2185 -1.5963
 3725TIP3    H232811   1.099   2.036   1.188 -0.4010 -0.2766 -0.0073
 3726TIP3   OH232812   5.415   5.979   6.946  0.6691 -0.0791  0.3506
 3726TIP3    H132813   5.387   5.889   6.929  0.7143 -0.2618  1.1961
 3726TIP3    H232814   5.478   5.972   7.018  1.7050  0.4966 -0.4832
 3727TIP3   OH232815   5.466   0.583   0.383 -0.6818 -0.5938 -0.4725
 3727TIP3    H132816   5.537   0.524   0.360 -1.9895 -2.2960 -0.2879
 3727TIP3    H232817   5.450   0.569   0.476  0.3233  1.5961  0.1048
 3728TIP3   OH232818   5.305   6.229   1.640 -0.0411 -0.1861 -0.1656
 3728TIP3    H132819   5.259   6.254   1.720  1.6191  1.1326  0.4415
 3728TIP3    H232820   5.268   6.285   1.572 -0.7311 -0.5801 -0.1253
 3729TIP3   OH232821   0.517   4.924   8.500 -0.1546 -0.7624  0.6938
 3729TIP3    H132822   0.607   4.926   8.533  0.3903 -0.4370 -0.7708
 3729TIP3    H232823   0.525   4.909   8.406 -1.6450 -0.9281  0.5591
 3730TIP3   OH232824   0.395   3.331   8.018  0.3431  0.0545  0.2557
 3730TIP3    H132825   0.447   3.258   8.051  0.6497 -1.3812 -3.0296
 3730TIP3    H232826   0.457   3.405   8.015  0.4795  0.0512  2.0267
 3731TIP3   OH232827   6.532   5.907   6.888  0.1927 -0.8227 -0.5409
 3731TIP3    H132828   6.615   5.934   6.928  0.2227 -1.5702 -0.0628
 3731TIP3    H232829   6.519   5.968   6.816 -1.6014  2.8892  2.5736
 3732TIP3   OH232830   5.099   2.784   7.361  0.0870 -0.2558  0.3264
 3732TIP3    H132831   5.193   2.791   7.348  0.1384 -2.3291 -1.0049
 3732TIP3    H232832   5.089   2.721   7.433 -0.2853 -0.5188  0.0486
 3733TIP3   OH232833   1.229   5.141   2.315 -0.2878 -0.3795  0.7591
 3733TIP3    H132834   1.188   5.059   2.345 -0.6283 -0.4830  0.0501
 3733TIP3    H232835   1.156   5.203   2.309  0.1116  0.2663  2.1948
 3734TIP3   OH232836   3.647   2.975   7.620 -0.9105  0.6864  0.3395
 3734TIP3    H132837   3.712   3.021   7.567  0.4908 -1.3070  0.2278
 3734TIP3    H232838   3.679   2.981   7.709  0.2281 -1.4185  0.1360
 3735TIP3   OH232839   3.671   4.970   7.839 -0.2133 -0.6117  0.2240
 3735TIP3    H132840   3.648   5.062   7.825  1.4196 -0.0518  0.9634
 3735TIP3    H232841   3.624   4.946   7.919  0.9180  0.2411  1.1994
 3736TIP3   OH232842   0.682   6.428   8.566 -0.5451 -0.0908  0.5396
 3736TIP3    H132843   0.588   6.441   8.555 -0.4585  0.5430  0.5050
 3736TIP3    H232844   0.714   6.513   8.596  0.1864  0.0187 -0.5315
 3737TIP3   OH232845   2.212   6.487   1.585 -0.3774 -0.3586  0.5195
 3737TIP3    H132846   2.169   6.573   1.592  0.0038 -0.0502 -0.6999
 3737TIP3    H232847   2.142   6.424   1.605 -1.4116  0.1388 -1.2689
 3738TIP3   OH232848   2.942   6.859   7.523  0.4177  0.1799 -0.2834
 3738TIP3    H132849   3.006   6.910   7.474  0.6179 -0.2831 -0.5102
 3738TIP3    H232850   2.874   6.922   7.548  0.0333  0.3119 -1.6166
 3739TIP3   OH232851   5.556   2.514   7.182 -0.5183  0.4913  0.2890
 3739TIP3    H132852   5.566   2.597   7.137  0.2021 -0.0984 -0.6746
 3739TIP3    H232853   5.466   2.516   7.216 -0.6397  1.4845 -0.0631
 3740TIP3   OH232854   6.099   4.156   7.798 -0.4259 -0.0223  0.5761
 3740TIP3    H132855   6.152   4.136   7.875 -0.8367  0.8578  1.1007
 3740TIP3    H232856   6.149   4.121   7.724  0.3529 -0.1676  1.1673
 3741TIP3   OH232857   3.844   0.397   7.663 -0.5869 -0.4876  0.1239
 3741TIP3    H132858   3.864   0.371   7.573 -0.4410  0.2601 -0.0701
 3741TIP3    H232859   3.835   0.315   7.711  1.6863 -0.8983 -0.0436
 3742TIP3   OH232860   5.054   0.978   0.746 -0.4427 -0.3157 -0.7557
 3742TIP3    H132861   5.128   1.038   0.750  0.9897 -1.7926 -2.9909
 3742TIP3    H232862   4.997   1.013   0.678 -0.6332 -0.4162 -0.6510
 3743TIP3   OH232863   5.477   4.887   7.272  0.3006 -0.3688  0.3296
 3743TIP3    H132864   5.401   4.886   7.214  0.5299 -0.6790  0.0318
 3743TIP3    H232865   5.447   4.935   7.350 -0.8809 -2.2229  1.1041
 3744TIP3   OH232866   5.722   0.031   7.790 -0.5195  0.3198  0.1802
 3744TIP3    H132867   5.797   0.008   7.846 -0.1499 -0.5942 -0.6474
 3744TIP3    H232868   5.740  -0.014   7.707 -2.4238 -0.6851  0.2531
 3745TIP3   OH232869   1.557   1.457   8.535  0.4563 -0.2476 -0.1286
 3745TIP3    H132870   1.485   1.397   8.557 -0.4889  0.4888 -1.0722
 3745TIP3    H232871   1.596   1.479   8.620 -2.3376  1.6242  0.8205
 3746TIP3   OH232872   5.927   6.884   0.388  0.2049 -0.0747  0.2407
 3746TIP3    H132873   5.961   6.890   0.478 -0.3592 -0.5595  0.4948
 3746TIP3    H232874   6.005   6.874   0.334  0.4796 -1.2843  0.8219
 3747TIP3   OH232875   3.287   0.376   1.888 -0.4460  0.0759 -0.1275
 3747TIP3    H132876   3.360   0.361   1.828  0.4913 -0.3573  1.0586
 3747TIP3    H232877   3.224   0.427   1.838  0.8858  0.8703 -1.0638
 3748TIP3   OH232878   6.734   3.626   2.290  0.0599  0.5456  0.0248
 3748TIP3    H132879   6.726   3.541   2.246 -0.1546  1.0301 -0.9115
 3748TIP3    H232880   6.657   3.632   2.346  0.7390 -0.4226  1.0972
 3749TIP3   OH232881   2.152   6.700   1.217  0.5784 -0.3311 -1.0502
 3749TIP3    H132882   2.186   6.676   1.303  0.3384 -0.6642 -1.0470
 3749TIP3    H232883   2.230   6.723   1.166  0.7975 -0.9434 -0.9991
 3750TIP3   OH232884   3.783   3.320   7.717  0.2640 -0.2409  0.1600
 3750TIP3    H132885   3.775   3.232   7.753  0.5284  0.3296  1.6718
 3750TIP3    H232886   3.717   3.324   7.648  1.2718 -2.1060 -1.0032
 3751TIP3   OH232887   0.177   6.674   7.053 -0.3869 -0.0542 -0.1245
 3751TIP3    H132888   0.112   6.655   7.120 -0.9927 -0.0521 -0.6991
 3751TIP3    H232889   0.187   6.770   7.055 -0.1820 -0.0810  0.1631
 3752TIP3   OH232890   6.471   5.265   7.937 -0.2022 -0.3466 -0.0880
 3752TIP3    H132891   6.459   5.171   7.945 -1.8077 -0.2558 -0.9989
 3752TIP3    H232892   6.386   5.303   7.960  0.6207  0.9391  0.9771
 3753TIP3   OH232893   6.544   3.704   7.094 -0.2491 -0.8393 -0.3449
 3753TIP3    H132894   6.541   3.650   7.015  1.6121 -0.5942 -0.6348
 3753TIP3    H232895   6.569   3.791   7.062 -1.6798 -0.1579  0.2911
 3754TIP3   OH232896   1.624   6.687   8.636 -0.2847  0.2195  0.1197
 3754TIP3    H132897   1.674   6.648   8.565  1.3682  0.0345  1.3391
 3754TIP3    H232898   1.629   6.623   8.708  1.5768  2.1016  1.7951
 3755TIP3   OH232899   0.849   6.420   7.309  0.3289  0.0472 -0.2268
 3755TIP3    H132900   0.834   6.358   7.237  0.6213 -0.2116 -0.0683
 3755TIP3    H232901   0.943   6.416   7.324  0.0256 -1.6677  1.7227
 3756TIP3   OH232902   4.370   2.032   1.855  0.7938 -0.6675 -0.0518
 3756TIP3    H132903   4.386   2.123   1.834  0.8687 -0.7791 -0.4870
 3756TIP3    H232904   4.455   1.997   1.880  0.7801 -0.6415  0.0322
 3757TIP3   OH232905   1.599   2.226   0.324  0.2741  1.0733  0.1750
 3757TIP3    H132906   1.604   2.301   0.384 -0.1244  1.5565 -0.3823
 3757TIP3    H232907   1.579   2.151   0.381 -0.2724  1.5566  0.6335
 3758TIP3   OH232908   1.734   0.031   0.040 -0.2048 -0.1392  0.1635
 3758TIP3    H132909   1.723  -0.064   0.045 -0.2472 -0.2042 -0.8646
 3758TIP3    H232910   1.649   0.064   0.012  0.3914 -0.0438 -1.7107
 3759TIP3   OH232911   2.293   0.689   1.797  0.1512 -0.1186 -0.7298
 3759TIP3    H132912   2.271   0.596   1.802  0.5461 -0.2428 -1.2601
 3759TIP3    H232913   2.255   0.726   1.877  0.2311 -0.7841 -0.3708
 3760TIP3   OH232914   0.649   0.319   8.145 -0.3345  0.5074  0.1578
 3760TIP3    H132915   0.637   0.230   8.114  2.6390 -0.7283  2.1495
 3760TIP3    H232916   0.654   0.372   8.066 -2.6315 -0.9305 -1.0476
 3761TIP3   OH232917   2.500   1.028   8.533  0.1528  0.2689 -0.4858
 3761TIP3    H132918   2.526   1.097   8.593 -0.5279  1.4957 -1.5591
 3761TIP3    H232919   2.429   0.982   8.578  0.3385  0.5290  0.0695
 3762TIP3   OH232920   0.974   1.125   8.370  0.5606 -0.0583 -0.1747
 3762TIP3    H132921   1.041   1.057   8.367 -0.0943 -0.8128  1.0882
 3762TIP3    H232922   0.934   1.115   8.457 -0.7660  0.7573 -0.6571
 3763TIP3   OH232923   1.348   6.257   1.289 -0.1971  0.6879  0.3866
 3763TIP3    H132924   1.436   6.223   1.274 -0.0896  1.0095  0.2852
 3763TIP3    H232925   1.295   6.180   1.307  0.4483  0.6015  2.1563
 3764TIP3   OH232926   3.233   5.141   0.296  1.1165 -0.0126 -0.0526
 3764TIP3    H132927   3.289   5.132   0.220 -1.2664 -0.5988 -1.8561
 3764TIP3    H232928   3.181   5.220   0.279 -0.0182 -0.6037  0.5374
 3765TIP3   OH232929   2.855   4.923   0.029  0.1465 -0.7034 -0.5337
 3765TIP3    H132930   2.782   4.923  -0.033 -0.1125 -0.1127 -0.2486
 3765TIP3    H232931   2.816   4.954   0.111  0.7499 -0.2122 -0.4235
 3766TIP3   OH232932   0.812   1.733   8.318 -0.0260  0.2987  0.6060
 3766TIP3    H132933   0.850   1.646   8.306 -1.0420 -0.0120 -0.4414
 3766TIP3    H232934   0.885   1.786   8.352  0.4749 -1.0535  1.7086
 3767TIP3   OH232935   5.469   0.303   6.853  0.3055  0.4524  0.6443
 3767TIP3    H132936   5.389   0.351   6.876 -0.4875  0.0639 -1.1287
 3767TIP3    H232937   5.438   0.225   6.807  1.6768 -0.4938  1.2708
 3768TIP3   OH232938   2.031   3.029   7.400  0.6923  0.1892  0.4077
 3768TIP3    H132939   2.047   3.048   7.492  0.9474  0.1948  0.3634
 3768TIP3    H232940   2.044   2.934   7.392  0.4316  0.1518  0.4251
 3769TIP3   OH232941   2.015   1.049   6.836  0.2402  1.1708  0.9953
 3769TIP3    H132942   2.046   1.000   6.760 -0.8139  2.1082 -0.0857
 3769TIP3    H232943   1.919   1.044   6.831  0.1497  0.9166  2.4981
 3770TIP3   OH232944   3.995   1.428   2.255  0.5568 -0.4940 -0.3873
 3770TIP3    H132945   3.936   1.499   2.227 -0.0623 -0.5284  0.7748
 3770TIP3    H232946   4.078   1.472   2.273  0.8764 -0.4238 -1.9009
 3771TIP3   OH232947   1.649   1.823   2.331  0.2650  0.1465 -0.2446
 3771TIP3    H132948   1.738   1.790   2.347 -0.4578 -0.7270  2.6508
 3771TIP3    H232949   1.593   1.745   2.337 -0.8872  0.9923  0.4824
 3772TIP3   OH232950   5.070   5.819   8.602  0.2141 -0.0214  0.0552
 3772TIP3    H132951   5.151   5.778   8.631  0.3565 -0.1532 -0.5167
 3772TIP3    H232952   5.003   5.752   8.614  0.2744 -0.0763  0.0824
 3773TIP3   OH232953   3.696   4.352   1.862  0.0049 -0.3620  0.2839
 3773TIP3    H132954   3.680   4.421   1.797  2.9290  0.6205  0.4497
 3773TIP3    H232955   3.716   4.400   1.943 -0.4074 -1.5093  1.0956
 3774TIP3   OH232956   1.045   0.537   7.874  0.0405 -0.2423 -0.4684
 3774TIP3    H132957   1.132   0.568   7.851 -0.0120  0.8076  0.6357
 3774TIP3    H232958   1.001   0.614   7.910 -0.0985 -1.5526  2.4128
 3775TIP3   OH232959   2.829   6.302   0.480  0.4258  0.4538 -0.1624
 3775TIP3    H132960   2.837   6.298   0.384  0.1585  0.2393 -0.1777
 3775TIP3    H232961   2.912   6.340   0.509  0.3846  0.8062 -0.5012
 3776TIP3   OH232962   5.094   4.789   1.589 -0.0251  0.3152  0.6546
 3776TIP3    H132963   5.123   4.718   1.647 -0.8215 -1.8251 -1.4223
 3776TIP3    H232964   5.009   4.760   1.556  0.7834  0.9750 -2.2457
 3777TIP3   OH232965   2.761   5.903   7.456  0.0745 -0.1925  0.2917
 3777TIP3    H132966   2.757   5.824   7.402 -0.1596 -0.6737  0.9964
 3777TIP3    H232967   2.851   5.907   7.488  0.3370  0.3475 -0.4981
 3778TIP3   OH232968   3.698   6.623   7.801 -0.5962 -0.2639  0.2780
 3778TIP3    H132969   3.625   6.563   7.814 -0.7130 -0.5352 -1.4953
 3778TIP3    H232970   3.674   6.676   7.725  0.2429  0.9243  0.7973
 3779TIP3   OH232971   0.374   1.840   8.059  0.5501 -0.3421  0.0507
 3779TIP3    H132972   0.383   1.875   7.970 -2.7834  0.3746 -0.1514
 3779TIP3    H232973   0.286   1.802   8.060  0.5403 -0.4413  2.9987
 3780TIP3   OH232974   5.078   1.454   1.726  0.2085 -0.4342 -0.1264
 3780TIP3    H132975   5.142   1.524   1.718 -0.3890  0.2288  0.6626
 3780TIP3    H232976   5.094   1.397   1.650  2.3400 -0.8255  0.5725
 3781TIP3   OH232977   2.637   2.140   1.110 -0.2991  0.0917  0.0360
 3781TIP3    H132978   2.689   2.060   1.120 -0.0848  0.1944 -0.2446
 3781TIP3    H232979   2.636   2.178   1.198  0.2035  0.1481  0.0221
 3782TIP3   OH232980   2.690   6.400   6.543 -0.0296 -0.1967  0.1860
 3782TIP3    H132981   2.687   6.307   6.521 -0.3481 -0.2174  0.3042
 3782TIP3    H232982   2.732   6.402   6.629  3.7042  0.0876 -1.4517
 3783TIP3   OH232983   5.797   2.679   7.222  0.2237  0.0464  0.0036
 3783TIP3    H132984   5.861   2.698   7.291  1.1651 -0.9715 -0.5558
 3783TIP3    H232985   5.768   2.590   7.242 -0.8128  0.3984  0.0844
 3784TIP3   OH232986   4.846   3.810   1.853 -0.0326 -0.5394 -0.1517
 3784TIP3    H132987   4.834   3.818   1.948  0.7419 -2.5802  0.1817
 3784TIP3    H232988   4.817   3.894   1.818 -2.0415 -0.3588  1.7145
 3785TIP3   OH232989   4.026   3.332   7.446 -0.2958 -0.0100  0.0950
 3785TIP3    H132990   3.975   3.400   7.401  1.4506  0.5356 -1.1576
 3785TIP3    H232991   4.094   3.308   7.383  0.2846 -1.5573  1.2694
 3786TIP3   OH232992   2.342   3.281   6.539  0.0347 -0.1019  0.5876
 3786TIP3    H132993   2.308   3.211   6.483  1.9535 -1.2501  0.7538
 3786TIP3    H232994   2.422   3.310   6.495 -0.3892  1.5946  0.8503
 3787TIP3   OH232995   3.300   1.453   0.917  0.2948  0.2160  0.0230
 3787TIP3    H132996   3.253   1.534   0.937  0.1143 -0.3302  1.9272
 3787TIP3    H232997   3.231   1.386   0.912  0.6798 -0.2498  0.9167
 3788TIP3   OH232998   4.230   0.781   2.082  0.3958  0.0419 -0.1759
 3788TIP3    H132999   4.264   0.762   2.169  1.0488  0.6015 -0.2962
 3788TIP3    H233000   4.155   0.723   2.072  0.6659 -0.4419  0.5285
 3789TIP3   OH233001   0.133   2.235   2.001 -0.2101  0.4664  0.8163
 3789TIP3    H133002   0.203   2.174   2.024  0.1408  0.5778  0.0893
 3789TIP3    H233003   0.159   2.318   2.039  0.4507  0.6918 -0.0988
 3790TIP3   OH233004   3.289   6.876   0.089  0.9157 -0.0736  0.3160
 3790TIP3    H133005   3.276   6.838   0.002  1.1084 -0.9329  0.6577
 3790TIP3    H233006   3.280   6.970   0.075 -0.6563 -0.2910 -0.3582
 3791TIP3   OH233007   5.940   3.078   7.171  0.1327  0.6874 -0.1793
 3791TIP3    H133008   5.938   3.130   7.251 -1.1930 -0.5620  0.6491
 3791TIP3    H233009   5.868   3.016   7.181 -0.7611  1.1855 -2.8360
 3792TIP3   OH233010   5.220   5.229   6.688 -0.4833  0.5061  0.5243
 3792TIP3    H133011   5.260   5.208   6.773 -2.5881  0.0105  1.4511
 3792TIP3    H233012   5.294   5.238   6.629  0.9957 -3.9368  1.3141
 3793TIP3   OH233013   6.400   0.308   0.089  0.8088  0.2722 -0.2045
 3793TIP3    H133014   6.459   0.260   0.031 -0.0850  0.4298 -1.2694
 3793TIP3    H233015   6.408   0.399   0.060 -0.8292  0.1433 -1.1701
 3794TIP3   OH233016   6.315   3.428   7.628  0.1100  0.3465 -0.1544
 3794TIP3    H133017   6.285   3.471   7.548  0.2011  1.7637  0.5476
 3794TIP3    H233018   6.362   3.496   7.676  0.3421 -0.5644  0.9634
 3795TIP3   OH233019   3.619   4.731   6.842  0.1438  0.3377 -0.1856
 3795TIP3    H133020   3.644   4.791   6.913  2.3626 -0.2142 -0.4387
 3795TIP3    H233021   3.651   4.774   6.762  0.8269 -0.6820 -0.4745
 3796TIP3   OH233022   0.950   0.898   1.662  0.0945 -0.0711 -0.0147
 3796TIP3    H133023   0.890   0.916   1.589 -0.8591  0.4687  0.8790
 3796TIP3    H233024   0.902   0.836   1.717  1.0004 -0.8389 -0.0839
 3797TIP3   OH233025   1.035   5.666   0.067  0.5518  0.1535 -0.2744
 3797TIP3    H133026   1.061   5.742   0.120 -0.5711  0.2692  0.1266
 3797TIP3    H233027   1.091   5.672  -0.011 -0.2233  2.0046 -0.7475
 3798TIP3   OH233028   5.377   1.042   1.046 -0.1506 -0.1858  0.0899
 3798TIP3    H133029   5.292   1.079   1.067 -1.2153 -2.7048  0.5325
 3798TIP3    H233030   5.424   1.039   1.129 -0.2689 -0.2845  0.1540
 3799TIP3   OH233031   6.376   1.488   6.558  0.1049 -0.2560  0.3132
 3799TIP3    H133032   6.310   1.453   6.619 -2.1147 -2.6018 -3.0941
 3799TIP3    H233033   6.327   1.547   6.502  2.0848  1.8070  0.6250
 3800TIP3   OH233034   2.420   6.184   6.445  0.4839 -0.3103 -0.0417
 3800TIP3    H133035   2.504   6.159   6.483 -0.2805 -1.8779  0.7619
 3800TIP3    H233036   2.426   6.156   6.354  1.1301  0.3847 -0.2218
 3801TIP3   OH233037   6.816   6.437   6.305 -0.2419 -0.3196  0.2254
 3801TIP3    H133038   6.870   6.511   6.278  0.3040 -0.6886  0.2924
 3801TIP3    H233039   6.870   6.389   6.367 -0.9626 -0.2423  0.9215
 3802TIP3   OH233040   2.763   0.825   8.049  0.1868 -0.3554 -0.1262
 3802TIP3    H133041   2.723   0.740   8.030  0.0127 -0.2075 -0.4382
 3802TIP3    H233042   2.851   0.805   8.079 -0.1442 -0.6922  0.6288
 3803TIP3   OH233043   6.825   4.895   7.725  0.5326  0.4219 -0.0106
 3803TIP3    H133044   6.755   4.898   7.790 -2.8472 -1.4804 -3.1975
 3803TIP3    H233045   6.883   4.826   7.756 -1.1296 -0.6436  0.8961
 3804TIP3   OH233046   4.965   1.313   0.326  0.4316  0.1741  0.0692
 3804TIP3    H133047   4.884   1.300   0.276 -0.3827 -1.0415  1.6318
 3804TIP3    H233048   4.976   1.232   0.376  3.2856 -0.1873 -0.9799
 3805TIP3   OH233049   6.043   3.017   0.048 -0.0049  0.1446 -0.0173
 3805TIP3    H133050   5.977   3.049   0.109  0.6121  0.2837  0.6010
 3805TIP3    H233051   5.996   2.959  -0.012 -1.1235  2.0321 -1.0590
 3806TIP3   OH233052   6.829   0.553   7.170  0.1664  0.0156  0.2302
 3806TIP3    H133053   6.823   0.478   7.110 -1.3343  0.9743 -0.8700
 3806TIP3    H233054   6.756   0.542   7.230 -1.4913  1.7118 -1.3404
 3807TIP3   OH233055   2.785   2.060   6.492  0.0408 -0.5881  0.0807
 3807TIP3    H133056   2.722   1.988   6.496  0.1527 -0.8770 -1.9908
 3807TIP3    H233057   2.870   2.017   6.477  0.3534 -0.0866  0.3635
 3808TIP3   OH233058   6.523   2.731   7.151  0.3459  0.3094  0.2416
 3808TIP3    H133059   6.456   2.794   7.123 -0.2360  0.2990  1.4972
 3808TIP3    H233060   6.558   2.694   7.070 -1.2122  0.2722 -0.4461
 3809TIP3   OH233061   4.655   6.351   5.927  0.1382 -0.3660  0.1083
 3809TIP3    H133062   4.594   6.279   5.934 -1.1319  0.7707  1.5098
 3809TIP3    H233063   4.707   6.346   6.008  0.5922 -0.1832 -0.1663
 3810TIP3   OH233064   2.093   4.963   7.409 -0.1706 -0.3040  0.5340
 3810TIP3    H133065   2.098   4.877   7.370 -0.1991  0.7916 -2.0598
 3810TIP3    H233066   2.023   5.008   7.363  0.4577  1.4206  1.1400
 3811TIP3   OH233067   3.206   5.588   1.485 -0.0525  0.2126 -0.2668
 3811TIP3    H133068   3.206   5.501   1.444  0.2964 -0.0458  0.2702
 3811TIP3    H233069   3.223   5.570   1.578 -2.9253  0.5793  0.4400
 3812TIP3   OH233070   1.521   1.245   1.675 -0.3584 -0.3591  0.1974
 3812TIP3    H133071   1.595   1.247   1.614 -1.6617 -0.6744 -1.4589
 3812TIP3    H233072   1.557   1.206   1.755  1.0768 -1.2556 -0.8352
 3813TIP3   OH233073   1.685   6.358   0.345 -0.3179 -0.3697 -0.2363
 3813TIP3    H133074   1.748   6.337   0.414 -0.0334  1.1771 -0.0038
 3813TIP3    H233075   1.601   6.327   0.380  0.0702 -1.1045  0.0798
 3814TIP3   OH233076   1.037   4.448   0.386 -0.0988 -0.6259 -0.1221
 3814TIP3    H133077   1.101   4.481   0.323 -1.4853 -0.2804 -1.4081
 3814TIP3    H233078   1.090   4.420   0.461  1.5214 -0.0952 -1.0069
 3815TIP3   OH233079   5.357   1.638   7.115  0.2481 -0.3399 -0.3321
 3815TIP3    H133080   5.349   1.568   7.050  0.6801 -1.5692  0.8981
 3815TIP3    H233081   5.428   1.609   7.173  1.0175  1.5210 -0.2728
 3816TIP3   OH233082   6.763   5.604   7.122  0.0069 -0.0948 -0.0932
 3816TIP3    H133083   6.818   5.537   7.079  1.1081  1.5529 -1.3763
 3816TIP3    H233084   6.675   5.585   7.091  0.2916 -0.9723 -0.4140
 3817TIP3   OH233085   3.586   0.074   7.738  0.1106  0.5648  0.4946
 3817TIP3    H133086   3.674   0.062   7.702  0.1216 -3.2261  1.3813
 3817TIP3    H233087   3.599   0.129   7.815  1.6103  0.6268  0.2212
 3818TIP3   OH233088   4.612   2.119   0.978  0.1572 -0.3246  0.0683
 3818TIP3    H133089   4.603   2.101   0.884 -1.3539 -2.6570  0.5530
 3818TIP3    H233090   4.522   2.121   1.010  0.6714 -1.5239  1.7446
 3819TIP3   OH233091   0.793   6.715   8.609 -0.3310  0.1378 -0.3558
 3819TIP3    H133092   0.810   6.783   8.674 -0.1821  0.6157 -0.8896
 3819TIP3    H233093   0.879   6.678   8.590 -0.5306 -0.9054  0.6836
 3820TIP3   OH233094   5.291   0.789   6.335 -0.1420  0.1932  0.1235
 3820TIP3    H133095   5.229   0.851   6.373  3.0099  1.9416  2.9448
 3820TIP3    H233096   5.311   0.728   6.406 -0.2531 -1.7465 -1.4211
 3821TIP3   OH233097   6.259   0.178   1.292 -0.3514 -0.0115  0.3446
 3821TIP3    H133098   6.267   0.242   1.363  0.0835  0.0940  0.2078
 3821TIP3    H233099   6.213   0.104   1.331  2.5937 -1.3233  1.7232
 3822TIP3   OH233100   2.112   2.050   0.396  0.0875 -0.2962 -0.3541
 3822TIP3    H133101   2.019   2.048   0.420  0.2085  0.8537  0.2601
 3822TIP3    H233102   2.158   2.064   0.478  0.7914 -0.5289 -0.7033
 3823TIP3   OH233103   5.304   4.262   7.219 -0.1056 -0.1030  0.1770
 3823TIP3    H133104   5.224   4.234   7.175 -0.2566 -0.6873  0.7968
 3823TIP3    H233105   5.339   4.333   7.165 -1.6604  0.9678  0.5270
 3824TIP3   OH233106   5.004   5.560   6.707 -0.1160  0.3005 -0.2606
 3824TIP3    H133107   5.001   5.498   6.634 -0.1035 -0.2034  0.1587
 3824TIP3    H233108   4.936   5.529   6.767  1.5682 -0.8399  1.1500
 3825TIP3   OH233109   3.249   1.870   7.397 -0.6567  0.2455 -0.3965
 3825TIP3    H133110   3.193   1.925   7.343  0.5807  0.7819 -1.1936
 3825TIP3    H233111   3.249   1.785   7.352 -0.2753  0.4559 -0.8059
 3826TIP3   OH233112   2.991   6.212   6.978  0.1531 -0.3714 -0.0468
 3826TIP3    H133113   2.927   6.173   6.918 -0.2362  0.1099  0.0481
 3826TIP3    H233114   3.076   6.178   6.948  0.0913  0.6594 -1.5409
 3827TIP3   OH233115   4.973   3.705   8.105 -0.4055 -0.3509  0.3458
 3827TIP3    H133116   4.933   3.638   8.161 -0.9907 -0.0981  0.2423
 3827TIP3    H233117   5.061   3.672   8.087 -0.5074 -0.8410  0.7215
 3828TIP3   OH233118   3.931   0.686   0.386 -0.2629  0.3156  0.1008
 3828TIP3    H133119   3.907   0.778   0.370 -0.5119  0.1804 -0.3167
 3828TIP3    H233120   4.025   0.689   0.404 -0.1348  0.5776 -0.5700
 3829TIP3   OH233121   1.478   6.883   1.776 -0.5977 -0.1981  0.1007
 3829TIP3    H133122   1.426   6.835   1.712 -1.7960  0.8707  0.2162
 3829TIP3    H233123   1.566   6.886   1.738 -0.9048 -0.9722 -0.7165
 3830TIP3   OH233124   6.248   0.437   0.743 -0.5592 -0.3565  0.0594
 3830TIP3    H133125   6.222   0.497   0.813  1.3060 -0.0379  0.5255
 3830TIP3    H233126   6.166   0.412   0.702 -1.4816  1.6398  0.5684
 3831TIP3   OH233127   1.154   1.778   7.294  0.5595  0.2667  0.3508
 3831TIP3    H133128   1.181   1.687   7.300  0.4561  0.1170 -1.2186
 3831TIP3    H233129   1.090   1.789   7.365 -1.5769 -1.6591 -1.1411
 3832TIP3   OH233130   5.402   1.019   0.555 -0.4320 -0.1270  0.0413
 3832TIP3    H133131   5.459   1.071   0.498 -0.1978 -0.9359 -0.4793
 3832TIP3    H233132   5.343   0.973   0.495 -0.3027 -0.8471  0.4468
 3833TIP3   OH233133   0.012   3.895   0.397  0.4226 -0.3957 -0.7278
 3833TIP3    H133134  -0.046   3.825   0.426  1.1218 -1.1394 -1.1161
 3833TIP3    H233135  -0.041   3.975   0.407 -1.3532 -1.2221 -2.8170
 3834TIP3   OH233136   2.216   0.303   2.289  0.5740  0.1891  0.1859
 3834TIP3    H133137   2.250   0.339   2.208  1.3141 -1.4119 -0.2607
 3834TIP3    H233138   2.133   0.263   2.265  0.5528  0.1577  0.3093
 3835TIP3   OH233139   5.034   3.898   8.597 -0.1616  0.3298  0.2228
 3835TIP3    H133140   5.051   3.987   8.628  0.3468  0.3337 -0.0619
 3835TIP3    H233141   4.970   3.908   8.527 -1.3447  0.3208  1.2709
 3836TIP3   OH233142   4.125   4.222   0.254 -0.0933  0.7065 -0.1925
 3836TIP3    H133143   4.199   4.162   0.265  0.0133  0.9159  0.2194
 3836TIP3    H233144   4.150   4.278   0.180 -0.0188  0.5118 -0.3159
 3837TIP3   OH233145   6.223   6.583   7.546 -0.3215 -0.0602 -0.0042
 3837TIP3    H133146   6.303   6.635   7.559 -0.0383 -0.9028  1.9284
 3837TIP3    H233147   6.238   6.537   7.463  1.4823 -0.6498  0.5974
 3838TIP3   OH233148   5.811   6.655   0.182 -0.0905  0.2506 -0.1785
 3838TIP3    H133149   5.815   6.570   0.139 -0.4176  0.3928 -0.4935
 3838TIP3    H233150   5.899   6.670   0.216 -0.0378 -0.2164 -0.1135
 3839TIP3   OH233151   0.304   0.002   7.350  0.1613 -0.2492  0.4736
 3839TIP3    H133152   0.368   0.070   7.368  2.1870 -1.6797 -0.8767
 3839TIP3    H233153   0.354  -0.079   7.349 -1.4788 -1.3548 -1.4291
 3840TIP3   OH233154   6.115   3.821   1.720  0.2549 -0.6523 -0.4802
 3840TIP3    H133155   6.113   3.742   1.666 -1.0896 -1.2751  0.4325
 3840TIP3    H233156   6.045   3.876   1.685 -0.7722 -1.1516  0.7066
 3841TIP3   OH233157   1.924   3.323   8.295  0.0662 -0.2417  0.0944
 3841TIP3    H133158   1.875   3.305   8.375  0.7262 -0.1821  0.5259
 3841TIP3    H233159   1.933   3.238   8.253  1.0167 -0.5463  0.8625
 3842TIP3   OH233160   1.176   4.123   7.734 -0.1672  0.2983 -0.1602
 3842TIP3    H133161   1.135   4.200   7.694  0.6883  1.7147  1.5369
 3842TIP3    H233162   1.113   4.094   7.800 -0.7397 -0.8601 -1.1748
 3843TIP3   OH233163   0.012   0.465   1.237 -0.0913  0.0248  0.3037
 3843TIP3    H133164  -0.027   0.518   1.307  0.5003  0.3170  0.4146
 3843TIP3    H233165   0.105   0.458   1.261 -0.0546 -0.5933 -0.0021
 3844TIP3   OH233166   0.211   6.121   0.684  0.3442 -0.1801 -0.1377
 3844TIP3    H133167   0.303   6.109   0.707  0.5698  0.4969 -0.6706
 3844TIP3    H233168   0.213   6.163   0.599 -0.4352  1.3214  0.5585
 3845TIP3   OH233169   2.580   1.050   7.709  0.7853 -0.7987  0.1274
 3845TIP3    H133170   2.669   1.062   7.742  1.2150 -1.0285 -0.9088
 3845TIP3    H233171   2.525   1.098   7.770  1.7383  0.2928  0.1581
 3846TIP3   OH233172   4.711   2.383   0.675 -0.0877 -0.0617 -0.6972
 3846TIP3    H133173   4.738   2.294   0.653  0.5613  0.2212 -1.0867
 3846TIP3    H233174   4.675   2.377   0.763 -1.1456 -0.9200 -1.1697
 3847TIP3   OH233175   1.541   3.512   1.304 -0.4265  0.1299  0.0800
 3847TIP3    H133176   1.456   3.509   1.258 -0.7263  1.6052  0.4957
 3847TIP3    H233177   1.595   3.449   1.256 -1.5627 -0.3870 -0.5879
 3848TIP3   OH233178   1.870   4.587   1.716 -0.0622  0.1443 -0.2451
 3848TIP3    H133179   1.781   4.572   1.748 -0.4095  0.8164 -0.8628
 3848TIP3    H233180   1.909   4.500   1.712 -0.4941 -0.1019  0.5872
 3849TIP3   OH233181   4.664   6.177   0.846 -0.2327  0.2793  0.2086
 3849TIP3    H133182   4.711   6.261   0.843 -0.4458  0.4483  1.1956
 3849TIP3    H233183   4.733   6.112   0.858 -0.0279  0.2589 -0.9578
 3850TIP3   OH233184   6.778   3.999   8.342  0.2891 -0.3516  0.2671
 3850TIP3    H133185   6.762   3.937   8.412 -0.4630  0.1326  0.5301
 3850TIP3    H233186   6.764   4.085   8.381 -2.8341 -0.1130 -1.0936
 3851TIP3   OH233187   4.548   5.733   8.215 -0.3792 -0.2941 -0.5913
 3851TIP3    H133188   4.454   5.716   8.213 -0.2325 -1.5305  0.9960
 3851TIP3    H233189   4.564   5.769   8.303  1.2152 -4.5632  1.1409
 3852TIP3   OH233190   0.849   4.661   6.963  0.1944  0.3476  0.4832
 3852TIP3    H133191   0.776   4.722   6.966 -0.6013 -0.3364 -2.1067
 3852TIP3    H233192   0.918   4.709   6.916  0.1750 -0.1482 -0.0614
 3853TIP3   OH233193   6.511   2.302   8.601  0.2904 -0.3856  0.5628
 3853TIP3    H133194   6.454   2.377   8.583  0.2552 -0.7375 -0.8431
 3853TIP3    H233195   6.594   2.325   8.560  0.6468 -0.6232  1.1380
 3854TIP3   OH233196   1.390   5.883   1.606 -0.4119 -0.0112 -0.2510
 3854TIP3    H133197   1.462   5.848   1.658 -0.9065  0.7031  0.9713
 3854TIP3    H233198   1.402   5.978   1.610 -0.8439  0.0760 -0.8926
 3855TIP3   OH233199   2.740   2.738   6.361  0.2506 -0.5115  0.2094
 3855TIP3    H133200   2.644   2.734   6.363  0.2879 -2.2727  0.7703
 3855TIP3    H233201   2.761   2.830   6.371 -1.3885 -0.1065  0.1530
 3856TIP3   OH233202   6.402   2.476   8.084  0.2669  0.4770  0.1050
 3856TIP3    H133203   6.377   2.385   8.099  0.8440  0.4810  1.1951
 3856TIP3    H233204   6.350   2.503   8.008 -0.3033 -0.5935  0.0952
 3857TIP3   OH233205   6.115   0.079   7.287 -1.0427  0.7672 -0.2197
 3857TIP3    H133206   6.156  -0.008   7.291  0.9377  1.6311 -0.3335
 3857TIP3    H233207   6.051   0.072   7.216  0.8230  0.0323 -1.9266
 3858TIP3   OH233208   1.114   4.750   0.904  0.2609  0.0350 -0.5137
 3858TIP3    H133209   1.129   4.809   0.831  0.8556  0.8919  0.2904
 3858TIP3    H233210   1.077   4.805   0.973  0.7345 -0.5313  0.2133
 3859TIP3   OH233211   5.516   2.463   8.030 -0.2728  0.3218 -0.3096
 3859TIP3    H133212   5.505   2.407   8.107  1.4414 -1.7774 -1.4497
 3859TIP3    H233213   5.610   2.477   8.023 -0.2101 -0.6878 -2.6865
 3860TIP3   OH233214   4.449   2.898   6.758 -0.0176 -0.1310  0.4199
 3860TIP3    H133215   4.442   2.958   6.832  1.0276  1.7299 -0.8872
 3860TIP3    H233216   4.532   2.922   6.715 -0.2924 -1.5334 -1.0019
 3861TIP3   OH233217   1.573   0.586   7.901  0.1264  0.1296 -0.0064
 3861TIP3    H133218   1.582   0.670   7.947  0.3511  0.5582 -0.8090
 3861TIP3    H233219   1.556   0.523   7.970  2.4254  0.4134  0.8967
 3862TIP3   OH233220   0.500   6.618   7.680 -0.3652 -0.1637 -0.4926
 3862TIP3    H133221   0.462   6.537   7.713  2.1527 -0.3673  2.3676
 3862TIP3    H233222   0.527   6.597   7.591 -0.3937 -2.2768 -0.0594
 3863TIP3   OH233223   2.948   1.692   6.068  1.0276  0.0372 -0.1165
 3863TIP3    H133224   2.947   1.600   6.094  0.5955 -0.3703 -1.4534
 3863TIP3    H233225   2.874   1.731   6.113  1.8226  0.0009  1.2837
 3864TIP3   OH233226   3.088   4.162   0.144  0.5013 -0.3834 -0.0317
 3864TIP3    H133227   3.158   4.111   0.102 -0.0059 -0.1221 -1.2191
 3864TIP3    H233228   3.008   4.132   0.102  0.0686  0.5006  0.1394
 3865TIP3   OH233229   5.812   1.923   6.717 -0.1272 -0.5702  0.0112
 3865TIP3    H133230   5.750   1.872   6.664 -0.0764 -1.1350  0.4893
 3865TIP3    H233231   5.828   2.002   6.665  0.6339 -1.5230 -1.2573
 3866TIP3   OH233232   1.811   2.294   0.114 -0.1075  0.9022  0.3067
 3866TIP3    H133233   1.739   2.270   0.172  0.9264 -0.2597  1.1482
 3866TIP3    H233234   1.790   2.384   0.086 -2.7228  0.0545 -0.8158
 3867TIP3   OH233235   0.252   5.008   8.182  0.2809 -0.3006 -0.2402
 3867TIP3    H133236   0.197   4.945   8.227 -1.8952  1.5771 -0.0913
 3867TIP3    H233237   0.193   5.053   8.121  2.2318  0.0534 -1.9883
 3868TIP3   OH233238   5.929   6.363   0.197  0.5644 -0.0044 -0.4875
 3868TIP3    H133239   5.986   6.324   0.263 -0.4568  0.9832  1.0423
 3868TIP3    H233240   5.950   6.315   0.116  2.5302 -0.5967  0.3087
 3869TIP3   OH233241   1.017   1.488   6.608  0.2050 -0.5118 -0.1321
 3869TIP3    H133242   1.006   1.460   6.517  1.2573  0.5653 -0.6262
 3869TIP3    H233243   1.103   1.454   6.634 -0.6597 -2.0071  0.9684
 3870TIP3   OH233244   4.139   5.181   8.671 -0.0993 -0.0158 -0.2554
 3870TIP3    H133245   4.197   5.159   8.598 -0.4970 -0.4010 -0.4609
 3870TIP3    H233246   4.154   5.274   8.687  2.8493 -0.6878  1.6829
 3871TIP3   OH233247   3.962   0.255   0.837 -0.1415  0.4118  0.0292
 3871TIP3    H133248   4.042   0.307   0.825  1.9786 -2.5395  0.3034
 3871TIP3    H233249   3.974   0.212   0.921 -1.3431 -1.1930 -0.5660
 3872TIP3   OH233250   1.065   6.005   1.152 -0.4760 -0.4520 -0.2668
 3872TIP3    H133251   1.099   5.957   1.077 -1.4282  0.9345 -1.6728
 3872TIP3    H233252   0.970   6.002   1.142 -0.6535 -0.6709  1.1957
 3873TIP3   OH233253   0.761   0.240   1.290 -0.4870 -0.1127  0.1894
 3873TIP3    H133254   0.830   0.191   1.335  0.0992  0.4910 -0.0300
 3873TIP3    H233255   0.761   0.205   1.201  1.1935  1.4681 -0.5128
 3874TIP3   OH233256   2.876   4.233   7.944  0.1384  0.1577  0.1534
 3874TIP3    H133257   2.784   4.221   7.923  0.2206  0.4846 -0.4077
 3874TIP3    H233258   2.916   4.262   7.862  1.0491 -1.4825 -0.0185
 3875TIP3   OH233259   2.290   5.336   7.335 -0.0377  0.0504 -0.4383
 3875TIP3    H133260   2.298   5.256   7.387  0.3737 -1.4060 -2.6062
 3875TIP3    H233261   2.367   5.337   7.279 -0.9039  1.0562 -1.6780
 3876TIP3   OH233262   2.341   0.556   7.349 -0.0271 -0.0345  0.0521
 3876TIP3    H133263   2.391   0.590   7.423 -0.4062  0.7719 -0.0416
 3876TIP3    H233264   2.308   0.635   7.304 -1.4789 -0.5255  0.1922
 3877TIP3   OH233265   3.596   1.368   6.748  0.2002 -0.2886 -0.2758
 3877TIP3    H133266   3.622   1.363   6.656  0.8731 -0.3144 -0.0910
 3877TIP3    H233267   3.655   1.434   6.786 -0.6978  0.4173 -0.0663
 3878TIP3   OH233268   4.624   4.560   8.639  0.3066 -0.0920 -0.4645
 3878TIP3    H133269   4.608   4.504   8.563 -0.5838  0.8157 -0.9622
 3878TIP3    H233270   4.675   4.633   8.605 -0.1347  0.3424 -0.2134
 3879TIP3   OH233271   1.337   3.226   8.658  0.2066 -0.3586  0.0695
 3879TIP3    H133272   1.412   3.170   8.680  2.7403  3.4327  2.2990
 3879TIP3    H233273   1.352   3.251   8.566  1.3586 -0.1485  0.3030
 3880TIP3   OH233274   0.968   2.010   0.234 -0.7806 -0.7169 -0.5469
 3880TIP3    H133275   1.008   2.091   0.203  0.8360 -2.1917 -2.6511
 3880TIP3    H233276   0.974   2.015   0.330  1.6992  0.5169 -0.6907
 3881TIP3   OH233277   4.105   6.373   1.606 -0.5768  0.0518  0.0571
 3881TIP3    H133278   4.136   6.444   1.550 -0.6540  0.3885  0.4375
 3881TIP3    H233279   4.144   6.391   1.692  1.4137 -1.6907 -0.3900
 3882TIP3   OH233280   2.807   0.844   7.403 -0.2655 -0.3348  0.2417
 3882TIP3    H133281   2.856   0.918   7.367 -1.4598 -0.2706 -1.3731
 3882TIP3    H233282   2.812   0.777   7.334 -0.4341 -1.2138  1.0668
 3883TIP3   OH233283   0.004   2.485   7.190 -0.0604 -0.4164  0.0537
 3883TIP3    H133284   0.056   2.420   7.143 -1.1522 -1.2006 -0.1157
 3883TIP3    H233285   0.050   2.568   7.175  0.1184 -0.7878 -1.6549
 3884TIP3   OH233286   0.260   3.565   2.667 -0.3522  0.2971  0.1554
 3884TIP3    H133287   0.355   3.576   2.659 -0.3000  0.1019  0.5011
 3884TIP3    H233288   0.224   3.644   2.629 -0.1011 -0.4405 -1.7139
 3885TIP3   OH233289   5.157   3.491   7.399 -0.5168 -0.1553  0.4575
 3885TIP3    H133290   5.226   3.558   7.400  0.4513 -1.0840 -0.7282
 3885TIP3    H233291   5.203   3.410   7.378 -1.8514 -0.9666  0.5886
 3886TIP3   OH233292   5.471   6.165   8.246 -0.5259 -0.3613 -0.5849
 3886TIP3    H133293   5.375   6.160   8.250 -0.4394 -1.6025  0.4111
 3886TIP3    H233294   5.500   6.074   8.243  0.7185 -0.2084  2.8508
 3887TIP3   OH233295   2.301   0.053   7.854  0.3237 -0.5928 -0.5132
 3887TIP3    H133296   2.272  -0.018   7.911 -0.2153 -0.0460 -0.0936
 3887TIP3    H233297   2.255   0.037   7.771  0.5655 -0.9917 -0.5709
 3888TIP3   OH233298   6.897   1.453   1.089 -0.7071  0.0569 -0.1805
 3888TIP3    H133299   6.816   1.476   1.043  0.2665  1.0332 -1.4889
 3888TIP3    H233300   6.967   1.484   1.031  0.6015  0.1983  1.4026
 3889TIP3   OH233301   4.601   4.155   1.348 -0.1490 -0.0255 -0.0492
 3889TIP3    H133302   4.531   4.132   1.410 -0.9109  1.1169 -0.4526
 3889TIP3    H233303   4.584   4.246   1.325 -1.3545 -1.0004 -3.7591
 3890TIP3   OH233304   2.458   4.184   0.245 -0.5672  0.2833  0.4685
 3890TIP3    H133305   2.540   4.172   0.198 -0.4398  3.0520 -0.2278
 3890TIP3    H233306   2.483   4.190   0.337 -0.2218 -0.6203  0.4342
 3891TIP3   OH233307   2.224   5.599   8.467 -0.5241  0.1675  0.1954
 3891TIP3    H133308   2.166   5.647   8.408 -0.2905 -1.0100 -1.0494
 3891TIP3    H233309   2.274   5.541   8.409 -2.1737 -3.0525  1.7493
 3892TIP3   OH233310   6.112   6.615   0.999  0.4762  0.0795  0.1375
 3892TIP3    H133311   6.179   6.567   0.951  0.7737  1.3404 -0.7670
 3892TIP3    H233312   6.086   6.686   0.940 -1.3190 -0.0893  0.6630
 3893TIP3   OH233313   3.159   2.708   6.881  0.4210 -0.2296 -0.3919
 3893TIP3    H133314   3.138   2.774   6.815 -1.0849  0.5166  0.7787
 3893TIP3    H233315   3.238   2.665   6.848  1.4612  2.1514 -1.2011
 3894TIP3   OH233316   2.426   4.777   1.467  0.0587  0.2901  0.0852
 3894TIP3    H133317   2.363   4.848   1.469  0.8465  0.9942  0.3958
 3894TIP3    H233318   2.424   4.740   1.556 -1.1070 -0.7756 -0.3562
 3895TIP3   OH233319   2.119   4.047   7.334 -0.2794 -0.4584  0.3722
 3895TIP3    H133320   2.192   4.107   7.320 -1.6113  1.2594  0.5525
 3895TIP3    H233321   2.134   3.977   7.270 -0.2023  1.5155 -1.9121
 3896TIP3   OH233322   1.930   2.603   8.319  0.2705 -0.3466 -0.8997
 3896TIP3    H133323   1.895   2.691   8.329 -0.0169 -0.2839 -2.3015
 3896TIP3    H233324   1.976   2.586   8.401  2.9473  2.2721 -1.7247
 3897TIP3   OH233325   0.473   0.691   6.628 -0.6858  0.2037  0.0344
 3897TIP3    H133326   0.561   0.659   6.646 -0.0513  1.8147 -0.0585
 3897TIP3    H233327   0.429   0.617   6.587  0.1564 -1.0993  1.3636
 3898TIP3   OH233328   3.228   6.014   0.811 -0.4936  0.1820 -0.0511
 3898TIP3    H133329   3.267   5.952   0.872  1.7693  1.2569 -0.2996
 3898TIP3    H233330   3.197   6.086   0.866  0.0985  0.4294 -0.0394
 3899TIP3   OH233331   2.671   1.208   0.815 -0.3265 -0.1768  0.5498
 3899TIP3    H133332   2.626   1.187   0.733 -1.5616 -0.1479  1.1946
 3899TIP3    H233333   2.644   1.139   0.876 -0.7929  0.7313  1.4027
 3900TIP3   OH233334   5.554   6.164   1.923 -0.2076  0.6407 -0.0555
 3900TIP3    H133335   5.535   6.252   1.891 -0.1974  0.2697 -1.1226
 3900TIP3    H233336   5.503   6.156   2.003  1.0364  2.1878  0.9468
 3901TIP3   OH233337   2.184   4.204   0.639 -0.5260  0.7407  0.0770
 3901TIP3    H133338   2.266   4.156   0.624 -1.3823 -0.3766 -1.3032
 3901TIP3    H233339   2.149   4.219   0.551 -0.6020  3.4631  0.4801
 3902TIP3   OH233340   1.235   3.691   1.543 -1.0150  0.3674  0.7034
 3902TIP3    H133341   1.171   3.641   1.594 -0.3339  0.2390  1.4449
 3902TIP3    H233342   1.308   3.706   1.603  0.0320 -0.2235 -0.3783
 3903TIP3   OH233343   0.674   6.638   1.623 -0.0638  0.4048 -0.1019
 3903TIP3    H133344   0.712   6.668   1.540  0.2835  1.2090  0.3378
 3903TIP3    H233345   0.749   6.608   1.674  0.1216  2.6967  1.0603
 3904TIP3   OH233346   1.593   5.730   1.726 -0.4197 -0.0046  0.4993
 3904TIP3    H133347   1.633   5.643   1.733  0.3898  0.3477  0.2766
 3904TIP3    H233348   1.594   5.765   1.815 -0.2558 -0.0089  0.4997
 3905TIP3   OH233349   0.589   1.580   8.416  0.4834 -0.9660  0.3639
 3905TIP3    H133350   0.636   1.519   8.471 -0.3694 -1.0991  0.9571
 3905TIP3    H233351   0.652   1.650   8.397  1.9376 -2.6801 -1.5009
 3906TIP3   OH233352   4.723   2.397   8.171 -0.1167  1.0443 -0.4465
 3906TIP3    H133353   4.759   2.482   8.144  0.0117  2.1375  2.7135
 3906TIP3    H233354   4.799   2.344   8.192 -0.1552  1.6216  1.3987
 3907TIP3   OH233355   5.654   1.449   1.487  0.4212 -0.3788  0.1690
 3907TIP3    H133356   5.611   1.364   1.500  1.1199 -0.8580 -0.5740
 3907TIP3    H233357   5.629   1.500   1.564 -0.6531 -0.9812  0.2527
 3908TIP3   OH233358   0.536   2.789   0.038 -0.4438  0.3708  0.0761
 3908TIP3    H133359   0.598   2.839   0.092  1.7449 -1.9996 -0.0284
 3908TIP3    H233360   0.492   2.731   0.100  0.7099 -1.0325 -0.3550
 3909TIP3   OH233361   1.541   5.625   0.118 -0.1974 -0.0784 -0.3119
 3909TIP3    H133362   1.606   5.568   0.077  0.2168 -0.0310  0.2799
 3909TIP3    H233363   1.581   5.653   0.200 -1.4955 -1.1641  0.7428
 3910TIP3   OH233364   2.736   1.491   7.135  0.2005 -0.0383 -0.7995
 3910TIP3    H133365   2.818   1.537   7.152  0.8300 -1.1244 -0.7897
 3910TIP3    H233366   2.762   1.400   7.121 -1.0133 -0.4113 -0.7541
 3911TIP3   OH233367   3.733   1.156   7.501 -0.2931  0.4429  0.1352
 3911TIP3    H133368   3.649   1.170   7.458  0.2421  0.5201 -0.9150
 3911TIP3    H233369   3.711   1.138   7.593 -1.5369 -0.9498 -0.4064
 3912TIP3   OH233370   3.853   4.807   7.256  0.2372  0.1175 -0.1460
 3912TIP3    H133371   3.884   4.879   7.312 -0.8066  0.7368 -0.3422
 3912TIP3    H233372   3.759   4.803   7.271  0.2422 -1.0624 -0.3314
 3913TIP3   OH233373   4.174   3.203   2.571 -0.0233  0.2276 -0.0905
 3913TIP3    H133374   4.117   3.208   2.647  0.6757  1.6443  0.3704
 3913TIP3    H233375   4.122   3.236   2.498 -0.0572  0.7391  0.1662
 3914TIP3   OH233376   3.167   2.770   1.757 -0.0064 -0.5487  0.3416
 3914TIP3    H133377   3.105   2.809   1.819 -0.2728  1.4894 -1.1090
 3914TIP3    H233378   3.251   2.773   1.803 -0.4716 -0.6420  1.2242
 3915TIP3   OH233379   0.564   4.503   8.524 -0.7825 -0.2935  0.1116
 3915TIP3    H133380   0.599   4.555   8.596 -1.4421  0.1694  0.1076
 3915TIP3    H233381   0.602   4.540   8.445 -3.1354  1.8950 -0.1451
 3916TIP3   OH233382   6.575   2.460   7.688  0.1946 -0.0561  0.3855
 3916TIP3    H133383   6.586   2.444   7.594  0.3633  1.3152  0.1484
 3916TIP3    H233384   6.616   2.385   7.731 -0.5533 -1.0818 -0.6351
 3917TIP3   OH233385   0.595   4.848   7.623  0.0069 -0.2236 -0.0035
 3917TIP3    H133386   0.676   4.839   7.574  0.1943  0.4690  0.1719
 3917TIP3    H233387   0.568   4.758   7.642  1.4987 -0.4453  1.1894
 3918TIP3   OH233388   3.782   6.042   7.948 -0.5825  0.4618  0.3667
 3918TIP3    H133389   3.859   6.078   7.904 -0.8781  0.9595  0.2501
 3918TIP3    H233390   3.818   5.982   8.013 -0.1643 -1.1051 -1.2287
 3919TIP3   OH233391   3.316   5.146   7.823  0.1851 -0.7601  0.3467
 3919TIP3    H133392   3.354   5.134   7.736  3.4444  4.3732  0.6644
 3919TIP3    H233393   3.233   5.191   7.808 -0.1257 -1.4381 -0.0482
 3920TIP3   OH233394   4.614   4.102   2.607  0.4554  0.1557 -0.2332
 3920TIP3    H133395   4.696   4.143   2.578 -0.0578  2.3680  1.1771
 3920TIP3    H233396   4.642   4.036   2.671  1.1554  0.9265  0.2801
 3921TIP3   OH233397   0.746   4.680   0.020 -0.4588  0.0991 -0.2425
 3921TIP3    H133398   0.822   4.621   0.016 -0.5116 -0.1888  1.6793
 3921TIP3    H233399   0.768   4.752  -0.038  1.1183 -0.1816 -0.0460
 3922TIP3   OH233400   6.454   0.525   6.982  0.3253 -0.2956  0.4563
 3922TIP3    H133401   6.359   0.541   6.976  0.1438 -0.8806  1.5371
 3922TIP3    H233402   6.491   0.610   7.004  0.4037  0.6122 -2.7217
 3923TIP3   OH233403   6.614   5.953   1.731 -0.3578  0.5825  0.6023
 3923TIP3    H133404   6.521   5.950   1.751 -0.5409 -0.3324 -0.2849
 3923TIP3    H233405   6.623   5.903   1.649  0.7755  1.4537  0.1598
 3924TIP3   OH233406   3.983   1.302   7.372  0.2419  0.2239  0.0189
 3924TIP3    H133407   4.011   1.217   7.337  0.9632  1.8436 -3.9016
 3924TIP3    H233408   3.894   1.286   7.404  0.9008 -2.2873  0.8186
 3925TIP3   OH233409   6.500   3.892   0.123  1.0227  0.3365 -0.0687
 3925TIP3    H133410   6.519   3.853   0.208  1.4952  1.2732  0.2650
 3925TIP3    H233411   6.508   3.820   0.061 -0.0701 -0.5300  0.7557
 3926TIP3   OH233412   4.102   3.168   6.860  0.0997  0.0708 -0.5917
 3926TIP3    H133413   4.142   3.085   6.885 -0.5116 -0.5304 -1.5428
 3926TIP3    H233414   4.164   3.235   6.889  2.4122 -0.8357 -3.0111
 3927TIP3   OH233415   0.333   2.956   0.414 -0.0045  0.7832 -0.0532
 3927TIP3    H133416   0.246   2.932   0.445  0.4205 -3.2903 -1.4281
 3927TIP3    H233417   0.368   3.014   0.482 -2.7045  0.2640  1.9283
 3928TIP3   OH233418   4.307   0.080   8.420  0.1261  0.5792 -0.1507
 3928TIP3    H133419   4.379   0.019   8.405  0.5206  1.0308 -0.0938
 3928TIP3    H233420   4.338   0.138   8.489 -0.0562  1.1505 -0.5427
 3929TIP3   OH233421   0.917   3.073   8.385  0.8398  0.4819  0.1502
 3929TIP3    H133422   0.903   3.053   8.477  1.5075 -1.1807 -0.0722
 3929TIP3    H233423   1.007   3.105   8.380  0.5286  1.3855  0.1780
 3930TIP3   OH233424   2.166   3.487   8.444  0.6017 -0.2469 -0.3450
 3930TIP3    H133425   2.160   3.471   8.350  2.3955 -2.3617 -0.1774
 3930TIP3    H233426   2.075   3.488   8.474  0.0516 -1.6094 -1.8270
 3931TIP3   OH233427   2.044   6.217   7.831  0.8877  0.0869  0.0047
 3931TIP3    H133428   2.089   6.253   7.908  0.2685  0.3131  0.2650
 3931TIP3    H233429   2.109   6.222   7.761  0.4508  2.9781 -0.3223
 3932TIP3   OH233430   1.754   3.221   7.282  0.2585  0.9686  0.2277
 3932TIP3    H133431   1.833   3.267   7.252 -0.0470  1.1141 -0.3575
 3932TIP3    H233432   1.749   3.144   7.226  0.4414  0.5227  0.8175
 3933TIP3   OH233433   6.830   6.505   6.846  0.0597  0.8295 -0.2318
 3933TIP3    H133434   6.899   6.509   6.779  0.1755 -0.5145 -0.2350
 3933TIP3    H233435   6.824   6.412   6.868 -1.6958  0.9190 -0.1694
 3934TIP3   OH233436   5.308   6.178   7.489  0.6067  0.4984  0.0515
 3934TIP3    H133437   5.297   6.086   7.511 -1.8677  0.5241 -0.7457
 3934TIP3    H233438   5.227   6.202   7.443  0.5143  3.4319  1.4775
 3935TIP3   OH233439   6.793   1.496   0.612  0.2506 -0.3697  0.1277
 3935TIP3    H133440   6.716   1.536   0.653 -0.4329 -1.2847 -0.2339
 3935TIP3    H233441   6.762   1.466   0.526  1.1417 -0.3070 -0.2293
 3936TIP3   OH233442   1.586   6.476   1.128  0.4210 -0.6570 -0.5785
 3936TIP3    H133443   1.561   6.404   1.070 -3.1186 -1.0299  1.1363
 3936TIP3    H233444   1.539   6.552   1.095  2.4900  0.4541 -1.1335
 3937TIP3   OH233445   4.238   1.092   7.539 -0.7345  0.3319 -0.2988
 3937TIP3    H133446   4.277   1.166   7.492 -1.2694  1.0542  0.3818
 3937TIP3    H233447   4.187   1.046   7.472 -2.2412  1.8724 -0.2714
 3938TIP3   OH233448   1.590   2.841   8.152 -0.2750 -0.0441  0.1565
 3938TIP3    H133449   1.518   2.849   8.215 -1.1270 -2.2973 -0.4198
 3938TIP3    H233450   1.648   2.776   8.192  0.5464  0.4813 -0.1780
 3939TIP3   OH233451   1.383   4.143   7.504 -0.1386 -0.1185  0.1163
 3939TIP3    H133452   1.453   4.088   7.540 -0.6780 -0.3980  0.7515
 3939TIP3    H233453   1.345   4.186   7.581  0.9357  1.9645 -0.4371
 3940TIP3   OH233454   1.692   4.316   1.551  0.2907  0.3443 -0.4869
 3940TIP3    H133455   1.721   4.390   1.604 -0.4835  0.2700  0.0645
 3940TIP3    H233456   1.634   4.267   1.609  0.3514 -0.3846 -1.0318
 3941TIP3   OH233457   3.747   0.621   8.659 -0.8752  0.4678 -0.1067
 3941TIP3    H133458   3.818   0.646   8.599 -1.1014 -0.2579 -0.6961
 3941TIP3    H233459   3.792   0.582   8.734 -0.6192  0.6638 -0.1567
 3942TIP3   OH233460   1.586   3.702   0.833 -0.1034 -0.0565 -0.4023
 3942TIP3    H133461   1.646   3.753   0.887 -0.1945  1.5883 -1.7515
 3942TIP3    H233462   1.620   3.712   0.744 -2.3925  1.0706 -1.2380
 3943TIP3   OH233463   6.894   1.625   1.317 -0.0394  0.0096 -1.0667
 3943TIP3    H133464   6.908   1.547   1.264 -1.0990 -2.4457  1.9041
 3943TIP3    H233465   6.810   1.660   1.287  0.2439 -0.2111 -2.1523
 3944TIP3   OH233466   5.068   4.271   2.633  0.0821 -0.4138  0.0242
 3944TIP3    H133467   5.081   4.357   2.594  0.0539 -1.1162 -1.5743
 3944TIP3    H233468   5.098   4.282   2.724  0.8194  1.0598 -0.3642
 3945TIP3   OH233469   0.891   1.250   2.391  0.1478 -0.5507 -0.5359
 3945TIP3    H133470   0.833   1.252   2.314  1.5943 -2.0129 -1.7304
 3945TIP3    H233471   0.837   1.212   2.460 -1.3003  1.1259 -0.6826
 3946TIP3   OH233472   0.346   0.247   0.479  0.4273 -0.2485  0.5890
 3946TIP3    H133473   0.344   0.160   0.519 -0.0683 -0.8297 -0.6299
 3946TIP3    H233474   0.339   0.308   0.552  1.2472 -1.2231  1.5016
 3947TIP3   OH233475   2.847   0.474   0.068 -0.6804 -1.0183 -0.5346
 3947TIP3    H133476   2.786   0.540   0.035 -1.4645 -1.5035 -0.1064
 3947TIP3    H233477   2.917   0.523   0.110 -2.2681 -0.4407  1.5938
 3948TIP3   OH233478   6.794   2.038   8.530  0.3905  0.1003  0.3772
 3948TIP3    H133479   6.772   2.036   8.623 -0.0058  0.6808  0.2998
 3948TIP3    H233480   6.854   2.112   8.520 -1.2175  1.3907 -0.1624
 3949TIP3   OH233481   1.008   3.401   1.503 -0.0496  0.2654 -0.0376
 3949TIP3    H133482   1.002   3.395   1.598  0.7319  0.3840  0.0276
 3949TIP3    H233483   1.057   3.323   1.477  1.2148  1.0704 -0.1691
 3950TIP3   OH233484   0.315   4.829   7.534  1.0753 -0.8064  0.3718
 3950TIP3    H133485   0.406   4.829   7.563  0.9118 -1.2076  0.9124
 3950TIP3    H233486   0.278   4.910   7.568  0.9168 -1.2170  1.2216
 3951TIP3   OH233487   3.533   5.041   8.537  0.3884 -0.3389  0.4313
 3951TIP3    H133488   3.567   5.129   8.556  1.7143 -0.8225  0.4247
 3951TIP3    H233489   3.504   5.046   8.446 -0.0894  0.2481  0.6103
 3952TIP3   OH233490   2.378   4.027   2.286  0.5998 -0.4003 -0.2142
 3952TIP3    H133491   2.291   4.057   2.315  0.1326  1.3612 -3.0682
 3952TIP3    H233492   2.439   4.089   2.326  0.0656  1.2825 -1.8612
 3953TIP3   OH233493   2.091   6.694   7.087 -0.6677  0.2968 -0.3958
 3953TIP3    H133494   2.146   6.652   7.021  1.2921 -2.0715  2.4410
 3953TIP3    H233495   2.141   6.771   7.115  0.6489 -1.0320  1.1318
 3954TIP3   OH233496   2.835   3.091   0.083 -0.2359 -0.4240  0.4691
 3954TIP3    H133497   2.793   3.088  -0.003 -0.4753  0.2056  0.5602
 3954TIP3    H233498   2.764   3.072   0.145  0.0079 -1.2314  0.5129
 3955TIP3   OH233499   4.560   2.140   6.295 -0.2909 -0.0864  0.2142
 3955TIP3    H133500   4.651   2.151   6.270  0.1430  0.4982  1.9349
 3955TIP3    H233501   4.549   2.046   6.305  0.6204 -0.0646  1.6531
 3956TIP3   OH233502   3.558   4.043   0.014  0.4288 -0.0060 -0.3139
 3956TIP3    H133503   3.576   4.133   0.040  0.4663 -0.7832  2.8136
 3956TIP3    H233504   3.569   3.992   0.095  0.4641 -2.8421 -1.9556
 3957TIP3   OH233505   4.504   4.183   0.687  0.4388 -0.0691  0.0297
 3957TIP3    H133506   4.537   4.193   0.598 -1.9152 -1.1274 -1.0360
 3957TIP3    H233507   4.532   4.096   0.713 -0.4609 -0.5018 -0.4203
 3958TIP3   OH233508   1.961   3.940   7.822 -0.3979 -0.6368  0.0663
 3958TIP3    H133509   1.898   4.004   7.788 -0.0231 -0.6777 -0.7111
 3958TIP3    H233510   2.045   3.965   7.783 -0.4673 -2.3677 -1.3184
 3959TIP3   OH233511   1.742   2.482   1.476  0.2985  0.0161  0.2433
 3959TIP3    H133512   1.664   2.430   1.461  0.1717  0.1814  0.3215
 3959TIP3    H233513   1.771   2.457   1.564  0.9154 -0.7888 -0.1778
 3960TIP3   OH233514   6.159   0.259   7.049 -0.9867 -0.0277 -0.1889
 3960TIP3    H133515   6.207   0.190   7.002 -1.7493  0.1375 -1.2580
 3960TIP3    H233516   6.121   0.214   7.124 -0.5774 -0.5380 -0.2736
 3961TIP3   OH233517   5.571   2.230   0.996  0.1743  0.1151 -0.1490
 3961TIP3    H133518   5.512   2.305   0.991  0.4725  0.3050 -0.9883
 3961TIP3    H233519   5.598   2.227   1.088 -3.0592 -1.4842  0.9170
 3962TIP3   OH233520   5.839   4.116   7.921  0.7224 -0.2626  0.1089
 3962TIP3    H133521   5.919   4.144   7.876  0.4369 -2.4722 -1.9763
 3962TIP3    H233522   5.791   4.065   7.855 -2.2752  0.6849  1.3895
 3963TIP3   OH233523   1.999   3.223   7.975  0.0830  0.2022  0.0787
 3963TIP3    H133524   1.970   3.177   8.054  1.3022 -0.1990  0.3187
 3963TIP3    H233525   1.938   3.194   7.907 -0.1815 -0.4788  0.5923
 3964TIP3   OH233526   1.102   3.579   0.822  0.8369 -0.3052 -0.2617
 3964TIP3    H133527   1.097   3.489   0.855 -1.3368 -0.0044  0.4129
 3964TIP3    H233528   1.098   3.633   0.901  1.3270  0.3854 -0.7063
 3965TIP3   OH233529   5.155   1.150   6.759  0.0342 -0.6688  0.2054
 3965TIP3    H133530   5.192   1.225   6.712 -1.7956  0.5583  0.6060
 3965TIP3    H233531   5.186   1.073   6.710  1.7815  0.3212 -0.3493
 3966TIP3   OH233532   0.424   0.758   2.346 -0.5253 -0.3718  0.1514
 3966TIP3    H133533   0.468   0.687   2.301 -1.5357 -0.5850 -0.5405
 3966TIP3    H233534   0.351   0.782   2.288  0.2218  1.7437 -0.0238
 3967TIP3   OH233535   5.352   0.490   7.179 -0.3139  0.1654  0.0842
 3967TIP3    H133536   5.378   0.549   7.250  0.3638 -0.2782  0.2159
 3967TIP3    H233537   5.313   0.548   7.113  0.3957  0.7813  0.1849
 3968TIP3   OH233538   5.213   5.245   1.635  0.5539  0.0605  1.0204
 3968TIP3    H133539   5.223   5.154   1.661 -0.4857 -0.2640  0.3444
 3968TIP3    H233540   5.174   5.287   1.712 -3.1888 -1.0471 -0.0385
 3969TIP3   OH233541   0.312   4.440   0.181 -0.0480  0.3723 -0.8260
 3969TIP3    H133542   0.278   4.383   0.251 -1.2840  2.0688  0.0337
 3969TIP3    H233543   0.406   4.446   0.199 -0.1680 -0.0954  0.0337
 3970TIP3   OH233544   0.580   3.225   6.308 -0.1160 -0.2270 -0.0833
 3970TIP3    H133545   0.627   3.230   6.225 -0.6875 -2.0203 -0.5727
 3970TIP3    H233546   0.541   3.138   6.307 -0.0137 -0.3442  2.1479
 3971TIP3   OH233547   4.552   5.074   2.169  0.4909 -0.0195  0.0508
 3971TIP3    H133548   4.491   5.089   2.097 -0.4959  0.5142  0.9699
 3971TIP3    H233549   4.623   5.137   2.153 -1.1717  2.2871  1.1053
 3972TIP3   OH233550   0.166   0.370   6.963 -0.2373 -0.2429 -0.1144
 3972TIP3    H133551   0.235   0.432   6.986 -1.4062  0.8747  0.5495
 3972TIP3    H233552   0.092   0.425   6.937 -1.8350 -1.2716  1.9366
 3973TIP3   OH233553   6.103   4.513   1.780  0.3114 -0.5445 -0.2360
 3973TIP3    H133554   6.045   4.587   1.762 -0.3416 -1.3577 -1.5520
 3973TIP3    H233555   6.191   4.549   1.764 -0.0228 -0.1569 -1.3245
 3974TIP3   OH233556   0.513   2.566   8.297 -0.4066 -0.0974  0.2213
 3974TIP3    H133557   0.588   2.534   8.348 -1.7587 -0.9514  1.7550
 3974TIP3    H233558   0.523   2.662   8.300  1.3174 -0.1928 -0.7509
 3975TIP3   OH233559   4.602   1.798   2.581  0.5400 -0.1588 -0.0861
 3975TIP3    H133560   4.632   1.884   2.610  2.0409 -0.7555  0.1999
 3975TIP3    H233561   4.554   1.815   2.500  1.5551  0.8393 -0.4928
 3976TIP3   OH233562   4.982   6.130   7.933  0.4849 -0.2140 -0.0709
 3976TIP3    H133563   4.930   6.102   8.009 -0.4151  0.4200 -0.4425
 3976TIP3    H233564   5.002   6.049   7.887 -0.8376 -0.4098 -0.3350
 3977TIP3   OH233565   0.246   6.802   0.908 -0.5912  0.0450  0.2473
 3977TIP3    H133566   0.224   6.832   0.819  0.7730  0.9203  0.1831
 3977TIP3    H233567   0.216   6.873   0.965 -2.5033 -1.0094  0.6254
 3978TIP3   OH233568   4.575   1.563   0.325  0.3205  0.2048  0.8686
 3978TIP3    H133569   4.632   1.617   0.380  0.0543 -0.8247  2.2236
 3978TIP3    H233570   4.487   1.599   0.341  0.2654  0.0196  0.9846
 3979TIP3   OH233571   4.808   6.818   7.911 -0.1729 -0.0947 -0.1239
 3979TIP3    H133572   4.819   6.913   7.913 -1.6388  0.0979  0.6105
 3979TIP3    H233573   4.723   6.805   7.869 -0.1394 -1.0610  0.0807
 3980TIP3   OH233574   3.975   2.910   7.668  0.1893  0.4574  0.3397
 3980TIP3    H133575   3.952   2.835   7.723 -0.0355  0.5285  0.3456
 3980TIP3    H233576   3.994   2.873   7.582  0.9289  0.3049  0.5696
 3981TIP3   OH233577   5.531   2.056   6.594 -0.1655  0.3821 -0.2731
 3981TIP3    H133578   5.564   1.976   6.554 -0.5041 -0.7117  1.5005
 3981TIP3    H233579   5.456   2.081   6.540 -0.0057 -0.4576 -0.8991
 3982TIP3   OH233580   6.260   3.474   1.987  0.1411  0.0061 -0.4961
 3982TIP3    H133581   6.243   3.444   1.897  0.8979 -1.4106 -0.1922
 3982TIP3    H233582   6.234   3.400   2.042 -0.7464  1.0239  0.5106
 3983TIP3   OH233583   2.204   1.310   2.580 -0.1393  0.6871 -0.5611
 3983TIP3    H133584   2.191   1.215   2.576  0.4395  0.4230  1.8490
 3983TIP3    H233585   2.152   1.338   2.655  1.0915  1.9658 -0.1333
 3984TIP3   OH233586   1.616   4.851   6.854  0.5432  0.2193 -0.0607
 3984TIP3    H133587   1.563   4.841   6.932  1.0978  0.1806  0.3156
 3984TIP3    H233588   1.556   4.833   6.781 -0.4502  2.0400  0.2459
 3985TIP3   OH233589   5.933   0.043   7.072 -0.0154 -0.5814  0.2884
 3985TIP3    H133590   5.929  -0.036   7.017 -0.2077  0.5359 -1.3546
 3985TIP3    H233591   5.899   0.113   7.016  1.8185  1.0253  1.0858
 3986TIP3   OH233592   6.014   0.165   1.734  0.4535  0.1211 -0.1740
 3986TIP3    H133593   6.094   0.123   1.766 -0.2497 -0.8764  0.3234
 3986TIP3    H233594   5.971   0.099   1.680  0.6597  1.1417 -1.6619
 3987TIP3   OH233595   3.046   1.580   6.315 -0.4546 -0.0553 -0.0215
 3987TIP3    H133596   3.101   1.656   6.293  2.0129 -1.8717 -0.6315
 3987TIP3    H233597   3.048   1.576   6.411  1.1379 -0.4716 -0.0426
 3988TIP3   OH233598   0.809   2.636   7.295  0.3408 -0.0096 -0.4001
 3988TIP3    H133599   0.902   2.614   7.284  0.4961  0.1170  0.5773
 3988TIP3    H233600   0.797   2.643   7.390 -0.7902 -0.5263 -0.4884
 3989TIP3   OH233601   5.360   6.139   2.130 -0.0315 -0.0192 -0.5706
 3989TIP3    H133602   5.267   6.141   2.154  0.1186 -1.8588  0.3420
 3989TIP3    H233603   5.385   6.047   2.140  1.7170  0.3171 -1.5193
 3990TIP3   OH233604   4.936   2.872   8.043  1.0649 -0.1825 -0.3687
 3990TIP3    H133605   4.895   2.898   7.960  0.1945  1.3509  0.4785
 3990TIP3    H233606   4.990   2.948   8.067 -0.7098  0.5484  1.6873
 3991TIP3   OH233607   4.583   5.467   6.938 -0.5643 -0.1010 -0.2010
 3991TIP3    H133608   4.516   5.536   6.941 -0.9429 -0.5031  0.7203
 3991TIP3    H233609   4.612   5.466   6.846 -1.8116  0.0867 -0.6124
 3992TIP3   OH233610   1.415   2.364   0.132  0.2790  0.7908  0.3916
 3992TIP3    H133611   1.386   2.283   0.090 -1.2141  1.6056 -0.2199
 3992TIP3    H233612   1.479   2.335   0.197 -0.2798 -0.8809  0.2545
 3993TIP3   OH233613   4.418   0.822   1.459  0.0385  0.0756 -0.3525
 3993TIP3    H133614   4.392   0.757   1.523  1.1165  1.2757  1.3815
 3993TIP3    H233615   4.359   0.896   1.475 -0.5716 -0.0859 -1.6844
 3994TIP3   OH233616   1.778   3.009   7.115  0.1887  0.2384  0.0652
 3994TIP3    H133617   1.717   3.028   7.044  0.9677  0.0583 -0.6716
 3994TIP3    H233618   1.772   2.914   7.128 -0.1655  0.3092  0.4491
 3995TIP3   OH233619   5.255   6.606   7.998  0.1801  0.1923 -0.5228
 3995TIP3    H133620   5.182   6.594   8.059  1.2210 -1.2308  0.5094
 3995TIP3    H233621   5.215   6.646   7.920 -1.8043 -1.0575 -0.2209
 3996TIP3   OH233622   4.104   4.186   7.584 -0.5279 -0.0837  0.0621
 3996TIP3    H133623   4.081   4.278   7.595 -1.9147 -0.2723 -0.9671
 3996TIP3    H233624   4.169   4.186   7.513 -0.4346  0.1141  0.1477
 3997TIP3   OH233625   0.532   2.527   1.740  0.0562  0.0671  0.5210
 3997TIP3    H133626   0.573   2.580   1.671  0.0864 -1.2881 -0.5396
 3997TIP3    H233627   0.468   2.585   1.779  0.2991  0.9955 -0.4036
 3998TIP3   OH233628   5.305   6.148   1.164  0.1310 -0.0027  0.2165
 3998TIP3    H133629   5.263   6.079   1.215 -0.8397  0.3657 -0.0627
 3998TIP3    H233630   5.308   6.114   1.075 -0.2870  0.2845  0.0909
 3999TIP3   OH233631   5.981   3.410   2.480 -0.5752 -0.3546  0.1298
 3999TIP3    H133632   5.948   3.422   2.570 -0.3822  1.1660  0.0368
 3999TIP3    H233633   6.064   3.458   2.479 -0.7931  0.0306 -0.9687
 4000TIP3   OH233634   0.667   5.232   0.908  0.3258  0.4594  0.0634
 4000TIP3    H133635   0.642   5.244   0.816  0.5028  2.2102  0.2062
 4000TIP3    H233636   0.763   5.229   0.907  0.3115 -0.3269  0.1286
 4001TIP3   OH233637   2.924   4.695   6.733 -0.3073  0.2342 -0.0734
 4001TIP3    H133638   2.971   4.738   6.804  0.7399 -0.8350 -0.0678
 4001TIP3    H233639   2.837   4.678   6.769  0.1478 -0.1343  0.9087
 4002TIP3   OH233640   0.317   1.418   0.720  0.2504 -0.2292 -0.1712
 4002TIP3    H133641   0.311   1.496   0.776  0.9303  0.3163 -0.8354
 4002TIP3    H233642   0.309   1.344   0.781 -0.3493  0.3534  0.4762
 4003TIP3   OH233643   5.227   5.921   0.266 -0.4525  0.1264 -0.5564
 4003TIP3    H133644   5.277   5.840   0.280 -2.8882 -1.1596  1.4770
 4003TIP3    H233645   5.240   5.970   0.347 -0.0663  1.2086 -1.2562
 4004TIP3   OH233646   5.271   1.122   0.236  0.4234 -0.3026 -0.5076
 4004TIP3    H133647   5.232   1.153   0.317 -1.1137 -2.7168 -0.2311
 4004TIP3    H233648   5.220   1.165   0.167 -0.3748 -0.6817 -0.1635
 4005TIP3   OH233649   1.252   0.285   0.103 -0.2759 -0.2343 -0.0461
 4005TIP3    H133650   1.269   0.352   0.037  1.2935  0.0037  0.5421
 4005TIP3    H233651   1.250   0.333   0.186  1.1046 -0.8992  0.4080
 4006TIP3   OH233652   4.919   2.482   2.611  0.6233  0.0599 -0.1777
 4006TIP3    H133653   4.956   2.543   2.547 -0.1770 -1.7361 -2.5040
 4006TIP3    H233654   4.825   2.481   2.591  0.4616 -1.0891  0.5510
 4007TIP3   OH233655   4.879   0.195   0.329 -0.3832  0.0693 -0.0553
 4007TIP3    H133656   4.894   0.112   0.284 -1.6411  0.1481 -0.6620
 4007TIP3    H233657   4.804   0.233   0.283 -0.6764  0.9031  1.0938
 4008TIP3   OH233658   0.494   5.609   1.655  0.2949 -0.1154 -0.5018
 4008TIP3    H133659   0.578   5.589   1.696 -0.1194 -1.4145 -0.2235
 4008TIP3    H233660   0.510   5.593   1.561  0.1318 -1.3141 -0.3493
 4009TIP3   OH233661   4.318   1.610   0.471 -0.4701  1.0278  0.3781
 4009TIP3    H133662   4.291   1.548   0.537  1.1520 -1.9599 -1.5361
 4009TIP3    H233663   4.246   1.612   0.408  0.0762 -0.1812 -0.3214
 4010TIP3   OH233664   4.869   3.993   0.794  0.4285  0.4139  0.8374
 4010TIP3    H133665   4.928   4.015   0.722 -1.7284 -3.8989 -2.7334
 4010TIP3    H233666   4.927   3.962   0.864  2.5122  1.1904 -0.4475
 4011TIP3   OH233667   0.983   3.564   0.400 -0.4793  0.0201  0.5013
 4011TIP3    H133668   0.928   3.526   0.468  2.7366 -4.1057  1.1924
 4011TIP3    H233669   1.066   3.581   0.443  0.5416  0.7761 -1.6389
 4012TIP3   OH233670   1.948   2.049   0.789 -0.6753  0.5274 -0.2139
 4012TIP3    H133671   1.867   1.999   0.778  0.3353 -1.5093  1.0636
 4012TIP3    H233672   1.925   2.120   0.849 -1.9297  1.1774 -1.3919
 4013TIP3   OH233673   3.802   4.663   0.044  0.5052  0.1337  0.1308
 4013TIP3    H133674   3.759   4.706   0.117  0.3967 -2.5373  1.7825
 4013TIP3    H233675   3.875   4.616   0.083 -0.0362 -2.0391 -1.2926
 4014TIP3   OH233676   5.414   5.486   8.160 -0.4538 -0.1930  0.0537
 4014TIP3    H133677   5.472   5.555   8.127  0.1230 -0.7971 -0.2329
 4014TIP3    H233678   5.469   5.435   8.219 -0.8938 -0.3693  0.3168
 4015TIP3   OH233679   3.826   3.461   8.014  0.1041 -0.5372  0.0854
 4015TIP3    H133680   3.801   3.373   7.989  1.6761 -1.4678  1.5182
 4015TIP3    H233681   3.757   3.490   8.074 -1.2502 -0.0975 -1.6009
 4016TIP3   OH233682   5.719   4.590   0.749 -0.4358  0.1939  0.4949
 4016TIP3    H133683   5.772   4.550   0.819 -2.2904  1.4059  2.7275
 4016TIP3    H233684   5.745   4.682   0.749 -0.8663  0.3190 -0.0099
 4017TIP3   OH233685   1.186   6.212   7.973 -0.5194 -0.3560  0.5655
 4017TIP3    H133686   1.191   6.255   7.887  0.3380  0.9983  1.2656
 4017TIP3    H233687   1.164   6.282   8.034 -0.7870 -1.2459  1.5172
 4018TIP3   OH233688   6.890   4.117   1.841  0.6674  0.2702  0.2299
 4018TIP3    H133689   6.815   4.089   1.893  0.4326 -0.7852 -0.6431
 4018TIP3    H233690   6.862   4.199   1.800  1.3633  1.9410  2.8299
 4019TIP3   OH233691   0.310   5.545   8.614 -0.3575  0.3767 -0.0883
 4019TIP3    H133692   0.300   5.481   8.685  0.1821 -0.8173 -1.0623
 4019TIP3    H233693   0.389   5.518   8.569  0.7499  2.6598  0.3742
 4020TIP3   OH233694   3.303   4.387   7.371 -0.3655 -0.4453 -0.2534
 4020TIP3    H133695   3.242   4.314   7.358  0.0032 -0.6018 -1.1718
 4020TIP3    H233696   3.247   4.463   7.385 -0.7617 -0.7813  0.0130
 4021TIP3   OH233697   4.773   2.104   1.828 -0.2336 -0.0102 -0.3881
 4021TIP3    H133698   4.846   2.165   1.836  0.4677 -0.8539 -0.1289
 4021TIP3    H233699   4.788   2.059   1.745 -0.0050 -0.7397  0.0372
 4022TIP3   OH233700   2.178   1.081   7.225 -0.1137 -0.6160 -0.0062
 4022TIP3    H133701   2.093   1.045   7.198  0.4264 -0.9130 -1.3867
 4022TIP3    H233702   2.188   1.160   7.171  0.3978 -0.4575  0.3148
 4023TIP3   OH233703   4.447   2.587   0.338  0.0622 -0.5709  0.2035
 4023TIP3    H133704   4.488   2.518   0.389  1.2883  0.3149  0.4660
 4023TIP3    H233705   4.493   2.587   0.254  0.7002  0.4839  0.5277
 4024TIP3   OH233706   2.807   0.023   8.234 -0.4980 -0.0005 -0.7228
 4024TIP3    H133707   2.894   0.005   8.199 -0.4323  1.3558 -1.3237
 4024TIP3    H233708   2.770  -0.064   8.254  0.3504 -0.6848 -2.0217
 4025TIP3   OH233709   3.384   4.349   6.280  0.0478 -0.0499 -0.0290
 4025TIP3    H133710   3.309   4.369   6.224  1.0508 -0.9193 -1.7553
 4025TIP3    H233711   3.404   4.432   6.323  0.3377  1.1646 -2.3374
 4026TIP3   OH233712   5.067   6.315   1.158  0.2485 -0.3630  0.2497
 4026TIP3    H133713   5.091   6.401   1.125  1.0267 -0.8721 -0.5582
 4026TIP3    H233714   5.137   6.257   1.128 -0.1447 -1.2422  0.9641
 4027TIP3   OH233715   1.164   3.932   0.766  0.0658  0.4595 -0.3956
 4027TIP3    H133716   1.227   3.914   0.836  0.0870 -0.9124 -0.7327
 4027TIP3    H233717   1.171   4.026   0.751  1.7534  0.4127 -0.1457
 4028TIP3   OH233718   2.505   6.601   0.887  0.2788  0.3129  0.0895
 4028TIP3    H133719   2.472   6.664   0.951  0.3958 -0.0774  0.5356
 4028TIP3    H233720   2.462   6.518   0.910  0.4711  0.1270 -0.2146
 4029TIP3   OH233721   0.473   5.014   2.295 -0.1203 -0.7103  0.1362
 4029TIP3    H133722   0.558   5.030   2.337 -0.0987  0.4294 -0.3221
 4029TIP3    H233723   0.445   4.930   2.331  1.3366 -1.2642  0.0809
 4030TIP3   OH233724   1.416   5.141   1.094 -0.9506  0.4300  0.4975
 4030TIP3    H133725   1.448   5.130   1.184 -0.3022 -1.3288  0.0801
 4030TIP3    H233726   1.344   5.079   1.086  0.9558 -1.7145 -1.0875
 4031TIP3   OH233727   4.832   0.604   7.651 -0.0079  0.1703  0.2266
 4031TIP3    H133728   4.872   0.690   7.639 -0.9600  0.4574 -1.2264
 4031TIP3    H233729   4.889   0.545   7.602  0.4207  0.0393  0.8818
 4032TIP3   OH233730   4.946   4.764   2.440 -0.4874  0.1983  0.3133
 4032TIP3    H133731   4.961   4.713   2.361  1.8806  1.4565 -0.1310
 4032TIP3    H233732   4.910   4.847   2.409 -0.4707  0.3352  0.6556
 4033TIP3   OH233733   0.432   1.412   8.657 -0.7061  0.1441 -0.2866
 4033TIP3    H133734   0.347   1.409   8.614 -0.3549  1.2665 -1.1338
 4033TIP3    H233735   0.460   1.503   8.648  0.5036 -0.1619  0.1195
 4034TIP3   OH233736   5.756   6.532   1.344 -0.2100  0.3614  0.4097
 4034TIP3    H133737   5.787   6.584   1.418 -1.2780  2.1319 -0.3437
 4034TIP3    H233738   5.691   6.473   1.382  0.3157  0.2287  1.1162
 4035TIP3   OH233739   4.559   1.175   7.288  0.0372  0.3989  0.1013
 4035TIP3    H133740   4.525   1.250   7.336 -2.3209 -0.6265  0.1649
 4035TIP3    H233741   4.486   1.145   7.234  1.2002 -1.2584 -0.6422
 4036TIP3   OH233742   4.733   0.239   7.589  0.2561  0.5467  0.0999
 4036TIP3    H133743   4.785   0.276   7.661  0.6448  2.9883 -1.3200
 4036TIP3    H233744   4.797   0.192   7.535  0.5920  1.4858 -0.3453
 4037TIP3   OH233745   3.204   4.582   7.746 -0.5330 -0.6380 -0.4897
 4037TIP3    H133746   3.266   4.590   7.674  1.2121 -0.7531  0.9482
 4037TIP3    H233747   3.182   4.489   7.748  0.4491 -0.8696 -0.0547
 4038TIP3   OH233748   4.232   6.166   7.253  0.0832  0.4884  0.2908
 4038TIP3    H133749   4.157   6.110   7.273  0.1198 -0.7424 -2.5568
 4038TIP3    H233750   4.193   6.253   7.242 -0.6871  0.1579  0.2927
 4039TIP3   OH233751   2.084   3.518   8.176  0.0432 -0.4428 -0.0963
 4039TIP3    H133752   2.067   3.602   8.219 -0.4228  0.1413 -1.3700
 4039TIP3    H233753   2.012   3.462   8.204 -0.2868 -0.0537 -0.1529
 4040TIP3   OH233754   2.941   5.914   0.858 -0.4023 -0.3532  0.2369
 4040TIP3    H133755   3.032   5.927   0.885 -0.6586 -1.9010  2.0535
 4040TIP3    H233756   2.945   5.914   0.762  1.5853 -0.8458  0.2704
 4041TIP3   OH233757   4.373   2.955   8.615  0.1384  0.3235 -0.6631
 4041TIP3    H133758   4.285   2.934   8.644 -0.5847  1.3549 -2.0203
 4041TIP3    H233759   4.423   2.968   8.696  0.1754 -4.2476  0.3214
 4042TIP3   OH233760   4.307   4.853   0.651  0.2724 -0.1776 -0.1279
 4042TIP3    H133761   4.285   4.910   0.577 -2.2296  1.0298  1.3945
 4042TIP3    H233762   4.357   4.910   0.710 -0.7948 -0.0398  0.6587
 4043TIP3   OH233763   2.760   1.407   1.733  0.2911 -0.1476 -0.2672
 4043TIP3    H133764   2.709   1.339   1.776 -0.8956 -0.2393 -1.7338
 4043TIP3    H233765   2.800   1.457   1.804 -1.2111 -0.5686  0.9149
 4044TIP3   OH233766   5.167   4.208   0.185 -0.6702 -0.3819  0.3322
 4044TIP3    H133767   5.133   4.174   0.103  0.7274  1.6497 -1.2111
 4044TIP3    H233768   5.121   4.291   0.198 -0.0718 -0.1402  1.0026
 4045TIP3   OH233769   5.067   2.997   7.738 -0.1807  0.1573  0.3223
 4045TIP3    H133770   5.110   2.954   7.813  0.0520 -0.5740 -0.2168
 4045TIP3    H233771   5.017   3.069   7.777  1.7365  1.2043  0.9415
 4046TIP3   OH233772   3.548   2.233   1.376  0.4552 -0.1372  0.4608
 4046TIP3    H133773   3.617   2.256   1.439 -0.2700 -1.4418  1.7956
 4046TIP3    H233774   3.576   2.149   1.340  0.4697  0.2308 -0.4163
 4047TIP3   OH233775   3.889   2.586   7.116  0.4517 -0.3909  0.1519
 4047TIP3    H133776   3.881   2.491   7.122 -0.0680 -0.3841 -0.4202
 4047TIP3    H233777   3.933   2.601   7.033  1.9262 -0.1886  0.9294
 4048TIP3   OH233778   6.378   4.441   7.632 -0.6570  0.3270 -0.1655
 4048TIP3    H133779   6.303   4.490   7.666 -0.9994 -1.3197  1.6803
 4048TIP3    H233780   6.419   4.405   7.711  3.0231  2.3802 -0.9385
 4049TIP3   OH233781   4.883   5.452   7.621 -0.3232 -0.1030  0.1836
 4049TIP3    H133782   4.898   5.421   7.531 -0.6598 -2.0643  0.7571
 4049TIP3    H233783   4.968   5.486   7.649 -0.2810  0.7718 -0.9579
 4050TIP3   OH233784   2.661   6.620   1.584  0.3099 -0.0484  0.4270
 4050TIP3    H133785   2.623   6.659   1.663 -0.6123  1.5039 -0.7245
 4050TIP3    H233786   2.646   6.526   1.595 -3.2447  0.3638  0.4675
 4051TIP3   OH233787   6.842   4.333   1.691  0.4837  0.0641  0.0338
 4051TIP3    H133788   6.873   4.424   1.696  2.9733 -0.7799  1.8411
 4051TIP3    H233789   6.891   4.296   1.617 -0.4889  0.1387 -0.6671
 4052TIP3   OH233790   3.901   6.842   1.997  0.4975  0.1201 -0.2801
 4052TIP3    H133791   3.813   6.825   2.032 -0.8708 -0.1593 -3.4876
 4052TIP3    H233792   3.960   6.811   2.065 -1.8756 -0.7287  1.5462
 4053TIP3   OH233793   4.727   1.557   0.614  0.2051 -0.4520  0.1751
 4053TIP3    H133794   4.725   1.650   0.636 -0.3511 -0.5823  0.7222
 4053TIP3    H233795   4.801   1.547   0.554  1.3508  0.0591  1.4477
 4054TIP3   OH233796   6.505   4.984   7.945 -0.0967  0.7517 -0.2133
 4054TIP3    H133797   6.506   4.903   7.895  1.0606  0.4081  0.3298
 4054TIP3    H233798   6.489   4.956   8.035  2.7627  0.8045  0.4073
 4055TIP3   OH233799   2.145   3.189   2.338 -0.1627 -0.3017  0.3121
 4055TIP3    H133800   2.098   3.272   2.330 -0.1619 -0.0765  2.2995
 4055TIP3    H233801   2.076   3.123   2.342 -0.3282 -0.0552  2.2598
 4056TIP3   OH233802   6.833   2.895   0.996  0.8315  0.1382  0.8606
 4056TIP3    H133803   6.848   2.959   1.065  0.2874  1.5177 -0.2491
 4056TIP3    H233804   6.899   2.915   0.930 -0.5507  0.8566 -0.3615
 4057TIP3   OH233805   0.507   3.150   6.626  0.1094  0.1186  0.1312
 4057TIP3    H133806   0.583   3.102   6.659  0.0345  0.5540  0.9754
 4057TIP3    H233807   0.510   3.139   6.531  0.2057 -1.3780  0.2947
 4058TIP3   OH233808   1.559   5.868   0.605  0.5396  0.1328 -0.2682
 4058TIP3    H133809   1.582   5.906   0.690  0.8198  0.1308 -0.3426
 4058TIP3    H233810   1.484   5.811   0.624  0.7189 -0.0136  0.0114
 4059TIP3   OH233811   2.230   5.710   0.032 -0.0428 -0.3342  0.6246
 4059TIP3    H133812   2.212   5.647   0.102 -1.7936  1.1315  1.5938
 4059TIP3    H233813   2.221   5.659  -0.049 -4.1194 -0.9695  1.2294
 4060TIP3   OH233814   6.599   3.213   8.547  0.4883 -0.2741  0.4804
 4060TIP3    H133815   6.507   3.236   8.555  0.4032 -0.4597  0.0645
 4060TIP3    H233816   6.625   3.246   8.461  0.0063 -2.8445 -0.7366
 4061TIP3   OH233817   4.012   5.559   7.273  0.1477  0.4245  0.0926
 4061TIP3    H133818   4.097   5.594   7.246 -0.4445  1.4029 -0.5595
 4061TIP3    H233819   3.960   5.636   7.295 -0.9627 -0.0828 -0.6828
 4062TIP3   OH233820   2.106   5.078   0.764 -0.3125  0.3628  0.5263
 4062TIP3    H133821   2.074   5.096   0.852  0.4104  1.3590  0.6138
 4062TIP3    H233822   2.150   4.993   0.771 -0.2769  0.4261  1.1187
 4063TIP3   OH233823   5.304   6.379   7.851  0.1192  0.3599 -1.0559
 4063TIP3    H133824   5.246   6.421   7.787 -0.6833  0.3522 -0.3494
 4063TIP3    H233825   5.320   6.447   7.917 -1.1131 -0.3858  0.0504
 4064TIP3   OH233826   5.486   6.403   6.664 -0.6535 -0.4379 -0.7881
 4064TIP3    H133827   5.498   6.438   6.752 -2.4813  0.6732 -0.9130
 4064TIP3    H233828   5.574   6.383   6.633 -0.0595 -3.2467  2.1686
 4065TIP3   OH233829   3.513   0.508   0.052  0.8516 -0.0038  0.4625
 4065TIP3    H133830   3.481   0.492  -0.037  2.0384 -0.9279  0.1824
 4065TIP3    H233831   3.581   0.575   0.041  1.3275 -0.4594  0.6021
 4066TIP3   OH233832   0.736   5.651   1.994 -0.6501 -0.0611  0.1324
 4066TIP3    H133833   0.644   5.663   2.017 -0.6697  2.2395 -0.8998
 4066TIP3    H233834   0.766   5.581   2.052 -3.3280 -1.7770 -0.3644
 4067TIP3   OH233835   1.503   0.395   0.773 -0.2392 -0.2170 -0.0656
 4067TIP3    H133836   1.582   0.365   0.728  0.3437  1.4640 -0.2321
 4067TIP3    H233837   1.499   0.489   0.755 -0.2522  0.4615  2.9481
 4068TIP3   OH233838   3.760   3.774   1.427  0.3602 -0.1421 -0.6247
 4068TIP3    H133839   3.719   3.821   1.355  0.2858  1.5843  0.5082
 4068TIP3    H233840   3.738   3.824   1.505  2.2761 -0.7215  0.3552
 4069TIP3   OH233841   3.718   4.056   6.309  0.0479 -0.0471  0.4605
 4069TIP3    H133842   3.756   4.030   6.225 -0.5090 -1.7354  0.6788
 4069TIP3    H233843   3.792   4.088   6.360  0.4914  0.4481 -0.4619
 4070TIP3   OH233844   3.862   3.938   8.047 -0.3736 -0.4769 -0.3632
 4070TIP3    H133845   3.826   3.995   7.979 -0.7146 -0.6701 -0.3468
 4070TIP3    H233846   3.916   3.875   8.000 -0.0120 -0.1523 -0.3839
 4071TIP3   OH233847   1.221   2.530   6.676  0.1068  0.2502 -0.2001
 4071TIP3    H133848   1.209   2.474   6.600  1.7854 -0.5591  0.0827
 4071TIP3    H233849   1.162   2.494   6.742  0.4438 -0.5890 -0.3422
 4072TIP3   OH233850   6.738   4.558   0.861  0.0701  0.2145 -0.3549
 4072TIP3    H133851   6.709   4.622   0.925 -0.7766  0.0381 -0.5451
 4072TIP3    H233852   6.743   4.475   0.909  1.1257  0.4025 -0.1183
 4073TIP3   OH233853   1.332   6.691   0.055  0.0955 -0.3354 -0.0147
 4073TIP3    H133854   1.268   6.751   0.017  0.2534  0.5425  1.0657
 4073TIP3    H233855   1.416   6.720   0.020  0.0573 -0.6796 -0.4096
 4074TIP3   OH233856   5.576   1.397   7.654 -0.1710 -0.0618 -0.3203
 4074TIP3    H133857   5.580   1.308   7.690 -0.7515 -0.1241 -0.4003
 4074TIP3    H233858   5.615   1.389   7.567  0.7110 -0.0276  0.0617
 4075TIP3   OH233859   6.315   2.733   7.581 -0.4303  0.5040 -0.2091
 4075TIP3    H133860   6.366   2.800   7.534  0.2784 -0.2621 -0.5460
 4075TIP3    H233861   6.285   2.674   7.512 -0.6692  0.2109  0.1446
 4076TIP3   OH233862   4.053   6.814   1.773  0.2518  0.3063 -0.5826
 4076TIP3    H133863   3.991   6.836   1.843  0.3342  2.7802 -1.2191
 4076TIP3    H233864   4.124   6.877   1.782  0.0557  0.9987 -3.1234
 4077TIP3   OH233865   6.357   2.542   0.004  0.2968 -0.6871  0.4018
 4077TIP3    H133866   6.440   2.589   0.010  0.2986 -0.7303  0.7492
 4077TIP3    H233867   6.313   2.580  -0.072  1.6566 -2.2929 -1.2897
 4078TIP3   OH233868   1.472   3.080   2.180  0.3505 -0.4896  0.4713
 4078TIP3    H133869   1.378   3.069   2.163  0.6545 -1.6718 -0.5008
 4078TIP3    H233870   1.479   3.171   2.211 -1.0513 -0.2357  0.1375
 4079TIP3   OH233871   2.565   6.319   7.103  0.2193 -0.5415 -0.4460
 4079TIP3    H133872   2.482   6.275   7.086 -0.7437  1.5369 -1.5473
 4079TIP3    H233873   2.615   6.257   7.156 -2.5337 -1.4014  1.3828
 4080TIP3   OH233874   6.375   6.591   1.305 -0.3120 -0.3629 -0.1828
 4080TIP3    H133875   6.380   6.560   1.396 -0.9739 -1.0537 -0.3733
 4080TIP3    H233876   6.283   6.618   1.295  0.3629  2.4679  0.2163
 4081TIP3   OH233877   5.872   4.249   0.870  0.2593 -0.0075  0.2657
 4081TIP3    H133878   5.933   4.190   0.914 -0.1612 -0.5482  0.1279
 4081TIP3    H233879   5.842   4.201   0.793 -0.2212  0.3144  0.2446
 4082TIP3   OH233880   4.457   0.853   6.435  0.2529  0.1588  0.3889
 4082TIP3    H133881   4.506   0.772   6.447 -0.6230 -0.5161 -0.3981
 4082TIP3    H233882   4.430   0.851   6.343  1.4820  2.0871 -0.0492
 4083TIP3   OH233883   6.696   6.861   0.400  0.0959  0.4090  0.3053
 4083TIP3    H133884   6.628   6.844   0.465 -0.4541 -2.3059 -0.8323
 4083TIP3    H233885   6.778   6.859   0.449 -0.3438 -1.1070  1.0248
 4084TIP3   OH233886   4.492   5.363   1.562  0.0259  0.3833  1.4323
 4084TIP3    H133887   4.514   5.332   1.649 -1.8955  1.8339  2.5080
 4084TIP3    H233888   4.516   5.456   1.563  1.5900  0.0568 -0.2147
 4085TIP3   OH233889   6.091   6.256   7.399  0.8618 -0.5158  0.8787
 4085TIP3    H133890   6.046   6.202   7.335 -3.3703  0.6255  2.5729
 4085TIP3    H233891   6.089   6.345   7.362  0.6949 -0.2675  1.4732
 4086TIP3   OH233892   5.950   4.539   0.898 -0.4738 -0.1707 -0.2176
 4086TIP3    H133893   5.943   4.448   0.870 -1.2529 -0.6118  1.2906
 4086TIP3    H233894   6.038   4.566   0.871 -0.1957 -1.3922 -0.5872
 4087TIP3   OH233895   1.930   5.205   6.326 -0.0460  0.2422  0.6637
 4087TIP3    H133896   1.980   5.142   6.274 -1.7679  1.2561 -2.5144
 4087TIP3    H233897   1.840   5.195   6.296 -0.8142  2.3872  2.0021
 4088TIP3   OH233898   3.129   2.431   1.137 -0.4811  0.6694 -0.8488
 4088TIP3    H133899   3.162   2.514   1.172 -0.0255 -0.6065  2.0739
 4088TIP3    H233900   3.202   2.394   1.087  0.7733  0.2762  1.1714
 4089TIP3   OH233901   6.096   5.562   6.277  0.6711  0.1672  0.5601
 4089TIP3    H133902   6.104   5.657   6.268  2.1701  0.1243  1.1464
 4089TIP3    H233903   6.168   5.527   6.225  0.7578 -0.5996  1.1762
 4090TIP3   OH233904   2.445   6.877   8.247  0.1945 -0.1334  0.5671
 4090TIP3    H133905   2.516   6.852   8.188 -0.0917  0.2808  0.0353
 4090TIP3    H233906   2.487   6.932   8.313  0.2739  0.6421 -0.1076
 4091TIP3   OH233907   4.996   3.436   2.416  0.6396 -0.5410 -0.6782
 4091TIP3    H133908   5.039   3.496   2.477  1.5919 -2.4936  0.6636
 4091TIP3    H233909   5.041   3.451   2.332  0.5678  0.8718 -0.4991
 4092TIP3   OH233910   0.568   2.847   8.353  0.8657  0.1220  0.0669
 4092TIP3    H133911   0.600   2.936   8.337  1.3724  0.1022  0.9592
 4092TIP3    H233912   0.485   2.860   8.399  0.1802  0.1457 -1.1244
 4093TIP3   OH233913   6.139   2.093   1.555 -0.4244 -0.0010 -0.0005
 4093TIP3    H133914   6.129   2.107   1.649  1.2773  1.7765 -0.0047
 4093TIP3    H233915   6.162   2.001   1.546  0.1513 -0.0161  1.4190
 4094TIP3   OH233916   3.009   3.421   7.599  0.0265  0.2682 -0.1649
 4094TIP3    H133917   2.999   3.512   7.573  0.0810  0.2471 -0.2616
 4094TIP3    H233918   3.104   3.407   7.600  0.0014  0.0037 -0.8894
 4095TIP3   OH233919   6.045   0.471   6.875  0.2849 -0.1366 -0.3535
 4095TIP3    H133920   6.088   0.441   6.794 -0.3564  0.3245 -0.8794
 4095TIP3    H233921   6.103   0.441   6.945  0.5965 -0.9898 -0.9566
 4096TIP3   OH233922   3.522   3.520   0.242  0.2124 -0.3832 -0.1867
 4096TIP3    H133923   3.432   3.526   0.211 -0.1717 -0.4882  0.8770
 4096TIP3    H233924   3.563   3.454   0.186  0.1343  0.8598 -1.8029
 4097TIP3   OH233925   0.119   4.208   1.247 -0.5811  0.1469 -0.7746
 4097TIP3    H133926   0.039   4.161   1.268 -0.7645  0.0343 -1.6951
 4097TIP3    H233927   0.089   4.292   1.213 -0.2642  1.8896  2.7340
 4098TIP3   OH233928   2.794   1.930   7.726 -0.1732 -0.0527 -0.2290
 4098TIP3    H133929   2.721   1.873   7.752  0.2810 -0.9768 -0.9372
 4098TIP3    H233930   2.753   2.000   7.676 -0.5984 -0.4563 -0.4536
 4099TIP3   OH233931   0.540   1.746   1.125 -0.0608 -0.0696 -0.3891
 4099TIP3    H133932   0.510   1.797   1.050 -0.4748  0.4470  0.1165
 4099TIP3    H233933   0.485   1.776   1.198  1.6037  0.8489  0.5546
 4100TIP3   OH233934   4.152   6.195   0.455 -0.2484 -0.3921 -0.3214
 4100TIP3    H133935   4.185   6.148   0.378 -1.8263 -0.8713 -0.7611
 4100TIP3    H233936   4.082   6.251   0.420 -2.1415 -1.8369  0.9046
 4101TIP3   OH233937   6.631   6.681   0.763  0.2456 -0.2625 -0.1414
 4101TIP3    H133938   6.598   6.754   0.709 -0.1267 -0.3321 -0.0091
 4101TIP3    H233939   6.584   6.605   0.731  1.2877 -0.6135 -0.8931
 4102TIP3   OH233940   1.083   5.310   6.889  0.4645 -0.4148 -0.1610
 4102TIP3    H133941   1.066   5.301   6.795 -1.7975  2.5226 -0.1742
 4102TIP3    H233942   1.014   5.257   6.930  2.0470 -2.5150 -0.0457
 4103TIP3   OH233943   6.061   5.635   0.832  0.1165  0.0190  0.7666
 4103TIP3    H133944   6.041   5.553   0.878  0.0180 -0.0886  0.5372
 4103TIP3    H233945   6.128   5.677   0.885  0.9506 -0.7214  0.3190
 4104TIP3   OH233946   6.085   2.041   7.909  0.3510 -0.8093 -0.0474
 4104TIP3    H133947   6.121   1.954   7.893  0.2424 -0.6949 -0.9799
 4104TIP3    H233948   6.030   2.059   7.832 -0.1425 -0.1844  0.4370
 4105TIP3   OH233949   1.389   6.087   0.028 -0.4561  0.1664  0.0169
 4105TIP3    H133950   1.482   6.103   0.042 -0.0333 -0.8108 -1.4397
 4105TIP3    H233951   1.368   6.015   0.087  0.2357 -0.9515 -1.0325
 4106TIP3   OH233952   6.144   0.964   7.332 -0.0657 -0.2611 -0.4350
 4106TIP3    H133953   6.050   0.967   7.346  0.0056 -2.2718  0.8715
 4106TIP3    H233954   6.158   0.887   7.277  0.8828 -0.5831  0.2281
 4107TIP3   OH233955   4.501   0.982   1.003  0.3779 -0.2082 -0.2722
 4107TIP3    H133956   4.475   1.007   0.914  1.9362 -1.5295 -1.1617
 4107TIP3    H233957   4.558   0.906   0.990  3.2644  1.4717  1.6213
 4108TIP3   OH233958   3.008   3.577   1.073  0.3869 -0.0020 -0.0508
 4108TIP3    H133959   3.085   3.629   1.094 -0.1025  0.3833  0.8786
 4108TIP3    H233960   3.003   3.513   1.144  2.3355 -2.9939 -2.3349
 4109TIP3   OH233961   2.214   1.077   8.609 -0.1374  0.3726 -0.1751
 4109TIP3    H133962   2.156   1.002   8.618 -1.2121  1.1105 -0.7042
 4109TIP3    H233963   2.209   1.100   8.516  0.3173  0.9798 -0.0538
 4110TIP3   OH233964   4.547   0.505   8.279 -0.8255  0.0754 -0.1807
 4110TIP3    H133965   4.556   0.553   8.361 -0.6437  0.5803 -0.4933
 4110TIP3    H233966   4.453   0.508   8.260 -0.7234  0.9000 -0.5535
 4111TIP3   OH233967   5.029   1.434   2.385 -0.1062  0.0729  0.1609
 4111TIP3    H133968   5.026   1.344   2.417  0.0624 -0.1472 -0.4137
 4111TIP3    H233969   5.021   1.489   2.463  2.4173 -0.4159  0.8446
 4112TIP3   OH233970   1.653   3.358   2.130 -0.4636 -0.0846 -0.3618
 4112TIP3    H133971   1.720   3.425   2.119 -0.1856 -0.1324  0.8632
 4112TIP3    H233972   1.604   3.385   2.208  0.1585 -1.6717  0.6334
 4113TIP3   OH233973   6.108   4.393   7.369 -0.2294 -0.0318  0.2606
 4113TIP3    H133974   6.133   4.304   7.345  1.4901 -0.0054  1.7378
 4113TIP3    H233975   6.080   4.386   7.460 -2.6143  0.5518 -0.3453
 4114TIP3   OH233976   5.994   0.521   1.420 -0.1060 -0.6818 -0.4615
 4114TIP3    H133977   5.987   0.615   1.436  0.0516 -0.6224 -0.7288
 4114TIP3    H233978   5.969   0.481   1.503  0.0936 -0.3977 -0.2604
 4115TIP3   OH233979   3.848   4.172   1.319 -0.1030  0.0714 -0.0764
 4115TIP3    H133980   3.898   4.166   1.237 -0.6792 -1.0688 -0.3623
 4115TIP3    H233981   3.915   4.175   1.388  0.3741  0.3353 -0.5412
 4116TIP3   OH233982   4.588   6.757   7.771 -0.1725  0.1560  0.7606
 4116TIP3    H133983   4.524   6.804   7.718 -0.8280 -0.9846  0.4911
 4116TIP3    H233984   4.631   6.697   7.710 -1.8777 -2.1555  1.6574
 4117TIP3   OH233985   3.217   2.632   8.075  0.2970 -0.3148 -0.5123
 4117TIP3    H133986   3.195   2.653   7.985 -0.7074 -0.6564 -0.3630
 4117TIP3    H233987   3.231   2.717   8.117 -0.2653 -0.1060 -0.7437
 4118TIP3   OH233988   3.920   2.382   6.290 -0.1741 -0.3821  0.0767
 4118TIP3    H133989   3.907   2.476   6.283  1.6053 -0.0631  0.4355
 4118TIP3    H233990   3.858   2.353   6.357 -1.4847  0.3285 -0.7976
 4119TIP3   OH233991   4.862   4.987   0.909  0.3419  0.1352  0.1195
 4119TIP3    H133992   4.925   5.023   0.971  0.0536  1.3012 -0.2430
 4119TIP3    H233993   4.897   5.012   0.823 -1.0862  1.6608 -0.0676
 4120TIP3   OH233994   2.444   5.563   1.911  0.0620 -0.1844 -0.1518
 4120TIP3    H133995   2.451   5.625   1.984  1.9709 -0.5329  0.0118
 4120TIP3    H233996   2.489   5.606   1.838 -1.0867 -0.2049 -0.9073
 4121TIP3   OH233997   5.189   0.890   0.027 -0.5869 -0.6765  0.5453
 4121TIP3    H133998   5.109   0.937   0.052 -1.7926 -2.8070  0.9644
 4121TIP3    H233999   5.170   0.857  -0.061  0.3788 -0.1086  0.1120
 4122TIP3   OH234000   5.321   4.299   7.499  0.2184 -0.0906 -0.4017
 4122TIP3    H134001   5.361   4.216   7.526 -1.6179 -1.2755 -1.0841
 4122TIP3    H234002   5.310   4.290   7.404  0.7574  1.3019 -0.6107
 4123TIP3   OH234003   5.688   3.502   0.238 -0.0938  0.5067 -0.3889
 4123TIP3    H134004   5.758   3.493   0.174  0.1905  1.6774 -0.2681
 4123TIP3    H234005   5.702   3.430   0.300 -0.5020 -0.7787 -1.7197
 4124TIP3   OH234006   6.419   4.219   0.303 -0.1337  0.1635 -0.1339
 4124TIP3    H134007   6.468   4.300   0.292 -0.0322 -0.0104 -1.0398
 4124TIP3    H234008   6.335   4.246   0.340  0.5339  0.4915  1.2368
 4125TIP3   OH234009   5.138   1.321   1.496 -0.4474 -0.0775 -0.0288
 4125TIP3    H134010   5.099   1.298   1.412 -0.5242 -0.7609  0.1887
 4125TIP3    H234011   5.206   1.256   1.510 -0.0027  0.4203  0.1401
 4126TIP3   OH234012   2.812   4.186   1.371  0.2541 -0.4863  0.7123
 4126TIP3    H134013   2.759   4.265   1.364 -0.5136 -0.9818  0.9025
 4126TIP3    H234014   2.749   4.115   1.383  0.9376 -1.1257  0.5944
 4127TIP3   OH234015   2.970   0.462   7.034  0.3086  0.2303 -0.2118
 4127TIP3    H134016   2.967   0.512   6.952 -0.2760  0.5875  0.0252
 4127TIP3    H234017   2.990   0.372   7.006 -0.4174  0.2410 -0.7951
 4128TIP3   OH234018   6.157   4.379   6.585 -0.2615  0.3148  0.2416
 4128TIP3    H134019   6.223   4.421   6.640 -0.5738 -0.0370  0.8940
 4128TIP3    H234020   6.074   4.404   6.624 -0.4943  0.1718 -0.1570
 4129TIP3   OH234021   2.947   3.817   7.271  0.3677 -0.1273  0.0967
 4129TIP3    H134022   2.867   3.854   7.308  0.2155 -1.2545  0.9604
 4129TIP3    H234023   2.942   3.838   7.177 -0.2526  0.9987  0.3651
 4130TIP3   OH234024   4.782   1.584   7.223 -0.0397 -0.8481  0.6520
 4130TIP3    H134025   4.852   1.642   7.194  0.2298 -1.4080  0.1624
 4130TIP3    H234026   4.826   1.514   7.271 -0.0674 -2.1031 -1.0746
 4131TIP3   OH234027   4.299   5.043   0.409 -0.3346 -0.2283 -0.5056
 4131TIP3    H134028   4.372   5.040   0.347  0.2057 -0.1798  0.1153
 4131TIP3    H234029   4.239   4.975   0.379  0.4162 -0.9164 -0.4927
 4132TIP3   OH234030   6.839   3.188   1.477  0.4981  0.0304  0.2295
 4132TIP3    H134031   6.757   3.173   1.524 -1.5522  1.1334 -2.6242
 4132TIP3    H234032   6.905   3.142   1.527 -1.8432 -0.8527  2.7589
 4133TIP3   OH234033   5.798   2.303   0.380  0.1219 -0.1104 -0.1616
 4133TIP3    H134034   5.821   2.216   0.347 -0.6867 -0.5856  0.5023
 4133TIP3    H234035   5.883   2.345   0.396  0.5267 -0.6140 -0.8871
 4134TIP3   OH234036   4.084   6.036   2.120  0.5399 -0.1018  0.2769
 4134TIP3    H134037   4.084   5.941   2.133  1.1185  0.1075  1.9937
 4134TIP3    H234038   4.144   6.050   2.047  3.8845 -0.8072  2.6569
 4135TIP3   OH234039   6.511   4.663   6.947  0.1914  0.6601 -0.1291
 4135TIP3    H134040   6.415   4.672   6.949  0.0088 -0.0601 -2.4416
 4135TIP3    H234041   6.530   4.633   6.858  2.1422 -4.2210  1.6190
 4136TIP3   OH234042   0.621   0.585   7.615 -0.2583  0.4257 -0.1121
 4136TIP3    H134043   0.601   0.566   7.523  0.1984  1.5212 -0.4426
 4136TIP3    H234044   0.599   0.677   7.626  0.8522  0.6168  0.5651
 4137TIP3   OH234045   1.497   5.823   7.033 -0.2930  0.4679 -0.3723
 4137TIP3    H134046   1.498   5.913   7.065  0.2607 -0.8360  4.0185
 4137TIP3    H234047   1.565   5.821   6.965  0.8530  3.0159  0.5656
 4138TIP3   OH234048   3.155   1.362   8.485 -0.2796  0.4333  0.2653
 4138TIP3    H134049   3.129   1.282   8.532  2.3646 -0.7705 -0.1321
 4138TIP3    H234050   3.185   1.421   8.553  0.1242  0.0991  0.3824
 4139TIP3   OH234051   4.373   5.837   1.208 -0.6955  0.1235 -0.1158
 4139TIP3    H134052   4.445   5.801   1.260  0.3255 -0.3719 -1.7995
 4139TIP3    H234053   4.408   5.920   1.174 -0.2117 -0.9045 -2.3195
 4140TIP3   OH234054   5.407   6.685   0.372 -0.2191  0.2349  0.3180
 4140TIP3    H134055   5.489   6.731   0.355 -0.5302  0.1546 -1.5358
 4140TIP3    H234056   5.413   6.605   0.320 -0.6775 -0.7391  1.6846
 4141TIP3   OH234057   6.581   2.310   0.829  0.4357  0.5825 -0.6822
 4141TIP3    H134058   6.514   2.343   0.889 -0.4527  1.2581 -1.9927
 4141TIP3    H234059   6.655   2.288   0.886 -0.3661  1.1768  0.6541
 4142TIP3   OH234060   0.850   1.174   8.650 -0.0236 -0.1518 -0.7444
 4142TIP3    H134061   0.920   1.220   8.695 -0.7250 -0.3060  0.5358
 4142TIP3    H234062   0.792   1.144   8.719 -1.6513  0.4244 -1.7962
 4143TIP3   OH234063   3.933   1.523   7.619 -0.5022  0.3269  0.1517
 4143TIP3    H134064   3.962   1.470   7.546 -1.3736 -2.1223  1.4711
 4143TIP3    H234065   4.003   1.516   7.684 -1.3840 -0.7477  1.0295
 4144TIP3   OH234066   4.322   2.997   2.085 -0.1911  0.4428 -0.1412
 4144TIP3    H134067   4.354   3.084   2.108  1.6091 -0.3807  0.6245
 4144TIP3    H234068   4.367   2.937   2.145  0.2767 -1.2251 -2.0256
 4145TIP3   OH234069   0.242   5.453   7.457 -0.0899 -0.0117  0.2314
 4145TIP3    H134070   0.274   5.414   7.375 -0.2134  0.4047 -0.0202
 4145TIP3    H234071   0.276   5.396   7.526  0.6254  0.0441 -0.0652
 4146TIP3   OH234072   4.901   5.664   6.396  0.3724  0.2544  0.3186
 4146TIP3    H134073   4.881   5.742   6.449  0.2766  0.4264  0.0278
 4146TIP3    H234074   4.832   5.602   6.417  0.1830  0.4228  0.1899
 4147TIP3   OH234075   5.807   4.043   7.314 -0.1699  0.1516  0.1725
 4147TIP3    H134076   5.899   4.018   7.320 -0.7478 -2.3171 -0.1130
 4147TIP3    H234077   5.790   4.093   7.395  1.1514 -0.2505  0.7176
 4148TIP3   OH234078   3.099   2.997   8.503  0.0325  0.3542 -0.4989
 4148TIP3    H134079   3.124   2.930   8.567  0.0634  2.2522  1.6002
 4148TIP3    H234080   3.005   2.983   8.488 -0.2159  0.5520  0.8171
 4149TIP3   OH234081   3.932   0.345   7.417 -0.5772 -0.4371 -0.0937
 4149TIP3    H134082   3.881   0.346   7.337 -0.0550 -0.2978 -0.4329
 4149TIP3    H234083   4.020   0.318   7.389 -0.2881  0.0045  0.3618
 4150TIP3   OH234084   5.116   5.598   1.014 -0.3872  0.0333  0.0100
 4150TIP3    H134085   5.166   5.541   0.956  0.0589 -0.9116  1.2677
 4150TIP3    H234086   5.173   5.609   1.090 -0.6061  1.8987 -0.0438
 4151TIP3   OH234087   5.027   3.078   8.536 -0.7509  0.2719 -0.3890
 4151TIP3    H134088   5.053   3.068   8.627 -3.2579  0.0418  0.3651
 4151TIP3    H234089   5.052   2.995   8.495  2.2384  1.1079 -0.5032
 4152TIP3   OH234090   2.578   4.841   7.380  0.1140 -0.1255  0.1948
 4152TIP3    H134091   2.630   4.914   7.348  0.0743 -0.3016 -0.2809
 4152TIP3    H234092   2.526   4.878   7.452  0.4893  0.1799  0.3093
 4153TIP3   OH234093   0.126   3.735   7.113  0.0738  0.8067  0.1493
 4153TIP3    H134094   0.095   3.826   7.107 -0.6245  0.5638 -0.0477
 4153TIP3    H234095   0.047   3.682   7.098 -0.1609  0.1549  3.0336
 4154TIP3   OH234096   6.292   2.920   7.941 -0.5243  0.1983 -0.1051
 4154TIP3    H134097   6.269   2.935   7.849  1.1668 -0.2980 -0.6485
 4154TIP3    H234098   6.209   2.895   7.983 -1.1080 -0.8748 -1.7905
 4155TIP3   OH234099   5.615   4.096   1.635 -0.3334 -0.0614 -0.3810
 4155TIP3    H134100   5.596   4.025   1.573 -3.0722  0.6315 -0.4657
 4155TIP3    H234101   5.656   4.052   1.710  0.4497 -1.3195 -1.4942
 4156TIP3   OH234102   5.865   1.757   7.751 -0.4491  0.4736 -0.2919
 4156TIP3    H134103   5.930   1.692   7.777 -1.3082 -0.3919 -0.2155
 4156TIP3    H234104   5.870   1.759   7.656  0.3221  1.0966 -0.2438
 4157TIP3   OH234105   1.938   2.114   7.309 -0.1999 -0.2024 -0.0446
 4157TIP3    H134106   1.989   2.185   7.349  0.2227 -0.6911  0.2976
 4157TIP3    H234107   1.950   2.040   7.368 -2.1274 -0.0631  0.5905
 4158TIP3   OH234108   2.474   4.769   0.306 -0.6392  0.0188  0.1680
 4158TIP3    H134109   2.492   4.862   0.315 -0.9298 -0.0533  1.8325
 4158TIP3    H234110   2.384   4.765   0.272 -0.7648  0.3420  0.4637
 4159TIP3   OH234111   0.066   6.041   0.921 -0.1017  0.0269 -0.3412
 4159TIP3    H134112   0.112   6.069   0.842  0.7767 -1.1018 -0.2523
 4159TIP3    H234113   0.069   6.116   0.979  1.2787  0.1189 -0.5018
 4160TIP3   OH234114   5.680   5.105   8.339 -0.3137 -0.1632  0.1201
 4160TIP3    H134115   5.761   5.150   8.363  0.1012 -0.4176 -0.7563
 4160TIP3    H234116   5.653   5.146   8.256 -1.1631  0.0128  0.4723
 4161TIP3   OH234117   1.349   1.597   6.965 -0.0556 -0.6242 -0.0622
 4161TIP3    H134118   1.411   1.670   6.972  0.2724 -0.9779  0.8754
 4161TIP3    H234119   1.360   1.565   6.875  0.1256  0.1908 -0.3366
 4162TIP3   OH234120   4.655   4.477   7.366 -0.0649 -0.1655 -0.5201
 4162TIP3    H134121   4.574   4.520   7.391  0.2786 -0.5979  1.5586
 4162TIP3    H234122   4.710   4.547   7.331 -0.5107  0.5829  0.2287
 4163TIP3   OH234123   2.660   2.808   6.703  0.4251  0.3086 -0.1136
 4163TIP3    H134124   2.755   2.815   6.710  0.6772 -0.7882 -1.7434
 4163TIP3    H234125   2.631   2.896   6.678  0.9137  0.7865  0.9134
 4164TIP3   OH234126   1.344   5.863   6.780  0.2604  0.5922 -0.2419
 4164TIP3    H134127   1.338   5.841   6.688 -2.1609 -0.6816  0.1546
 4164TIP3    H234128   1.389   5.948   6.782  1.3815  0.1150 -2.4605
 4165TIP3   OH234129   5.218   5.135   1.378 -0.3979  0.1462 -0.0108
 4165TIP3    H134130   5.213   5.210   1.318 -0.8403  0.2579  0.1608
 4165TIP3    H234131   5.194   5.171   1.463 -0.3653 -0.1402  0.1204
 4166TIP3   OH234132   3.406   5.408   0.049  0.0361 -0.2929 -0.6654
 4166TIP3    H134133   3.396   5.323   0.091 -0.2672  0.8418  1.7181
 4166TIP3    H234134   3.494   5.437   0.073 -0.5171  0.8187  0.1343
 4167TIP3   OH234135   2.746   2.176   0.381 -0.1322  0.9122 -0.0087
 4167TIP3    H134136   2.742   2.260   0.427  0.9432  0.3604  1.1807
 4167TIP3    H234137   2.815   2.189   0.315 -0.2581  1.0909 -0.1065
 4168TIP3   OH234138   5.395   1.754   0.522  0.3506 -0.4188 -0.0434
 4168TIP3    H134139   5.340   1.832   0.532 -1.7997 -1.6809 -1.2310
 4168TIP3    H234140   5.418   1.753   0.429  1.0430 -0.7550  0.1298
 4169TIP3   OH234141   1.025   2.593   1.482 -0.2784  0.0442 -0.0392
 4169TIP3    H134142   1.050   2.661   1.545 -2.1210  1.4940 -0.7697
 4169TIP3    H234143   1.043   2.632   1.396  0.5095 -1.2013 -0.4696
 4170TIP3   OH234144   0.049   1.169   0.986 -0.0232 -0.2887  0.1666
 4170TIP3    H134145   0.032   1.085   0.943 -0.8066 -0.5262  0.9208
 4170TIP3    H234146   0.035   1.234   0.917  2.0967 -0.8057 -0.8700
 4171TIP3   OH234147   3.667   1.687   2.299  0.2799 -0.8947  0.8290
 4171TIP3    H134148   3.743   1.643   2.261 -0.8415 -2.1240 -0.0991
 4171TIP3    H234149   3.678   1.779   2.275 -0.3247 -1.5712 -2.6030
 4172TIP3   OH234150   1.102   2.739   0.238  0.4581 -0.3098  0.6931
 4172TIP3    H134151   1.066   2.721   0.151 -2.0650  1.8847  1.1593
 4172TIP3    H234152   1.183   2.687   0.242 -0.1820 -1.7351 -2.3070
 4173TIP3   OH234153   4.343   0.553   6.629  0.3618  0.0894 -0.1730
 4173TIP3    H134154   4.380   0.529   6.544 -0.6896 -1.9873 -0.1279
 4173TIP3    H234155   4.259   0.506   6.633 -0.9228  2.3201  0.8980
 4174TIP3   OH234156   5.969   2.547   8.519 -0.2830 -0.0809 -0.4470
 4174TIP3    H134157   5.960   2.473   8.578 -0.6818  0.6712  0.4652
 4174TIP3    H234158   5.900   2.535   8.454 -1.7122  0.5496  0.8881
 4175TIP3   OH234159   4.208   5.645   1.098  0.1417  0.1004  0.4647
 4175TIP3    H134160   4.270   5.717   1.117  1.4087 -0.9123  0.3294
 4175TIP3    H234161   4.166   5.671   1.016 -1.3617  1.9054  1.7058
 4176TIP3   OH234162   0.022   3.562   6.876  0.4719  0.9488 -0.0578
 4176TIP3    H134163   0.046   3.558   6.784 -1.2731 -2.3438 -0.5224
 4176TIP3    H234164  -0.074   3.569   6.875  0.2364 -1.1561  1.3928
 4177TIP3   OH234165   1.524   4.060   0.483  0.6924  0.2122  0.3042
 4177TIP3    H134166   1.608   4.068   0.529 -0.2834  0.6703  2.0925
 4177TIP3    H234167   1.484   4.146   0.491 -0.3361 -0.2480  0.2367
 4178TIP3   OH234168   4.384   2.479   7.753  0.1357  0.8855  0.1091
 4178TIP3    H134169   4.332   2.514   7.825 -1.0864 -1.1483  0.3008
 4178TIP3    H234170   4.323   2.424   7.703  1.7548 -0.5250 -0.4454
 4179TIP3   OH234171   5.602   2.883   0.460 -0.6906  0.4033 -0.3764
 4179TIP3    H134172   5.663   2.915   0.526  0.1659 -1.8158 -0.0223
 4179TIP3    H234173   5.577   2.795   0.489 -3.1930  0.7664 -1.1206
 4180TIP3   OH234174   1.210   6.355   7.738 -0.5992 -0.0109 -0.3135
 4180TIP3    H134175   1.206   6.304   7.657 -3.1903 -1.5451  0.6492
 4180TIP3    H234176   1.199   6.446   7.710 -2.7404 -0.6150 -1.6598
 4181TIP3   OH234177   6.397   0.304   6.246  0.2639 -0.0615 -0.0224
 4181TIP3    H134178   6.314   0.350   6.239  0.8491  0.9060 -0.8366
 4181TIP3    H234179   6.379   0.231   6.306 -1.2975 -0.1872 -0.5993
 4182TIP3   OH234180   2.116   3.815   7.994 -0.1017 -0.6276 -0.0709
 4182TIP3    H134181   2.196   3.867   7.996 -0.2574 -0.3853 -0.0499
 4182TIP3    H234182   2.061   3.859   7.929  0.1663 -1.3650 -0.8197
 4183TIP3   OH234183   4.505   1.683   7.270 -0.0898  0.3361  0.8570
 4183TIP3    H134184   4.591   1.641   7.265 -0.2546 -0.5472  3.8603
 4183TIP3    H234185   4.450   1.631   7.211  0.4188 -1.9767  2.2806
 4184TIP3   OH234186   1.319   4.342   1.679  0.2772 -0.3106  0.2116
 4184TIP3    H134187   1.290   4.395   1.605 -0.2569  0.6204  1.0669
 4184TIP3    H234188   1.408   4.371   1.697 -0.0152  0.3139  0.6802
 4185TIP3   OH234189   5.150   5.578   8.288 -0.3568 -0.1513  0.2309
 4185TIP3    H134190   5.169   5.662   8.246 -1.2147 -0.9952 -2.0300
 4185TIP3    H234191   5.236   5.540   8.305  0.2134 -1.0397 -3.6578
 4186TIP3   OH234192   5.848   2.661   0.474  0.1480 -0.2722 -0.0427
 4186TIP3    H134193   5.769   2.644   0.525  0.3260 -0.5738  0.1337
 4186TIP3    H234194   5.817   2.674   0.384 -0.4392  2.6760  0.4967
 4187TIP3   OH234195   6.708   1.491   7.274  0.0107 -0.0831 -0.2297
 4187TIP3    H134196   6.728   1.581   7.246 -1.7087  1.0153  1.7877
 4187TIP3    H234197   6.644   1.459   7.210 -0.9755  0.9521  0.2043
 4188TIP3   OH234198   0.034   0.387   2.267  0.0280  0.2498 -0.2837
 4188TIP3    H134199   0.049   0.306   2.219 -0.1968  0.3896 -0.5952
 4188TIP3    H234200   0.084   0.377   2.348  1.6841  0.6385 -1.2076
 4189TIP3   OH234201   2.637   0.132   2.326 -0.0419 -1.3775  0.5184
 4189TIP3    H134202   2.703   0.070   2.297  0.9726 -0.6344  1.1697
 4189TIP3    H234203   2.667   0.217   2.293 -1.4331 -1.2063 -0.4133
 4190TIP3   OH234204   6.171   2.340   1.420  0.4986  0.1410  0.2842
 4190TIP3    H134205   6.264   2.361   1.414  0.2911  0.8497 -0.6786
 4190TIP3    H234206   6.169   2.254   1.462  1.5806  0.1632  0.4157
 4191TIP3   OH234207   6.638   3.098   0.687 -0.2774  0.0649 -0.0150
 4191TIP3    H134208   6.673   3.135   0.606  0.7976 -0.7316  0.0527
 4191TIP3    H234209   6.677   3.010   0.692 -1.0375 -0.2382  0.9120
 4192TIP3   OH234210   6.628   4.224   7.600  0.2535  0.5739  0.9639
 4192TIP3    H134211   6.579   4.253   7.677 -2.2609 -1.7946  0.4142
 4192TIP3    H234212   6.689   4.158   7.634 -1.9350 -1.6295  0.8645
 4193TIP3   OH234213   4.993   5.928   8.356 -0.5296  0.2618 -0.3232
 4193TIP3    H134214   5.040   5.909   8.437 -1.8873  0.0376  0.4437
 4193TIP3    H234215   5.048   5.893   8.287  0.6962  0.5234  0.4932
 4194TIP3   OH234216   4.866   2.363   7.060  0.1316 -0.2260 -0.2194
 4194TIP3    H134217   4.773   2.366   7.080  0.3215  1.1704  0.5928
 4194TIP3    H234218   4.878   2.281   7.011 -1.2963 -1.0380  0.7330
 4195TIP3   OH234219   6.228   5.979   8.074  0.1664 -0.8332 -0.4284
 4195TIP3    H134220   6.285   6.044   8.114  0.4302 -0.1840 -1.8061
 4195TIP3    H234221   6.277   5.947   7.998 -1.3024 -0.1996 -1.6887
 4196TIP3   OH234222   1.581   5.389   0.640 -0.1586 -0.0218 -0.2102
 4196TIP3    H134223   1.552   5.371   0.730 -1.0133 -1.1293 -0.6768
 4196TIP3    H234224   1.515   5.450   0.606 -1.8258 -2.1759 -1.1177
 4197TIP3   OH234225   3.382   2.617   7.667 -0.0389 -0.4837 -0.6897
 4197TIP3    H134226   3.386   2.555   7.594 -0.1078  0.0032 -1.1157
 4197TIP3    H234227   3.291   2.649   7.666  0.0379 -0.2625 -0.5687
 4198TIP3   OH234228   2.956   0.478   8.036 -0.4752  0.4026  0.7779
 4198TIP3    H134229   2.937   0.411   8.102 -1.4732 -0.0028  0.1043
 4198TIP3    H234230   2.879   0.477   7.978  0.8578 -0.0473 -1.0654
 4199TIP3   OH234231   6.107   6.244   1.085 -0.0160 -0.3749 -0.2891
 4199TIP3    H134232   6.027   6.293   1.068  0.4575  1.3215  1.8636
 4199TIP3    H234233   6.170   6.278   1.021 -0.3476  0.0870 -0.3717
 4200TIP3   OH234234   4.023   3.024   0.869  0.9202  0.8646  0.2761
 4200TIP3    H134235   4.015   2.928   0.868  1.3839  0.8276 -0.0780
 4200TIP3    H234236   4.114   3.040   0.847  1.3179  1.3319  2.0778
 4201TIP3   OH234237   5.902   5.681   2.263 -0.3902  0.1212  0.1870
 4201TIP3    H134238   5.937   5.664   2.351 -2.6126  0.4800  1.2362
 4201TIP3    H234239   5.957   5.630   2.204 -0.8884 -2.9845  2.1679
 4202TIP3   OH234240   0.228   3.992   7.288 -0.2010 -0.3863 -0.0374
 4202TIP3    H134241   0.247   4.011   7.196 -0.1480 -1.6245 -0.2969
 4202TIP3    H234242   0.139   3.959   7.289 -0.7937  1.1410  0.5933
 4203TIP3   OH234243   0.814   3.940   2.253 -0.2103  0.0067 -0.1117
 4203TIP3    H134244   0.900   3.898   2.257  0.8916  1.9800 -1.3840
 4203TIP3    H234245   0.817   4.008   2.320 -1.1349 -0.5075  0.4589
 4204TIP3   OH234246   5.536   1.866   7.195  0.1214 -0.0489 -0.3405
 4204TIP3    H134247   5.490   1.865   7.279 -0.4715 -2.3786 -0.6040
 4204TIP3    H234248   5.569   1.776   7.186  0.7647  0.3480 -2.2871
 4205TIP3   OH234249   1.017   2.855   7.956 -0.6030  0.1047 -0.2536
 4205TIP3    H134250   0.946   2.919   7.957 -2.0462 -1.4532 -0.0117
 4205TIP3    H234251   0.978   2.775   7.922  0.9870 -0.8591  0.0795
 4206TIP3   OH234252   1.646   6.207   7.333 -0.0968  0.1488 -0.1432
 4206TIP3    H134253   1.658   6.242   7.245  0.6647 -1.2519 -0.6215
 4206TIP3    H234254   1.604   6.122   7.320  1.1334 -0.6209  0.7591
 4207TIP3   OH234255   6.086   0.350   8.207 -0.3459 -0.2417 -0.2280
 4207TIP3    H134256   6.001   0.331   8.247  0.2392 -3.5266 -0.2028
 4207TIP3    H234257   6.102   0.442   8.226 -2.4416 -0.3197  2.5186
 4208TIP3   OH234258   4.679   4.912   6.831 -0.3066  0.2688  0.0447
 4208TIP3    H134259   4.694   4.946   6.742 -0.2793 -3.4557 -1.5612
 4208TIP3    H234260   4.620   4.838   6.818  0.8119 -1.2793  2.9450
 4209TIP3   OH234261   3.879   3.111   8.497  0.5120  0.3783  0.2055
 4209TIP3    H134262   3.823   3.173   8.449  1.1187 -0.7038 -2.0842
 4209TIP3    H234263   3.818   3.045   8.530  0.1459  0.7230  0.2302
 4210TIP3   OH234264   5.615   4.454   7.067 -0.8568 -0.5953  0.2412
 4210TIP3    H134265   5.582   4.487   6.983 -0.4560 -0.1440  0.2533
 4210TIP3    H234266   5.634   4.533   7.118  0.4951 -0.8221  0.1309
 4211TIP3   OH234267   5.728   0.238   2.088  0.0741 -0.1272  0.4020
 4211TIP3    H134268   5.642   0.279   2.096  0.0115  0.5096 -2.4310
 4211TIP3    H234269   5.782   0.305   2.047  1.3646 -1.2057  0.2938
 4212TIP3   OH234270   1.563   6.842   8.317  0.0100  0.4561 -0.5628
 4212TIP3    H134271   1.634   6.780   8.335  0.1919  0.4003 -1.4492
 4212TIP3    H234272   1.494   6.818   8.380 -0.2267 -1.1420 -1.3876
 4213TIP3   OH234273   5.921   4.018   0.492  0.0423 -0.7350 -0.1225
 4213TIP3    H134274   5.932   3.926   0.519  0.5232 -0.5763  0.2368
 4213TIP3    H234275   5.906   4.014   0.398  1.4574 -1.1088 -0.3669
 4214TIP3   OH234276   5.642   0.496   0.027 -0.2689 -0.0484  0.5635
 4214TIP3    H134277   5.549   0.511   0.044 -0.4930 -2.6590  2.2099
 4214TIP3    H234278   5.642   0.435  -0.047  0.0124 -1.2783  1.5458
 4215TIP3   OH234279   3.892   6.380   8.198  0.1571  0.1370  0.2869
 4215TIP3    H134280   3.973   6.429   8.210  0.2334 -0.0481  0.5491
 4215TIP3    H234281   3.836   6.408   8.270 -0.8375  1.8664 -1.0733
 4216TIP3   OH234282   0.721   3.285   8.038 -0.1973 -0.0139 -0.2125
 4216TIP3    H134283   0.668   3.364   8.026 -1.9977 -1.2260 -0.7366
 4216TIP3    H234284   0.755   3.291   8.127 -1.8626  0.4890  0.4204
 4217TIP3   OH234285   0.077   5.439   1.280 -0.5229 -0.3882  0.0549
 4217TIP3    H134286  -0.007   5.485   1.280 -0.2909  0.0748  1.2381
 4217TIP3    H234287   0.082   5.398   1.367  0.2185 -0.8892 -0.2140
 4218TIP3   OH234288   6.479   3.516   8.493  0.5013 -0.4636  0.3309
 4218TIP3    H134289   6.545   3.535   8.426 -0.3062  0.7255 -0.1882
 4218TIP3    H234290   6.422   3.450   8.452  0.8022 -0.7606  0.3904
 4219TIP3   OH234291   6.262   2.282   7.903 -0.0974  0.1821  0.3691
 4219TIP3    H134292   6.190   2.218   7.907  0.1642 -0.1636 -0.2541
 4219TIP3    H234293   6.221   2.365   7.928 -0.3939 -0.2564  1.4386
 4220TIP3   OH234294   2.556   0.595   0.973 -0.0324  0.4193  0.4956
 4220TIP3    H134295   2.578   0.551   1.055  2.4767  1.1243  0.2816
 4220TIP3    H234296   2.608   0.551   0.906 -0.7325  0.9671 -0.4522
 4221TIP3   OH234297   1.069   6.304   1.220 -0.2613 -0.0679  0.0452
 4221TIP3    H134298   1.079   6.214   1.190  1.3432  0.7957 -2.3441
 4221TIP3    H234299   1.148   6.348   1.188 -1.5993  2.4646 -0.0126
 4222TIP3   OH234300   2.971   4.832   7.473 -0.4363  0.6105  0.2277
 4222TIP3    H134301   2.926   4.847   7.390  0.7094 -0.6349 -0.6631
 4222TIP3    H234302   3.040   4.899   7.476 -0.1233  0.3031 -0.0987
 4223TIP3   OH234303   4.486   1.299   0.059  0.2015  0.2999  0.3893
 4223TIP3    H134304   4.449   1.241  -0.006 -0.2438 -1.5079  2.1631
 4223TIP3    H234305   4.416   1.362   0.078 -0.0883  0.0974  0.0047
 4224TIP3   OH234306   0.101   4.447   8.671 -0.3227  0.5804 -0.3105
 4224TIP3    H134307   0.037   4.389   8.712 -2.0195  2.2725 -0.4532
 4224TIP3    H234308   0.181   4.436   8.723 -0.5692 -1.8361 -0.3297
 4225TIP3   OH234309   3.541   0.040   1.900 -0.3681 -0.5438  0.3818
 4225TIP3    H134310   3.593  -0.036   1.924 -0.4671 -0.9104 -0.4926
 4225TIP3    H234311   3.458   0.003   1.869  0.9203 -0.4982 -3.8728
 4226TIP3   OH234312   6.835   6.462   2.245  0.4192  0.5345  0.0653
 4226TIP3    H134313   6.792   6.508   2.173 -0.4912  0.5789  0.6305
 4226TIP3    H234314   6.795   6.497   2.324 -1.4688 -2.2502  0.5234
 4227TIP3   OH234315   5.456   5.928   0.482  0.0317  0.0624 -0.0067
 4227TIP3    H134316   5.526   5.876   0.521 -1.0495 -0.6332  1.0818
 4227TIP3    H234317   5.382   5.916   0.540 -1.2376  0.1662 -1.5280
 4228TIP3   OH234318   6.685   1.400   7.534  0.1160 -0.2178 -0.1832
 4228TIP3    H134319   6.757   1.413   7.595  0.1267 -1.0533 -0.0145
 4228TIP3    H234320   6.706   1.455   7.459 -0.6319  2.0408  1.1602
 4229TIP3   OH234321   0.891   0.295   0.233 -0.1477 -0.7914 -0.1891
 4229TIP3    H134322   0.982   0.305   0.261 -0.0823 -1.3487 -0.1869
 4229TIP3    H234323   0.873   0.372   0.179 -0.2553  0.2859  1.3246
 4230TIP3   OH234324   0.770   0.213   2.287  0.2613  0.4102  0.2372
 4230TIP3    H134325   0.755   0.258   2.370  2.0083  0.4718  0.5605
 4230TIP3    H234326   0.708   0.254   2.226 -1.2599  0.1446  1.5632
 4231TIP3   OH234327   4.460   4.052   1.546 -0.0441 -0.4005 -0.3739
 4231TIP3    H134328   4.374   4.012   1.555 -0.5659  0.3032 -2.0036
 4231TIP3    H234329   4.521   3.985   1.579 -1.1084 -1.3668 -0.3271
 4232TIP3   OH234330   2.443   2.436   7.998 -0.8107  0.0656 -0.5381
 4232TIP3    H134331   2.533   2.442   7.968  0.3014  0.0555  2.4230
 4232TIP3    H234332   2.426   2.342   8.006  0.0791  0.0357  1.7646
 4233TIP3   OH234333   6.473   4.286   7.821 -1.0727  0.3652 -0.0136
 4233TIP3    H134334   6.471   4.191   7.832  4.5921 -0.0294  0.5214
 4233TIP3    H234335   6.426   4.320   7.897  0.0806 -2.1136  1.9525
 4234TIP3   OH234336   3.531   1.733   1.470  0.1189  0.5455  0.0344
 4234TIP3    H134337   3.481   1.697   1.543  1.2848 -1.1136  0.0733
 4234TIP3    H234338   3.620   1.744   1.504  0.5548  0.2727 -0.9612
 4235TIP3   OH234339   1.355   0.826   2.150 -0.5631 -0.0276 -0.6579
 4235TIP3    H134340   1.420   0.756   2.146  0.5519  0.9617 -0.4069
 4235TIP3    H234341   1.383   0.882   2.222 -2.3788 -0.1982  0.2521
 4236TIP3   OH234342   1.174   5.716   8.530  0.3443 -0.8387  0.1640
 4236TIP3    H134343   1.196   5.765   8.451  1.2141  0.8465  1.3936
 4236TIP3    H234344   1.250   5.659   8.545  1.1636  0.4098  0.9330
 4237TIP3   OH234345   0.371   1.121   8.101  0.6057  0.1766 -0.0566
 4237TIP3    H134346   0.279   1.144   8.094  0.3534 -0.3633  1.1202
 4237TIP3    H234347   0.416   1.177   8.038 -0.7882 -1.4144 -2.5977
 4238TIP3   OH234348   4.258   2.025   7.260  0.1931 -0.2319 -0.0832
 4238TIP3    H134349   4.166   2.001   7.246 -0.4073  1.5063  0.6669
 4238TIP3    H234350   4.262   2.119   7.242  1.6818 -0.1382  0.5928
 4239TIP3   OH234351   4.468   1.626   0.749 -0.0067  0.4205 -0.4591
 4239TIP3    H134352   4.419   1.552   0.713  0.1748 -0.5867  1.2716
 4239TIP3    H234353   4.545   1.587   0.789  0.9322  1.7398 -0.8971
 4240TIP3   OH234354   0.750   5.960   7.054 -0.1894  0.3496 -0.3482
 4240TIP3    H134355   0.683   5.994   6.996  1.0282  0.8342 -1.5341
 4240TIP3    H234356   0.810   6.034   7.068 -0.7394  0.4319  2.0298
 4241TIP3   OH234357   3.825   0.120   6.302  0.0634 -0.0120  0.5399
 4241TIP3    H134358   3.860   0.203   6.335 -0.1731  0.2707  0.0868
 4241TIP3    H234359   3.857   0.114   6.212  1.4221 -1.1937  1.0537
 4242TIP3   OH234360   6.798   1.489   8.586  0.2228  0.1572 -0.2070
 4242TIP3    H134361   6.801   1.519   8.677  0.6107  0.3743 -0.2896
 4242TIP3    H234362   6.798   1.570   8.535  0.8659  0.0209 -0.4251
 4243TIP3   OH234363   4.704   3.757   2.078  0.4254 -0.0568  0.2909
 4243TIP3    H134364   4.777   3.708   2.117 -0.7275 -0.4700  2.0528
 4243TIP3    H234365   4.670   3.810   2.150  0.1220  1.5617 -0.9774
 4244TIP3   OH234366   4.483   3.619   8.228  0.7045  0.3919  0.6976
 4244TIP3    H134367   4.504   3.534   8.189 -1.1405  0.7129 -1.1394
 4244TIP3    H234368   4.546   3.680   8.191  0.6580  0.2063  0.3136
 4245TIP3   OH234369   4.834   5.687   8.605 -0.6710  0.4728 -0.2977
 4245TIP3    H134370   4.812   5.608   8.656  0.8652 -0.4031 -0.9157
 4245TIP3    H234371   4.795   5.759   8.655  0.0182 -0.4407  1.6676
 4246TIP3   OH234372   0.907   6.700   0.700  0.1236  0.3034  0.1049
 4246TIP3    H134373   0.813   6.701   0.717  0.0632  0.7848 -0.2336
 4246TIP3    H234374   0.946   6.663   0.779 -0.3569  0.0148  0.2083
 4247TIP3   OH234375   5.263   1.248   7.318 -0.3505 -0.3636  0.4995
 4247TIP3    H134376   5.264   1.256   7.223 -0.3127 -2.2275  0.2981
 4247TIP3    H234377   5.334   1.186   7.338  1.3003  1.8466  1.9978
 4248TIP3   OH234378   5.617   6.101   1.186 -0.1801  0.1820 -0.4243
 4248TIP3    H134379   5.609   6.164   1.115 -0.3850  0.6810  0.0370
 4248TIP3    H234380   5.528   6.093   1.221 -0.4103 -1.3031 -1.2718
 4249TIP3   OH234381   3.852   4.524   8.207  0.4552  0.3918 -0.4527
 4249TIP3    H134382   3.941   4.499   8.182  0.3010 -1.6591  0.7867
 4249TIP3    H234383   3.806   4.536   8.124  1.3200 -0.8205 -1.1342
 4250TIP3   OH234384   5.104   6.754   8.271 -0.3872 -0.3630 -0.2429
 4250TIP3    H134385   5.086   6.780   8.361 -0.5782  1.0932 -0.6720
 4250TIP3    H234386   5.167   6.683   8.278  2.4091  2.0216  0.9684
 4251TIP3   OH234387   6.601   4.334   1.284  0.3307 -0.3893  0.4884
 4251TIP3    H134388   6.658   4.261   1.308 -1.0668 -1.6071  0.2993
 4251TIP3    H234389   6.528   4.327   1.345 -0.1588  0.4311  0.0055
 4252TIP3   OH234390   2.138   2.982   7.889 -0.3044 -0.3006  0.2511
 4252TIP3    H134391   2.145   3.062   7.940 -0.8294  0.1490 -0.3740
 4252TIP3    H234392   2.221   2.936   7.906 -0.2064  0.1310  0.9966
 4253TIP3   OH234393   3.121   4.108   7.651  0.0547 -0.3281  0.6641
 4253TIP3    H134394   3.133   4.019   7.685 -0.5603 -0.2169  1.1913
 4253TIP3    H234395   3.129   4.099   7.556 -0.7238 -1.0777  0.6520
 4254TIP3   OH234396   1.023   6.585   1.206 -0.5092  0.2286  0.6247
 4254TIP3    H134397   1.009   6.510   1.148  0.5804  0.9774 -0.6517
 4254TIP3    H234398   1.115   6.579   1.231 -0.1978  1.5381 -0.1043
 4255TIP3   OH234399   1.544   4.803   1.511 -0.0737 -0.1257  0.5482
 4255TIP3    H134400   1.557   4.863   1.584 -0.5330  1.9144 -0.9413
 4255TIP3    H234401   1.543   4.859   1.434 -1.8505 -1.9114 -0.8502
 4256TIP3   OH234402   6.723   2.806   0.392 -0.2330 -0.5573 -0.1587
 4256TIP3    H134403   6.720   2.713   0.369 -1.0292 -0.7856  0.7785
 4256TIP3    H234404   6.649   2.845   0.345  0.4985 -0.2578 -1.0803
 4257TIP3   OH234405   2.567   3.415   6.448  0.0786  0.2846  0.2054
 4257TIP3    H134406   2.623   3.357   6.500 -0.5528 -1.1331 -0.6473
 4257TIP3    H234407   2.629   3.471   6.401  0.7374 -0.1288  0.5572
 4258TIP3   OH234408   1.124   2.887   8.240 -0.5471 -0.0176 -0.2562
 4258TIP3    H134409   1.057   2.864   8.304 -1.8775 -0.1307 -1.6581
 4258TIP3    H234410   1.084   2.870   8.155  0.7040  1.3739 -1.1757
 4259TIP3   OH234411   0.197   6.345   1.580 -0.0947 -0.1752  0.1928
 4259TIP3    H134412   0.131   6.400   1.624  0.9718  1.8437 -0.5768
 4259TIP3    H234413   0.281   6.386   1.603  0.8854 -2.2777  0.5851
 4260TIP3   OH234414   3.460   3.970   7.274  0.5369 -0.4726  0.4514
 4260TIP3    H134415   3.372   3.956   7.240  0.1894  0.4423  0.9285
 4260TIP3    H234416   3.517   3.969   7.197 -0.0644  0.2433 -0.0055
 4261TIP3   OH234417   4.391   3.574   8.512 -0.6072 -0.2957  0.4702
 4261TIP3    H134418   4.372   3.596   8.420  0.1250  1.3062  0.6784
 4261TIP3    H234419   4.307   3.582   8.556 -1.1443 -1.8896 -0.1696
 4262TIP3   OH234420   1.348   5.716   6.539 -0.7873 -0.5381 -1.1248
 4262TIP3    H134421   1.338   5.643   6.599 -1.9342 -1.3985 -2.3284
 4262TIP3    H234422   1.374   5.676   6.456 -2.1346  0.3318 -1.9980
 4263TIP3   OH234423   1.501   1.776   7.255  0.1586 -0.6092 -0.3385
 4263TIP3    H134424   1.473   1.719   7.327 -2.4356 -1.2351 -1.7044
 4263TIP3    H234425   1.591   1.750   7.237  0.6877 -0.8142  2.2608
 4264TIP3   OH234426   4.693   3.909   2.780  0.3708 -0.1032  0.8907
 4264TIP3    H134427   4.670   3.829   2.827 -0.4730 -0.4317 -0.0564
 4264TIP3    H234428   4.787   3.920   2.796  0.2017 -0.4756  2.2278
 4265TIP3   OH234429   3.525   1.419   0.073  0.2358  0.6764 -0.4327
 4265TIP3    H134430   3.570   1.423   0.157 -1.6369 -0.2440  0.6953
 4265TIP3    H234431   3.581   1.365   0.017  0.9471  0.2891  0.6332
 4266TIP3   OH234432   3.023   3.024   8.163 -0.2178  0.3015  0.5080
 4266TIP3    H134433   3.005   3.082   8.237 -0.2263  0.3395  0.4772
 4266TIP3    H234434   3.073   2.952   8.200  1.0357  1.0445  0.3004
 4267TIP3   OH234435   2.371   2.960   0.773  0.0457 -0.0974 -0.3188
 4267TIP3    H134436   2.290   3.010   0.782 -0.9951 -1.4804 -1.4957
 4267TIP3    H234437   2.396   2.937   0.863 -0.8174  0.4086  0.0605
 4268TIP3   OH234438   5.251   5.467   6.426 -0.1104 -1.0565 -0.5754
 4268TIP3    H134439   5.319   5.433   6.484 -0.0463  2.1423  1.5254
 4268TIP3    H234440   5.174   5.415   6.447  0.5236 -1.5420  0.6778
 4269TIP3   OH234441   4.333   0.566   8.151 -0.3555  0.2880  0.0064
 4269TIP3    H134442   4.360   0.573   8.059 -0.6859  1.6779  0.0003
 4269TIP3    H234443   4.238   0.554   8.147 -0.2239 -0.9211  0.1442
 4270TIP3   OH234444   1.790   0.654   6.738  0.0292  0.5140  0.5634
 4270TIP3    H134445   1.831   0.675   6.654  0.1206  1.7023  0.8887
 4270TIP3    H234446   1.861   0.621   6.792  0.0820  0.2936  0.3621
 4271TIP3   OH234447   3.153   0.570   1.708  0.5023  0.1731 -0.2945
 4271TIP3    H134448   3.116   0.516   1.638  2.0252  0.5247 -1.4179
 4271TIP3    H234449   3.221   0.622   1.665  1.2017  0.7044  1.3767
 4272TIP3   OH234450   2.047   5.758   7.073  0.2627  0.3081  0.1951
 4272TIP3    H134451   2.112   5.706   7.119  1.1969 -0.5291 -1.9467
 4272TIP3    H234452   2.057   5.734   6.981 -1.3511  2.0569 -0.5145
 4273TIP3   OH234453   5.103   4.072   7.469 -0.0324 -0.0551 -0.2099
 4273TIP3    H134454   5.109   4.167   7.485 -0.1153  0.1597 -1.3937
 4273TIP3    H234455   5.193   4.044   7.455  0.7815 -1.1635  5.1833
 4274TIP3   OH234456   4.376   3.901   0.816 -0.0047  1.1076  0.2020
 4274TIP3    H134457   4.389   3.836   0.746 -0.1298 -1.3094  2.3013
 4274TIP3    H234458   4.462   3.911   0.855 -0.7639 -1.6267  2.9583
 4275TIP3   OH234459   4.928   1.587   0.411  0.2828 -0.9841  0.1426
 4275TIP3    H134460   5.018   1.600   0.442  0.0725 -1.2089  0.8630
 4275TIP3    H234461   4.929   1.500   0.372  0.4340 -0.8970 -0.0460
 4276TIP3   OH234462   4.213   4.524   7.672  0.4415 -0.4299  0.0123
 4276TIP3    H134463   4.152   4.577   7.724  0.5074  0.2465 -0.5862
 4276TIP3    H234464   4.168   4.510   7.589  0.5632 -1.0446  0.0468
 4277TIP3   OH234465   2.917   1.235   7.683  0.3698 -0.7930  0.1913
 4277TIP3    H134466   2.873   1.178   7.747 -1.1385  0.6046  0.4716
 4277TIP3    H234467   2.958   1.304   7.736  0.2552 -0.3763 -0.2554
 4278TIP3   OH234468   3.564   2.620   7.845  0.2103 -0.3235  0.4057
 4278TIP3    H134469   3.597   2.549   7.791 -0.7278 -1.3348  1.1151
 4278TIP3    H234470   3.485   2.650   7.801  1.0405  0.8736 -0.3315
 4279TIP3   OH234471   4.398   1.012   0.752  0.0493  0.7460 -0.2944
 4279TIP3    H134472   4.455   0.950   0.706 -0.1309  1.3912 -1.4336
 4279TIP3    H234473   4.319   1.016   0.698 -0.0146  1.8141 -0.1402
 4280TIP3   OH234474   0.193   2.846   8.161 -0.0210 -0.1221  0.3440
 4280TIP3    H134475   0.180   2.752   8.171  0.0521 -0.0111  1.6957
 4280TIP3    H234476   0.223   2.875   8.247  0.4744  1.0551 -0.2078
 4281TIP3   OH234477   1.293   6.882   8.079  0.1064 -0.0651 -0.4040
 4281TIP3    H134478   1.232   6.916   8.015 -0.4371  0.0719  0.1777
 4281TIP3    H234479   1.246   6.810   8.122  0.4915 -0.2128 -0.2204
 4282TIP3   OH234480   4.221   2.290   7.642 -0.2043  0.4398  0.0404
 4282TIP3    H134481   4.171   2.264   7.565 -0.4377  1.0875 -0.0329
 4282TIP3    H234482   4.274   2.213   7.664  1.5701  0.9466 -2.1089
 4283TIP3   OH234483   6.429   3.400   7.175  0.1323  0.3207 -0.2550
 4283TIP3    H134484   6.392   3.330   7.121 -0.3453 -1.6221  2.3714
 4283TIP3    H234485   6.380   3.478   7.149 -1.5476 -0.9539 -1.1430
 4284TIP3   OH234486   5.034   0.978   1.392 -0.1537 -0.2470  0.0396
 4284TIP3    H134487   5.090   0.923   1.447 -0.0225 -1.5748 -1.3752
 4284TIP3    H234488   5.094   1.025   1.335 -0.4324 -2.5316 -2.2774
 4285TIP3   OH234489   6.574   1.502   5.977 -0.2215 -0.2430 -0.3143
 4285TIP3    H134490   6.550   1.556   6.052  0.5738 -2.1096  1.3487
 4285TIP3    H234491   6.508   1.433   5.975 -0.9957  0.4687 -2.1873
 4286TIP3   OH234492   1.560   1.356   7.639  0.1454 -0.2531  0.2769
 4286TIP3    H134493   1.493   1.361   7.707 -1.5237 -1.3643 -1.1863
 4286TIP3    H234494   1.603   1.272   7.654 -0.9572 -1.0024 -0.6457
 4287TIP3   OH234495   3.595   6.741   7.078  0.2428 -0.3594 -0.4265
 4287TIP3    H134496   3.523   6.685   7.049 -0.0803 -0.6543  0.8873
 4287TIP3    H234497   3.625   6.702   7.160  0.0199  1.3634  0.5223
 4288TIP3   OH234498   6.663   1.841   7.598 -0.9212 -0.0928 -0.4839
 4288TIP3    H134499   6.711   1.795   7.668 -1.2971 -1.5009 -1.1058
 4288TIP3    H234500   6.722   1.911   7.570  0.0971 -0.7908 -0.1383
 4289TIP3   OH234501   0.973   5.140   7.800 -0.2402 -0.0389 -0.0013
 4289TIP3    H134502   1.051   5.087   7.815  0.9266  1.8640  1.1027
 4289TIP3    H234503   0.902   5.091   7.840  0.8480 -0.6190  1.2989
 4290TIP3   OH234504   0.281   0.474   1.253  0.0857  0.4496 -0.2104
 4290TIP3    H134505   0.319   0.529   1.321  0.1209  1.0915 -0.7486
 4290TIP3    H234506   0.268   0.532   1.178 -0.6199 -0.0814 -0.5185
 4291TIP3   OH234507   0.621   4.967   1.037  0.3948  0.0152  0.5146
 4291TIP3    H134508   0.695   4.915   1.066  0.7163  0.1832  0.0169
 4291TIP3    H234509   0.660   5.052   1.013  0.0984 -0.0210 -0.1018
 4292TIP3   OH234510   4.231   0.692   6.061  0.5648  0.1471  0.1681
 4292TIP3    H134511   4.172   0.664   5.991  0.5289  1.4075 -0.3374
 4292TIP3    H234512   4.209   0.635   6.135 -0.7415  0.0579 -0.2555
 4293TIP3   OH234513   3.994   1.055   6.657 -0.6887  0.4454 -0.3200
 4293TIP3    H134514   4.046   1.108   6.717  0.0881 -1.0377  0.3539
 4293TIP3    H234515   4.059   1.004   6.608 -1.4463 -0.6000 -0.2591
 4294TIP3   OH234516   3.244   0.190   7.582  0.0585 -0.6824 -0.1605
 4294TIP3    H134517   3.304   0.208   7.510  2.1940  0.0383  1.6570
 4294TIP3    H234518   3.222   0.097   7.572  3.0381 -1.5369  0.0556
 4295TIP3   OH234519   4.889   2.748   7.142 -0.3862  0.3000 -0.3557
 4295TIP3    H134520   4.898   2.659   7.109 -0.8232  0.1531 -0.0936
 4295TIP3    H234521   4.962   2.759   7.203 -0.4809  0.0296 -0.1936
 4296TIP3   OH234522   2.435   0.792   0.136  0.7818 -0.5348 -0.3901
 4296TIP3    H134523   2.520   0.828   0.162  0.5661  0.3006 -0.8131
 4296TIP3    H234524   2.371   0.851   0.174  0.4177 -0.5655 -0.9451
 4297TIP3   OH234525   1.744   0.765   2.460  0.1126 -0.1066 -0.0401
 4297TIP3    H134526   1.720   0.818   2.384  0.3936 -1.2477 -0.9528
 4297TIP3    H234527   1.819   0.713   2.430  0.6860 -0.0597  1.2518
 4298TIP3   OH234528   5.128   0.255   7.690  0.0956 -0.1115 -0.2370
 4298TIP3    H134529   5.092   0.326   7.636  0.8622 -0.0254 -0.6397
 4298TIP3    H234530   5.166   0.194   7.627 -0.8621 -1.0773  0.0764
 4299TIP3   OH234531   0.174   3.058   1.577 -0.1636 -0.2711 -0.5286
 4299TIP3    H134532   0.217   2.973   1.581  1.4549  0.5467  0.5723
 4299TIP3    H234533   0.202   3.103   1.657  1.2135  2.3032 -2.3166
 4300TIP3   OH234534   2.476   5.001   1.720  0.3142  0.0180  0.0480
 4300TIP3    H134535   2.548   5.015   1.659  0.3764 -1.2943 -0.2226
 4300TIP3    H234536   2.491   5.063   1.792  1.1852  0.3906 -0.4518
 4301TIP3   OH234537   5.894   4.776   1.345  0.1809 -0.0782  0.6882
 4301TIP3    H134538   5.821   4.725   1.309 -0.9619  2.0270 -0.1753
 4301TIP3    H234539   5.851   4.851   1.388  1.7628 -0.0267  2.2792
 4302TIP3   OH234540   6.754   4.016   0.726  0.5982  0.1793  0.3326
 4302TIP3    H134541   6.778   3.933   0.686 -0.8010 -0.5735  0.9789
 4302TIP3    H234542   6.832   4.042   0.775  0.3467 -1.9804  2.0684
 4303TIP3   OH234543   1.866   6.008   0.688 -0.8015  0.1023  0.6152
 4303TIP3    H134544   1.943   6.030   0.740  0.1593  0.0669 -0.7459
 4303TIP3    H234545   1.813   5.953   0.745  0.4066 -0.2550  1.4202
 4304TIP3   OH234546   2.851   2.691   7.325  0.4702 -0.4068  0.0386
 4304TIP3    H134547   2.771   2.687   7.272  0.8178  0.0578 -0.5275
 4304TIP3    H234548   2.871   2.784   7.332  0.6883 -0.4878  0.6076
 4305TIP3   OH234549   5.089   6.677   0.402  0.5062 -0.2779  0.6610
 4305TIP3    H134550   5.182   6.700   0.397  0.4924 -0.4599 -0.8788
 4305TIP3    H234551   5.051   6.744   0.458  1.0266  1.7325 -1.2341
 4306TIP3   OH234552   3.308   2.341   1.448 -0.0680  0.3250  0.0532
 4306TIP3    H134553   3.398   2.310   1.446 -0.2199 -0.1147 -0.1378
 4306TIP3    H234554   3.259   2.269   1.488 -0.3711  0.4612 -0.0708
 4307TIP3   OH234555   3.529   2.580   8.380  0.0420 -0.1539  0.6567
 4307TIP3    H134556   3.598   2.645   8.370  1.2158 -1.3327  0.8631
 4307TIP3    H234557   3.509   2.552   8.291 -1.8473  1.8267  0.3835
 4308TIP3   OH234558   3.993   3.631   0.931 -0.1143  0.4091  0.6574
 4308TIP3    H134559   4.038   3.697   0.878 -1.5437  0.4756 -0.5495
 4308TIP3    H234560   4.030   3.548   0.901 -0.5181  0.4809 -0.0578
 4309TIP3   OH234561   0.364   1.531   8.274 -0.3487 -0.5718  0.1366
 4309TIP3    H134562   0.443   1.537   8.327 -0.1662  0.1194 -0.2039
 4309TIP3    H234563   0.320   1.615   8.286 -1.4438 -1.2197  0.9426
 4310TIP3   OH234564   6.173   1.719   6.123 -0.0137 -0.2925  0.5677
 4310TIP3    H134565   6.118   1.789   6.158 -0.9451  0.3661 -2.0496
 4310TIP3    H234566   6.253   1.763   6.093  0.9457 -0.9040  2.0755
 4311TIP3   OH234567   2.101   4.439   0.756 -0.2716  0.1901  0.2595
 4311TIP3    H134568   2.140   4.373   0.700 -0.6691 -0.6561  0.9655
 4311TIP3    H234569   2.024   4.397   0.795 -0.6800  1.1444  0.5176
 4312TIP3   OH234570   5.981   6.050   6.197 -0.2183 -0.5590  0.6898
 4312TIP3    H134571   6.001   6.017   6.110 -0.2374 -0.9908  0.8492
 4312TIP3    H234572   5.893   6.087   6.189  0.8986  2.1703 -0.2543
 4313TIP3   OH234573   5.396   2.282   1.688 -0.1407 -0.0203  0.4147
 4313TIP3    H134574   5.322   2.342   1.704 -1.0081 -1.5912  2.8542
 4313TIP3    H234575   5.356   2.196   1.681  1.2228 -0.5694 -1.6934
 4314TIP3   OH234576   5.404   1.105   6.969  0.2855 -0.5729 -0.4125
 4314TIP3    H134577   5.453   1.037   7.017 -0.7773 -1.0410  0.0535
 4314TIP3    H234578   5.469   1.145   6.911  2.4634  2.0660  3.4120
 4315TIP3   OH234579   5.220   0.472   6.244 -0.4252 -0.3683 -0.0746
 4315TIP3    H134580   5.173   0.547   6.207 -0.2015 -0.4033 -0.4371
 4315TIP3    H234581   5.165   0.397   6.224  0.9572 -0.7961 -2.8550
 4316TIP3   OH234582   6.555   5.224   6.821 -0.0253  0.2860 -0.3969
 4316TIP3    H134583   6.612   5.187   6.754 -0.9587 -0.6346 -0.7061
 4316TIP3    H234584   6.600   5.304   6.850  0.1738  0.9671 -2.4449
 4317TIP3   OH234585   0.632   6.081   0.479 -0.8268  0.0689 -0.0938
 4317TIP3    H134586   0.589   6.164   0.460 -1.1867 -0.5448 -2.2236
 4317TIP3    H234587   0.645   6.040   0.394  0.7720 -1.3818  0.7614
 4318TIP3   OH234588   6.310   2.170   7.633 -0.2915  0.0711 -0.0136
 4318TIP3    H134589   6.318   2.169   7.728  1.0294 -0.8074 -0.1023
 4318TIP3    H234590   6.267   2.253   7.613 -1.9635 -0.3871  1.4198
 4319TIP3   OH234591   1.857   0.029   7.469 -0.6448  0.1383 -0.4037
 4319TIP3    H134592   1.843   0.068   7.383  0.1546 -2.2227 -1.6946
 4319TIP3    H234593   1.877   0.104   7.526  1.3365  1.6052 -2.7856
 4320TIP3   OH234594   3.869   4.308   0.878 -0.4090  0.4895  0.3637
 4320TIP3    H134595   3.872   4.330   0.971 -0.3976  1.0722  0.2333
 4320TIP3    H234596   3.822   4.382   0.838 -1.6524 -0.4045  0.0903
 4321TIP3   OH234597   1.477   6.794   7.462  0.3109 -0.5521  0.1506
 4321TIP3    H134598   1.558   6.755   7.428 -0.4543 -1.9247 -0.1619
 4321TIP3    H234599   1.418   6.720   7.474 -1.1766  0.4989 -0.3536
 4322TIP3   OH234600   4.201   0.693   0.777 -0.1623 -0.2365 -0.6951
 4322TIP3    H134601   4.187   0.779   0.739 -0.0020 -0.4333 -1.2067
 4322TIP3    H234602   4.132   0.684   0.843  0.5356  0.7749  0.2299
 4323TIP3   OH234603   5.330   6.483   0.952  0.8232  0.0223 -0.0770
 4323TIP3    H134604   5.370   6.570   0.950 -0.2864  0.7043  2.8781
 4323TIP3    H234605   5.244   6.495   0.911  1.0198  0.0926 -0.4738
 4324TIP3   OH234606   1.254   0.482   1.336  0.2832 -0.0511 -0.0707
 4324TIP3    H134607   1.288   0.550   1.394  2.3354  0.0778 -1.3220
 4324TIP3    H234608   1.287   0.506   1.249 -2.1347 -0.5882 -1.2370
 4325TIP3   OH234609   1.865   1.955   0.061 -0.1349 -0.0691 -0.0313
 4325TIP3    H134610   1.948   1.912   0.084 -0.6004 -0.5616  0.7641
 4325TIP3    H234611   1.892   2.034   0.013  0.8535  0.4867  1.3530
 4326TIP3   OH234612   6.610   3.590   6.863 -0.3790  0.5960  0.5303
 4326TIP3    H134613   6.626   3.507   6.820 -0.8645  0.6033  0.3384
 4326TIP3    H234614   6.619   3.655   6.793 -0.2439  0.6840  0.6293
 4327TIP3   OH234615   0.336   5.071   0.789 -0.3055  0.0419  0.3270
 4327TIP3    H134616   0.335   5.160   0.824 -0.2187 -0.0387  0.5332
 4327TIP3    H234617   0.397   5.076   0.715  0.6034 -0.1137  1.0565
 4328TIP3   OH234618   0.735   0.823   0.448  0.3227  0.2725  0.3643
 4328TIP3    H134619   0.820   0.786   0.423 -0.6558 -1.4708 -0.5403
 4328TIP3    H234620   0.680   0.748   0.467 -1.3654  1.3111 -0.1793
 4329TIP3   OH234621   6.146   5.149   7.028 -0.2242 -0.3176  0.3130
 4329TIP3    H134622   6.102   5.073   6.990 -0.5239 -0.3200  0.6617
 4329TIP3    H234623   6.075   5.202   7.064  0.1208 -2.1337  4.3349
 4330TIP3   OH234624   0.940   3.207   6.155  0.5195  0.1253  0.3349
 4330TIP3    H134625   1.035   3.219   6.147  0.4567  0.7627  0.5633
 4330TIP3    H234626   0.927   3.174   6.244  0.6831 -1.6642 -0.2590
 4331TIP3   OH234627   5.912   6.431   1.113 -0.0748  0.1295  0.3497
 4331TIP3    H134628   5.862   6.443   1.195 -0.2965 -0.6877  0.3468
 4331TIP3    H234629   5.967   6.509   1.107 -1.3194  1.0421  0.3831
 4332TIP3   OH234630   2.761   4.691   0.415 -0.3221  0.1027  0.2995
 4332TIP3    H134631   2.676   4.724   0.386 -0.4006 -0.1748  0.2044
 4332TIP3    H234632   2.815   4.692   0.335 -0.3372 -0.0335  0.2872
 4333TIP3   OH234633   5.185   1.481   0.114  0.0183  0.2377 -0.0340
 4333TIP3    H134634   5.128   1.444   0.182  0.5665 -0.2887  0.1530
 4333TIP3    H234635   5.125   1.514   0.047 -0.5015 -0.5528  0.0273
 4334TIP3   OH234636   3.625   5.579   7.518  0.1445  0.3219 -0.0311
 4334TIP3    H134637   3.544   5.617   7.483  0.7009  2.1459  0.5594
 4334TIP3    H234638   3.625   5.602   7.611  0.4966 -1.2261  0.3774
 4335TIP3   OH234639   2.101   6.485   7.306 -0.0409  0.7765 -0.2017
 4335TIP3    H134640   2.046   6.425   7.256 -0.6160  0.5167  0.7241
 4335TIP3    H234641   2.131   6.549   7.241  0.9843 -0.7563 -1.3125
 4336TIP3   OH234642   6.188   3.618   7.156 -0.4578  0.0437 -0.2348
 4336TIP3    H134643   6.103   3.661   7.169  0.9167  3.3725 -1.1446
 4336TIP3    H234644   6.204   3.626   7.062  1.1627  0.1784  0.0263
 4337TIP3   OH234645   0.459   5.583   1.372  0.4352 -0.2268  0.1882
 4337TIP3    H134646   0.461   5.673   1.341  1.6400  0.1017  1.1238
 4337TIP3    H234647   0.426   5.532   1.297  0.7211  0.8551 -0.6944
 4338TIP3   OH234648   5.779   1.644   1.362  0.2334  0.4196  0.4655
 4338TIP3    H134649   5.720   1.604   1.426 -0.4106  1.5179  0.5962
 4338TIP3    H234650   5.722   1.673   1.291  0.5730  1.5658  0.6235
 4339TIP3   OH234651   1.961   4.006   8.199  0.5355 -0.5514  0.0724
 4339TIP3    H134652   2.008   3.942   8.146  0.5887 -2.0370  1.8060
 4339TIP3    H234653   1.911   3.953   8.262 -1.1101  1.0630  0.2138
 4340TIP3   OH234654   5.729   6.591   0.797 -0.0676 -0.2277 -0.3003
 4340TIP3    H134655   5.771   6.668   0.759 -0.5248  1.8212  2.9979
 4340TIP3    H234656   5.795   6.555   0.857 -0.8297 -0.7715  0.2292
 4341TIP3   OH234657   4.557   5.978   7.974  0.2517 -0.0621  0.3919
 4341TIP3    H134658   4.544   6.060   8.020 -0.2212  0.3468 -0.4423
 4341TIP3    H234659   4.650   5.958   7.984  0.3539  0.5394  0.6434
 4342TIP3   OH234660   6.505   6.840   0.934 -0.0212  0.0244 -0.1442
 4342TIP3    H134661   6.559   6.916   0.955 -1.0151  0.3530  1.3378
 4342TIP3    H234662   6.568   6.772   0.910  1.0768  0.3802  1.5824
 4343TIP3   OH234663   1.393   2.408   6.049  0.0304 -0.6251 -0.3977
 4343TIP3    H134664   1.312   2.417   5.998 -0.2928 -1.4903 -0.0576
 4343TIP3    H234665   1.383   2.470   6.122  0.5722  0.7541 -1.4392
 4344TIP3   OH234666   0.053   0.887   7.617  0.7773  0.3497 -0.0685
 4344TIP3    H134667  -0.017   0.871   7.681 -0.6070  0.6453 -1.4595
 4344TIP3    H234668   0.066   0.982   7.620 -0.6728  0.6371 -1.5649
 4345TIP3   OH234669   6.084   6.001   8.563 -0.5820  0.5947  0.1485
 4345TIP3    H134670   6.066   6.006   8.657  2.2469  0.5618  0.7929
 4345TIP3    H234671   6.096   6.093   8.537 -0.6114  0.5579  0.0078
 4346TIP3   OH234672   4.957   2.754   0.553 -0.2121  0.0114  0.3996
 4346TIP3    H134673   4.882   2.702   0.580 -1.2183  0.2208 -1.7249
 4346TIP3    H234674   5.009   2.695   0.498 -1.0192  0.9375 -1.4857
 4347TIP3   OH234675   0.346   1.090   0.146  0.5684  0.4022 -0.5410
 4347TIP3    H134676   0.300   1.047   0.218  2.2307  0.9354  0.9070
 4347TIP3    H234677   0.278   1.136   0.098 -0.5030  0.6922  1.1766
 4348TIP3   OH234678   0.970   5.330   0.504  0.0282 -0.3592 -0.1316
 4348TIP3    H134679   0.902   5.323   0.571 -0.6310 -2.6633 -0.9493
 4348TIP3    H234680   0.948   5.409   0.455  1.1478  2.0613  2.9186
 4349TIP3   OH234681   1.073   3.438   7.940  0.6943  0.1941  0.1835
 4349TIP3    H134682   1.073   3.502   7.869  0.5074 -1.6650 -1.5917
 4349TIP3    H234683   1.072   3.353   7.896 -1.5704 -1.0721  2.4051
 4350TIP3   OH234684   3.148   3.108   1.864 -0.0313  0.1061 -0.5516
 4350TIP3    H134685   3.111   3.026   1.896 -2.3165  1.0043 -0.6403
 4350TIP3    H234686   3.173   3.156   1.943 -0.7674  0.1965 -0.3650
 4351TIP3   OH234687   6.555   1.158   0.455 -0.0479  0.7613 -0.1262
 4351TIP3    H134688   6.532   1.160   0.548 -2.4040  0.6255 -0.6507
 4351TIP3    H234689   6.515   1.078   0.422  0.9288  0.7069 -1.2490
 4352TIP3   OH234690   0.788   6.375   1.077  0.1327  0.2341 -0.2236
 4352TIP3    H134691   0.853   6.382   1.146  0.4397  2.1952 -0.6692
 4352TIP3    H234692   0.710   6.417   1.113  0.2775  1.2219 -1.0290
 4353TIP3   OH234693   5.852   2.354   6.513 -0.0672 -0.0419 -0.6330
 4353TIP3    H134694   5.904   2.411   6.570 -0.9034 -0.7790  0.9096
 4353TIP3    H234695   5.770   2.402   6.500 -0.4410 -0.5041 -0.0223
 4354TIP3   OH234696   0.286   6.784   8.278 -0.5717 -0.2844 -0.1353
 4354TIP3    H134697   0.304   6.877   8.292 -2.3194  0.0916 -0.2246
 4354TIP3    H234698   0.352   6.738   8.331 -0.0263  0.9944  0.3268
 4355TIP3   OH234699   1.227   5.906   0.634 -0.0439 -0.7671 -0.1838
 4355TIP3    H134700   1.164   5.978   0.629 -0.2142 -0.9702 -1.1513
 4355TIP3    H234701   1.306   5.946   0.671 -0.2329 -0.1398 -0.4365
 4356TIP3   OH234702   2.480   0.889   7.503  0.1807  0.1027  1.1481
 4356TIP3    H134703   2.535   0.945   7.558  1.4487 -2.0431  2.1812
 4356TIP3    H234704   2.466   0.940   7.423  3.8235  0.7307  0.7412
 4357TIP3   OH234705   0.328   5.453   1.156  0.7860 -0.5313 -0.2024
 4357TIP3    H134706   0.334   5.357   1.152  1.4012 -0.6047  1.6469
 4357TIP3    H234707   0.235   5.470   1.171  0.7080 -0.8543 -0.3054
 4358TIP3   OH234708   4.115   5.580   1.968 -0.8076  0.2713 -0.0341
 4358TIP3    H134709   4.192   5.634   1.987 -2.1746  1.9353  1.0315
 4358TIP3    H234710   4.072   5.624   1.895 -0.6661 -0.7603 -0.7563
 4359TIP3   OH234711   1.181   3.898   8.361  0.0435  0.2129  0.1989
 4359TIP3    H134712   1.112   3.908   8.296  0.4126  1.8856  0.0093
 4359TIP3    H234713   1.208   3.988   8.381  1.9789 -0.3786  0.4470
 4360TIP3   OH234714   5.049   5.921   0.998 -0.1360 -0.5620 -0.5814
 4360TIP3    H134715   5.010   5.881   0.921  0.5683  0.5323 -1.5522
 4360TIP3    H234716   5.112   5.857   1.030  0.2223 -0.6677 -1.4754
 4361TIP3   OH234717   1.675   4.113   2.758  0.2442 -0.7123  0.0762
 4361TIP3    H134718   1.762   4.131   2.794 -0.5507  1.0851  1.2812
 4361TIP3    H234719   1.689   4.110   2.663  1.5769 -0.1193  0.2183
 4362TIP3   OH234720   5.620   3.963   0.042  0.4108 -0.2053  0.5236
 4362TIP3    H134721   5.599   3.906   0.116 -0.2902 -2.1738 -1.0778
 4362TIP3    H234722   5.539   3.966  -0.010  1.7278 -1.5971 -1.8068
 4363TIP3   OH234723   6.248   5.775   0.968 -0.3551  0.2268 -0.0430
 4363TIP3    H134724   6.221   5.821   1.048  0.9400 -0.9144  1.1255
 4363TIP3    H234725   6.344   5.782   0.969 -0.3319  0.4002 -1.6588
 4364TIP3   OH234726   1.423   0.019   0.897  0.6252  0.0300 -0.1823
 4364TIP3    H134727   1.424   0.114   0.910 -0.9650  0.2406 -1.3396
 4364TIP3    H234728   1.349   0.003   0.838 -0.2028 -2.0998  1.2834
 4365TIP3   OH234729   4.401   6.203   6.544 -0.2197  0.1075  0.4505
 4365TIP3    H134730   4.353   6.276   6.504 -0.2511  0.3527  0.9336
 4365TIP3    H234731   4.493   6.226   6.531 -0.2229  0.5573  1.1735
 4366TIP3   OH234732   0.520   4.673   6.093 -0.2344 -0.1537  0.0664
 4366TIP3    H134733   0.596   4.617   6.078  0.3068  0.1677  1.5149
 4366TIP3    H234734   0.445   4.616   6.078  0.2933 -0.8278 -0.0628
 4367TIP3   OH234735   3.508   5.372   1.440  0.9660 -0.5691 -0.0547
 4367TIP3    H134736   3.533   5.334   1.356 -0.6106 -1.3996 -0.1793
 4367TIP3    H234737   3.420   5.407   1.425  1.4731  1.1356  0.6965
 4368TIP3   OH234738   5.306   5.518   6.747 -0.3488  0.0889 -0.2189
 4368TIP3    H134739   5.318   5.430   6.710 -1.4935  0.1100 -0.6862
 4368TIP3    H234740   5.211   5.532   6.746 -0.2040  1.2218  0.1186
 4369TIP3   OH234741   1.652   6.254   1.627 -0.5629  0.0392 -0.2070
 4369TIP3    H134742   1.605   6.326   1.669 -0.0211 -0.1933  0.8559
 4369TIP3    H234743   1.583   6.196   1.594 -1.0979 -0.6769  1.9882
 4370TIP3   OH234744   4.683   3.439   6.292 -0.0487  0.0891  0.2864
 4370TIP3    H134745   4.705   3.410   6.203  1.0578 -1.3708  0.9884
 4370TIP3    H234746   4.709   3.531   6.294  0.4295 -0.0072 -0.7522
 4371TIP3   OH234747   0.672   1.608   0.063  0.1976 -0.2486  0.7038
 4371TIP3    H134748   0.697   1.573  -0.022  0.0278  1.5846 -0.1646
 4371TIP3    H234749   0.591   1.657   0.045 -1.1823 -1.7670  2.4104
 4372TIP3   OH234750   0.276   2.811   1.553  0.4885 -0.3442 -0.0317
 4372TIP3    H134751   0.189   2.772   1.548 -0.0197  0.8811 -1.6288
 4372TIP3    H234752   0.329   2.760   1.492  0.3647  0.1530 -0.5588
 4373TIP3   OH234753   3.209   6.245   7.232 -0.4325  0.7127 -0.4858
 4373TIP3    H134754   3.277   6.252   7.165  0.7519 -1.3515  0.4016
 4373TIP3    H234755   3.158   6.325   7.223  0.5259  1.1319 -2.9140
 4374TIP3   OH234756   3.964   2.779   8.327  0.0521 -0.2302 -0.2786
 4374TIP3    H134757   4.043   2.756   8.278  0.0109  0.4487 -0.6663
 4374TIP3    H234758   3.984   2.755   8.418  0.5487 -0.4308 -0.4411
 4375TIP3   OH234759   0.462   0.922   7.782  0.2260  0.2352 -0.2817
 4375TIP3    H134760   0.381   0.922   7.833  0.1874 -0.7768 -0.3281
 4375TIP3    H234761   0.434   0.941   7.692 -0.1029 -1.1209 -0.4866
 4376TIP3   OH234762   6.299   6.251   7.572  0.0214 -0.8085 -0.2236
 4376TIP3    H134763   6.240   6.275   7.644  1.8059  0.8884  0.7869
 4376TIP3    H234764   6.245   6.255   7.494 -1.1930  0.7941  0.6395
 4377TIP3   OH234765   5.208   1.821   8.257 -0.0194 -0.3783  0.4233
 4377TIP3    H134766   5.242   1.744   8.211  1.7913  1.5160 -1.6869
 4377TIP3    H234767   5.117   1.827   8.229  0.1492 -1.1180 -0.3300
 4378TIP3   OH234768   1.503   0.671   1.328 -0.6666 -0.5666 -0.0645
 4378TIP3    H134769   1.531   0.626   1.249 -1.5501 -2.7254  0.7571
 4378TIP3    H234770   1.571   0.653   1.392  0.3101  1.6131 -0.3951
 4379TIP3   OH234771   4.140   3.948   0.530 -0.3950 -0.7093  0.4381
 4379TIP3    H134772   4.054   3.983   0.553 -0.3250 -1.1407  1.3868
 4379TIP3    H234773   4.179   3.923   0.614  0.9495  0.1437  0.1022
 4380TIP3   OH234774   3.256   2.761   7.136 -0.5041 -0.1114 -0.1478
 4380TIP3    H134775   3.330   2.762   7.075  1.3351 -3.9785  1.6549
 4380TIP3    H234776   3.180   2.747   7.080  0.3999  1.2595 -1.8433
 4381TIP3   OH234777   5.520   5.304   1.292 -0.2776 -0.2599 -0.8534
 4381TIP3    H134778   5.520   5.300   1.388  0.9291  0.7101 -0.7818
 4381TIP3    H234779   5.590   5.244   1.266 -2.3535 -2.6324 -1.3137
 4382TIP3   OH234780   5.053   3.867   7.083 -0.6857  0.2275 -0.1546
 4382TIP3    H134781   4.978   3.839   7.031  0.0922  1.8488 -2.2981
 4382TIP3    H234782   5.023   3.947   7.126 -0.6087  0.0980  0.1440
 4383TIP3   OH234783   4.039   6.258   1.080  0.1100  0.5247 -0.1184
 4383TIP3    H134784   4.037   6.163   1.063  0.5155  0.3549  0.7492
 4383TIP3    H234785   4.032   6.298   0.993 -2.4098 -0.2700 -0.3620
 4384TIP3   OH234786   4.828   4.505   2.478 -0.7845 -0.1922  0.2761
 4384TIP3    H134787   4.781   4.528   2.398 -0.1944  0.1542  0.0140
 4384TIP3    H234788   4.904   4.563   2.478 -0.5187 -0.5290  0.8379
 4385TIP3   OH234789   3.275   1.308   0.064  0.3600 -0.2370  0.2205
 4385TIP3    H134790   3.362   1.342   0.086 -0.2362  1.0030  0.7907
 4385TIP3    H234791   3.225   1.314   0.145 -0.0537 -1.6446  0.0880
 4386TIP3   OH234792   4.976   4.221   8.660 -0.6300  0.2168 -0.2622
 4386TIP3    H134793   4.885   4.250   8.658 -0.3171  1.2268 -0.1332
 4386TIP3    H234794   5.007   4.233   8.571 -0.3650  0.7243 -0.1036
 4387TIP3   OH234795   1.583   2.333   6.867  0.0224 -0.5473 -0.9035
 4387TIP3    H134796   1.559   2.264   6.805 -0.9465 -0.9048 -0.1620
 4387TIP3    H234797   1.507   2.392   6.868 -0.8626 -1.6112  1.3862
 4388TIP3   OH234798   0.440   5.786   1.098 -0.0415 -0.4794  0.3626
 4388TIP3    H134799   0.347   5.765   1.092  0.3558 -2.0177 -1.5700
 4388TIP3    H234800   0.448   5.870   1.054 -0.4021 -0.8303 -0.4025
 4389TIP3   OH234801   3.064   0.677   0.584 -0.3559 -0.5393  0.0087
 4389TIP3    H134802   3.128   0.681   0.655  0.7633 -3.3065 -0.6745
 4389TIP3    H234803   3.031   0.766   0.575 -0.4787 -0.0362  3.8672
 4390TIP3   OH234804   4.449   4.727   8.349 -0.6577  0.1344  0.3620
 4390TIP3    H134805   4.394   4.664   8.395 -1.0869  0.9438  0.9882
 4390TIP3    H234806   4.494   4.676   8.282  1.2689 -1.4171  2.6887
 4391TIP3   OH234807   3.094   1.437   2.061  0.3555 -0.7396  0.0289
 4391TIP3    H134808   3.129   1.353   2.093  2.2127 -0.3745 -0.8533
 4391TIP3    H234809   3.089   1.492   2.138  0.6899 -1.1694  0.3668
 4392TIP3   OH234810   5.068   2.562   6.494  0.6215 -0.5858  0.0085
 4392TIP3    H134811   4.991   2.613   6.471  0.8934  0.3881  1.1766
 4392TIP3    H234812   5.097   2.523   6.411 -1.7170 -1.8459 -0.2930
 4393TIP3   OH234813   6.442   4.170   0.937 -0.1310  0.3412 -0.4751
 4393TIP3    H134814   6.362   4.120   0.919 -1.1259  1.2118  1.3133
 4393TIP3    H234815   6.441   4.241   0.872 -0.9752  0.5214 -0.2752
 4394TIP3   OH234816   2.130   0.693   1.579 -0.3808 -0.3328  0.0341
 4394TIP3    H134817   2.160   0.731   1.661  1.9633 -0.2032 -0.8284
 4394TIP3    H234818   2.131   0.765   1.517 -0.8217 -0.7240 -0.4384
 4395TIP3   OH234819   1.502   1.159   0.187  0.0836 -0.1455 -0.3215
 4395TIP3    H134820   1.591   1.134   0.160 -0.5391 -0.1009 -2.6383
 4395TIP3    H234821   1.446   1.094   0.144 -1.1979  1.7744 -1.7119
 4396TIP3   OH234822   1.516   4.345   6.285 -0.4839  0.2534 -0.4805
 4396TIP3    H134823   1.458   4.337   6.209  2.2155 -2.7358 -2.5522
 4396TIP3    H234824   1.526   4.255   6.316  0.3417  1.1215  2.0003
 4397TIP3   OH234825   6.329   5.269   1.222  0.0215 -0.6118 -0.3953
 4397TIP3    H134826   6.319   5.230   1.308  1.3862  0.0198  0.0866
 4397TIP3    H234827   6.417   5.307   1.223 -1.1056  2.3040 -0.8657
 4398TIP3   OH234828   4.984   6.097   6.269  0.2258  0.0430  0.6468
 4398TIP3    H134829   5.042   6.160   6.227  2.3570 -1.6214  0.9035
 4398TIP3    H234830   5.030   6.013   6.261 -0.0594 -0.7078  4.5943
 4399TIP3   OH234831   6.277   2.641   1.562  0.1180  0.3043  0.3396
 4399TIP3    H134832   6.325   2.606   1.487  1.7469  1.2554  0.8831
 4399TIP3    H234833   6.253   2.563   1.613  0.9699 -0.2285 -0.0434
 4400TIP3   OH234834   0.804   1.680   6.352  0.0623 -0.4579  0.1926
 4400TIP3    H134835   0.805   1.615   6.282 -0.0711 -0.0276 -0.2170
 4400TIP3    H234836   0.718   1.670   6.393  1.3322 -3.0365  2.5496
 4401TIP3   OH234837   1.388   2.818   6.226 -0.6180  0.1679 -0.4126
 4401TIP3    H134838   1.326   2.783   6.162 -0.4159 -0.5800 -0.2138
 4401TIP3    H234839   1.467   2.765   6.215 -0.4776  0.2228  0.2540
 4402TIP3   OH234840   4.002   1.434   1.519 -0.0416  0.0722  0.4108
 4402TIP3    H134841   3.952   1.499   1.569  0.1644 -0.5919  1.5152
 4402TIP3    H234842   4.075   1.411   1.577  0.5926 -0.2165 -0.4894
 4403TIP3   OH234843   6.889   4.748   2.039 -0.3215  0.3717 -0.0674
 4403TIP3    H134844   6.886   4.841   2.060  0.0614  0.3795 -0.0393
 4403TIP3    H234845   6.982   4.725   2.045 -0.5779 -0.3754  1.4618
 4404TIP3   OH234846   2.955   2.155   1.805  0.2903 -0.5833 -0.6727
 4404TIP3    H134847   2.928   2.101   1.879  1.7725  1.0572  1.1809
 4404TIP3    H234848   2.885   2.219   1.795 -1.1976 -2.3683 -2.5109
 4405TIP3   OH234849   1.305   1.479   2.172 -0.3523  0.1226 -0.0952
 4405TIP3    H134850   1.282   1.539   2.101 -1.7676  1.4508  1.4071
 4405TIP3    H234851   1.306   1.393   2.131 -0.0321  0.9617 -1.9406
 4406TIP3   OH234852   6.157   0.083   1.052 -0.2747 -0.4623  0.1554
 4406TIP3    H134853   6.208   0.129   1.118  0.0268 -0.8785  0.2160
 4406TIP3    H234854   6.066   0.089   1.082 -0.2153 -0.0795  0.2608
 4407TIP3   OH234855   3.564   1.559   0.891 -0.1714  0.3546 -0.8502
 4407TIP3    H134856   3.560   1.614   0.969  2.2448  0.0080 -0.4047
 4407TIP3    H234857   3.491   1.497   0.902  0.3673  0.0162  1.3935
 4408TIP3   OH234858   0.416   4.728   0.844  0.0274  0.6531  0.4403
 4408TIP3    H134859   0.430   4.819   0.817  1.0514  0.2392 -0.4952
 4408TIP3    H234860   0.499   4.684   0.825 -0.6131 -0.5900  0.4090
 4409TIP3   OH234861   1.577   2.274   1.161 -0.1001  0.2958  0.6385
 4409TIP3    H134862   1.606   2.309   1.077 -2.5020  1.1037  0.0644
 4409TIP3    H234863   1.544   2.350   1.209 -1.6484 -0.5514  1.0129
 4410TIP3   OH234864   4.720   6.328   1.117  0.1741 -0.3928  0.2214
 4410TIP3    H134865   4.787   6.260   1.106  0.5122  0.1560 -1.3327
 4410TIP3    H234866   4.736   6.363   1.205  1.2382 -0.9969  0.2882
 4411TIP3   OH234867   4.791   5.534   0.603  0.0852  0.1350 -0.9086
 4411TIP3    H134868   4.734   5.605   0.632 -1.1296 -1.1778  0.0680
 4411TIP3    H234869   4.864   5.536   0.665 -2.1527 -2.2081  2.1296
 4412TIP3   OH234870   4.426   0.694   2.372 -0.1028 -0.1705  0.3890
 4412TIP3    H134871   4.466   0.616   2.335  0.5227  0.6216 -0.6448
 4412TIP3    H234872   4.332   0.675   2.373  0.1493 -1.5215  1.6158
 4413TIP3   OH234873   0.681   2.809   1.897  0.3586  0.7381  0.4081
 4413TIP3    H134874   0.641   2.878   1.845 -0.2937  0.7781  0.9462
 4413TIP3    H234875   0.748   2.854   1.948  1.2883  0.6307 -0.6762
 4414TIP3   OH234876   3.065   0.659   1.317 -0.0788  0.3523  0.0670
 4414TIP3    H134877   3.146   0.635   1.363  0.9484  1.0504 -1.2869
 4414TIP3    H234878   3.058   0.595   1.246 -0.9122  0.0995  0.3650
 4415TIP3   OH234879   1.485   0.520   8.607 -0.1937 -0.4848  0.4354
 4415TIP3    H134880   1.492   0.544   8.700 -0.4947  0.5888  0.1931
 4415TIP3    H234881   1.575   0.501   8.581 -0.0439 -0.3592  0.8435
 4416TIP3   OH234882   4.095   2.117   0.155  0.3396 -0.1848  0.1867
 4416TIP3    H134883   4.139   2.198   0.128  0.8559 -0.1952  0.9849
 4416TIP3    H234884   4.004   2.129   0.127  0.3589  0.7648  0.5006
 4417TIP3   OH234885   1.795   3.082   1.991 -0.1933 -0.4484 -0.4391
 4417TIP3    H134886   1.730   3.031   1.944 -0.0704 -0.4708 -0.5857
 4417TIP3    H234887   1.746   3.126   2.060 -0.3548 -0.5031 -0.5191
 4418TIP3   OH234888   3.213   1.065   0.945  0.4701  0.8401 -0.2900
 4418TIP3    H134889   3.238   0.985   0.992 -0.1730  0.3390 -0.7746
 4418TIP3    H234890   3.229   1.044   0.853  0.2912  1.2723 -0.4210
 4419TIP3   OH234891   1.844   4.951   0.970  0.1821 -0.1488  0.1042
 4419TIP3    H134892   1.897   5.030   0.961 -1.3578  0.9248  0.1751
 4419TIP3    H234893   1.792   4.947   0.891  0.1430 -1.0438  0.1611
 4420TIP3   OH234894   0.601   2.431   1.006 -0.3507  0.1179 -0.3605
 4420TIP3    H134895   0.628   2.521   0.989 -2.4637  0.9458  0.4740
 4420TIP3    H234896   0.615   2.386   0.922 -0.7830  1.6049 -1.2637
 4421TIP3   OH234897   4.277   0.097   0.448  0.2606 -0.0321  0.0726
 4421TIP3    H134898   4.261   0.179   0.402  0.4618 -0.3306 -0.5361
 4421TIP3    H234899   4.190   0.062   0.468  0.1503 -0.4770 -1.1219
 4422TIP3   OH234900   5.019   2.143   6.921 -0.2421 -0.4024 -0.3882
 4422TIP3    H134901   5.051   2.217   6.870 -0.0711 -0.9595 -1.1049
 4422TIP3    H234902   4.982   2.083   6.856 -0.6963 -0.7904  0.2144
 4423TIP3   OH234903   6.579   2.856   2.559 -0.2693  0.6234 -0.0940
 4423TIP3    H134904   6.585   2.786   2.625 -0.0630 -0.2864 -1.0522
 4423TIP3    H234905   6.615   2.933   2.603  0.1152 -0.0233  0.7728
 4424TIP3   OH234906   6.442   4.310   1.488 -0.0872 -0.4846 -0.6404
 4424TIP3    H134907   6.390   4.245   1.535 -1.2969  1.4945  0.8654
 4424TIP3    H234908   6.378   4.368   1.447  0.9135  1.0128 -0.1570
 4425TIP3   OH234909   4.643   5.389   6.173  0.0195 -0.3416  0.0139
 4425TIP3    H134910   4.574   5.343   6.126 -1.6186  1.0785  0.9428
 4425TIP3    H234911   4.661   5.466   6.121  0.7328 -0.5560 -0.0745
 4426TIP3   OH234912   2.509   5.166   0.028 -0.0694  0.1186  0.1322
 4426TIP3    H134913   2.511   5.211  -0.056 -2.8996  1.5866  0.7225
 4426TIP3    H234914   2.488   5.075   0.006  2.1009 -0.2196 -0.8392
 4427TIP3   OH234915   4.627   3.938   0.163 -0.1989 -0.2435 -0.2871
 4427TIP3    H134916   4.704   3.899   0.122 -0.3181 -0.0443 -0.7074
 4427TIP3    H234917   4.613   3.887   0.242  0.3599 -0.2837 -0.2151
 4428TIP3   OH234918   3.595   4.797   7.339 -0.1490 -0.0899  0.1040
 4428TIP3    H134919   3.542   4.735   7.289  1.1038 -1.9679  0.9911
 4428TIP3    H234920   3.539   4.822   7.412 -1.1101  0.8276 -0.9055
 4429TIP3   OH234921   4.709   6.613   8.546  0.6470  0.1882  0.7142
 4429TIP3    H134922   4.762   6.540   8.576 -1.8185 -2.4293 -0.7788
 4429TIP3    H234923   4.731   6.624   8.454 -1.0487 -0.7468  0.1454
 4430TIP3   OH234924   1.284   6.495   1.191  0.0151  0.6447  0.6352
 4430TIP3    H134925   1.338   6.418   1.209 -2.2642 -1.3337 -0.4140
 4430TIP3    H234926   1.341   6.553   1.141  2.0320  0.0215  2.0820
 4431TIP3   OH234927   3.291   0.833   8.539  0.4305 -0.3868  0.0175
 4431TIP3    H134928   3.364   0.891   8.519  0.6548 -1.0848 -1.3308
 4431TIP3    H234929   3.237   0.881   8.601  0.4666  1.3888 -1.2516
 4432TIP3   OH234930   6.204   4.641   7.762 -0.2645  0.1510  0.6031
 4432TIP3    H134931   6.197   4.729   7.724 -0.8391 -0.0322  0.2602
 4432TIP3    H234932   6.124   4.631   7.815  0.2438  0.1774  1.3860
 4433TIP3   OH234933   6.170   2.044   1.814  0.2775 -1.0473 -0.2039
 4433TIP3    H134934   6.260   2.075   1.825 -0.6777  1.1124  2.7985
 4433TIP3    H234935   6.172   1.954   1.848  0.6128  0.4870  4.6693
 4434TIP3   OH234936   1.056   3.995   1.777  0.2013  0.6472 -0.6008
 4434TIP3    H134937   1.123   3.936   1.811  0.9365  0.6073 -2.0427
 4434TIP3    H234938   0.976   3.968   1.822  0.5757 -1.2496 -0.9526
 4435TIP3   OH234939   6.267   3.888   7.212  0.0589  0.1231  0.1794
 4435TIP3    H134940   6.326   3.896   7.136  0.3046  1.5616  0.4883
 4435TIP3    H234941   6.266   3.794   7.232 -0.0549 -0.3036 -1.6331
 4436TIP3   OH234942   5.373   3.791   0.196  0.2117  0.2106 -0.3256
 4436TIP3    H134943   5.330   3.751   0.121  1.2608 -0.7642 -0.4238
 4436TIP3    H234944   5.333   3.748   0.272 -2.4000  2.6668 -0.1198
 4437TIP3   OH234945   6.040   4.065   2.186 -0.0606 -0.5007 -0.0745
 4437TIP3    H134946   5.986   4.036   2.259 -1.7320 -1.3702 -1.5850
 4437TIP3    H234947   6.126   4.080   2.224 -0.5280 -2.2542  1.8114
 4438TIP3   OH234948   0.474   3.951   0.702  0.4014  0.6868  0.1835
 4438TIP3    H134949   0.409   3.972   0.635  0.4982  0.9344  0.1693
 4438TIP3    H234950   0.543   3.905   0.655 -0.2331 -0.5033  0.3610
 4439TIP3   OH234951   6.874   3.767   1.273  0.4662 -0.0064  0.2906
 4439TIP3    H134952   6.855   3.697   1.336 -0.2625 -1.0934 -1.0527
 4439TIP3    H234953   6.924   3.831   1.322  2.4978 -2.1614  1.2441
 4440TIP3   OH234954   3.888   6.778   1.287 -0.0574 -0.1001  0.3965
 4440TIP3    H134955   3.953   6.757   1.354 -1.6071  0.5872  2.1942
 4440TIP3    H234956   3.939   6.781   1.206  2.2255  0.6655  1.7331
 4441TIP3   OH234957   4.923   6.732   1.573 -0.2188 -0.3461  0.2639
 4441TIP3    H134958   5.000   6.681   1.600 -0.0742  1.1483  3.0755
 4441TIP3    H234959   4.922   6.807   1.633 -1.4183  2.0532 -2.5416
 4442TIP3   OH234960   2.326   1.058   1.546 -0.1280  0.3626 -0.3481
 4442TIP3    H134961   2.277   1.115   1.605 -0.5577 -0.0229 -0.3257
 4442TIP3    H234962   2.393   1.018   1.602 -0.9518 -0.5110  0.0481
 4443TIP3   OH234963   3.809   6.079   1.696  0.2539  0.2737  0.5219
 4443TIP3    H134964   3.860   5.997   1.690 -1.4108 -0.7204 -1.1420
 4443TIP3    H234965   3.754   6.067   1.773  1.5761  0.8274  1.5972
 4444TIP3   OH234966   1.614   3.036   1.169  0.2914  0.0556 -0.4397
 4444TIP3    H134967   1.573   2.988   1.096  1.4098  0.5056 -1.4024
 4444TIP3    H234968   1.671   2.971   1.211  1.7273  0.4454 -1.6807
 4445TIP3   OH234969   4.187   6.046   8.552 -0.1021 -0.1763 -0.2272
 4445TIP3    H134970   4.217   6.090   8.473 -1.3953  0.1853 -0.5370
 4445TIP3    H234971   4.193   5.952   8.531 -0.4503 -0.0812 -0.7575
 4446TIP3   OH234972   2.720   5.870   8.619  0.4279 -0.1092  0.7909
 4446TIP3    H134973   2.764   5.934   8.563  2.4310 -1.4481  0.7525
 4446TIP3    H234974   2.673   5.813   8.558  1.5182 -0.7644  0.5489
 4447TIP3   OH234975   0.096   5.072   1.443  0.4682  0.0466 -0.0019
 4447TIP3    H134976   0.040   5.033   1.510  2.0052 -0.8655  0.8298
 4447TIP3    H234977   0.048   5.062   1.361  0.2158 -2.4557  0.3802
 4448TIP3   OH234978   6.773   4.727   7.012 -0.1135  0.0863  0.2331
 4448TIP3    H134979   6.786   4.794   7.079  1.4117 -1.9850  2.1714
 4448TIP3    H234980   6.678   4.719   7.004 -0.5359  4.4049 -2.3048
 4449TIP3   OH234981   5.593   3.248   1.088  0.5588 -0.0272  0.5294
 4449TIP3    H134982   5.545   3.329   1.102  0.0977  0.0693 -1.3592
 4449TIP3    H234983   5.539   3.181   1.130  1.7800  0.7528  3.6277
 4450TIP3   OH234984   6.377   5.555   1.593  0.4154 -0.1022  0.3516
 4450TIP3    H134985   6.358   5.543   1.686 -0.3779 -0.3394  0.1637
 4450TIP3    H234986   6.343   5.643   1.572  1.7718  0.5045  0.5765
 4451TIP3   OH234987   5.497   1.791   0.264 -0.2413  0.2318  0.2883
 4451TIP3    H134988   5.483   1.886   0.265  2.6206  0.7398  0.0185
 4451TIP3    H234989   5.496   1.768   0.171 -0.6778  0.0100  0.3430
 4452TIP3   OH234990   0.128   1.960   2.213 -0.1458 -0.6768  0.4069
 4452TIP3    H134991   0.051   1.976   2.269 -0.2727  0.9024 -0.1616
 4452TIP3    H234992   0.185   2.035   2.230 -0.8493  0.7132 -2.6251
 4453TIP3   OH234993   0.993   6.169   0.831 -0.4512  0.2314  0.1886
 4453TIP3    H134994   0.924   6.152   0.766 -0.0314 -1.8747  0.2162
 4453TIP3    H234995   0.973   6.108   0.902  1.4032 -0.4115  0.2046
 4454TIP3   OH234996   4.187   3.374   0.421  0.2112  0.1987  0.0519
 4454TIP3    H134997   4.218   3.378   0.330  0.6794 -0.2518  0.1833
 4454TIP3    H234998   4.149   3.460   0.438  0.9712  0.6044 -0.2739
 4455TIP3   OH234999   6.249   4.758   7.005  0.2220 -0.1178  0.8418
 4455TIP3    H135000   6.184   4.819   6.970  0.9125 -0.5919 -1.4322
 4455TIP3    H235001   6.198   4.696   7.057 -1.3118 -0.8104 -1.3271
 4456TIP3   OH235002   4.528   1.178   7.590 -0.1344 -0.8847  0.0832
 4456TIP3    H135003   4.488   1.219   7.667  0.0933 -1.6221  0.6144
 4456TIP3    H235004   4.540   1.086   7.616  0.5341 -1.0012 -0.5977
 4457TIP3   OH235005   4.754   4.276   7.919  0.3766  0.1196  0.4702
 4457TIP3    H135006   4.716   4.214   7.982 -1.0576 -0.6737 -1.0795
 4457TIP3    H235007   4.702   4.356   7.930  0.6476  0.2448  0.8360
 4458TIP3   OH235008   3.169   0.637   2.361  0.7046 -0.4218  0.0359
 4458TIP3    H135009   3.195   0.572   2.426 -1.9485 -1.5543  0.0882
 4458TIP3    H235010   3.228   0.623   2.287  0.9353 -2.1334  0.5067
 4459TIP3   OH235011   2.247   0.073   0.908  0.2361  0.6160  0.4807
 4459TIP3    H135012   2.188   0.071   0.984 -0.5557 -0.8103 -0.1427
 4459TIP3    H235013   2.197   0.118   0.840  0.7702  1.4712  0.6350
 4460TIP3   OH235014   1.851   2.236   1.001  1.1468  0.3352  0.9238
 4460TIP3    H135015   1.781   2.294   0.972  0.0628 -0.8864  0.9947
 4460TIP3    H235016   1.854   2.246   1.096  0.6941  0.0206  0.9787
 4461TIP3   OH235017   3.805   1.575   2.102  1.0505  0.0121  0.3963
 4461TIP3    H135018   3.850   1.604   2.023 -0.1239  0.0029 -0.3060
 4461TIP3    H235019   3.759   1.496   2.075 -0.2270  0.6003  0.7820
 4462TIP3   OH235020   0.106   2.088   6.046  0.1400  0.1719  0.0816
 4462TIP3    H135021   0.023   2.048   6.019  0.4457  0.9336 -2.1538
 4462TIP3    H235022   0.084   2.179   6.065  0.2186  0.0054  1.0630
 4463TIP3   OH235023   1.833   2.775   0.288  0.2883 -1.0808  0.7591
 4463TIP3    H135024   1.926   2.769   0.306  0.4966  1.6388  0.9651
 4463TIP3    H235025   1.796   2.818   0.365 -0.9613 -1.0954  0.2008
 4464TIP3   OH235026   6.866   5.912   1.842 -0.1700 -0.7708 -0.0634
 4464TIP3    H135027   6.900   5.829   1.808  1.3029 -0.3902  0.3978
 4464TIP3    H235028   6.772   5.908   1.826 -0.0015 -2.1472 -0.8519
 4465TIP3   OH235029   4.659   4.259   1.009  0.3685 -0.4583  0.1163
 4465TIP3    H135030   4.595   4.316   1.053  1.0623  1.3762 -1.1118
 4465TIP3    H235031   4.607   4.211   0.944  0.0891  0.5345 -0.4292
 4466TIP3   OH235032   6.048   5.514   2.098 -0.1315  0.6280  0.2333
 4466TIP3    H135033   6.030   5.551   2.012  3.4421  0.7251 -0.6042
 4466TIP3    H235034   6.119   5.452   2.084  0.1572  0.1729  3.0395
 4467TIP3   OH235035   4.386   1.124   0.262  0.1259 -0.2648 -0.6362
 4467TIP3    H135036   4.443   1.155   0.332 -0.8863 -1.2638  0.6849
 4467TIP3    H235037   4.416   1.171   0.184  1.2570  0.9059  0.4573
 4468TIP3   OH235038   4.698   3.775   2.516 -0.7284  0.0673  0.1880
 4468TIP3    H135039   4.688   3.814   2.603 -2.1774  0.1710 -0.0061
 4468TIP3    H235040   4.667   3.842   2.456 -0.7477 -0.4081 -0.3366
 4469TIP3   OH235041   3.415   0.107   0.446 -0.3876  0.6831 -0.1492
 4469TIP3    H135042   3.394   0.177   0.384 -1.0240  0.5273 -0.1219
 4469TIP3    H235043   3.333   0.094   0.495 -0.1813  0.1326  0.0545
 4470TIP3   OH235044   4.513   6.848   0.375 -0.2311 -0.2468 -0.2590
 4470TIP3    H135045   4.501   6.809   0.289 -0.2276 -1.3852  0.2403
 4470TIP3    H235046   4.429   6.887   0.397 -1.1287 -2.4393  0.4179
 4471TIP3   OH235047   3.103   1.538   1.553 -0.2130 -0.2618  0.4256
 4471TIP3    H135048   3.014   1.573   1.549  0.1534  0.6735  0.4239
 4471TIP3    H235049   3.135   1.542   1.462  1.2443  3.1795  0.9369
 4472TIP3   OH235050   6.846   2.301   6.904  0.1540 -0.2660  0.3177
 4472TIP3    H135051   6.928   2.285   6.857  0.9446  2.9387  0.3361
 4472TIP3    H235052   6.787   2.338   6.838 -1.6941 -3.2513  0.1150
 4473TIP3   OH235053   3.464   5.136   0.451  0.2937 -0.0520 -0.1308
 4473TIP3    H135054   3.386   5.107   0.405  0.3352  0.2587 -0.3967
 4473TIP3    H235055   3.462   5.231   0.444  0.2887  0.0017  0.5246
 4474TIP3   OH235056   0.230   2.179   1.716 -0.1334  0.0624 -0.0402
 4474TIP3    H135057   0.171   2.186   1.790 -1.3010  1.0257 -1.0128
 4474TIP3    H235058   0.283   2.101   1.734 -1.8291 -0.9639  0.7849
 4475TIP3   OH235059   3.965   2.816   2.112 -0.5091  0.3143  0.6543
 4475TIP3    H135060   3.995   2.769   2.189 -0.0454 -0.8574 -0.2051
 4475TIP3    H235061   3.891   2.869   2.143  0.4502  0.8505  2.1415
 4476TIP3   OH235062   3.823   3.148   2.716  1.2533  0.2346  0.0785
 4476TIP3    H135063   3.851   3.069   2.669  2.0771 -0.2585  1.3494
 4476TIP3    H235064   3.900   3.175   2.766  0.6862  1.2874  0.4219
 4477TIP3   OH235065   0.427   6.447   8.520 -0.6038 -0.3180  0.5190
 4477TIP3    H135066   0.348   6.394   8.521 -0.4720 -0.5199  2.0705
 4477TIP3    H235067   0.396   6.537   8.521 -0.8256 -0.3957  1.0812
 4478TIP3   OH235068   6.085   5.719   7.588  0.2122  0.1935 -0.0780
 4478TIP3    H135069   6.056   5.690   7.675  1.4538  0.1473  0.3369
 4478TIP3    H235070   6.102   5.638   7.540  1.9101  0.1744  0.4781
 4479TIP3   OH235071   4.104   3.036   6.520  0.1747  0.0717 -0.4453
 4479TIP3    H135072   4.093   3.129   6.544 -0.1789  0.0195 -0.4033
 4479TIP3    H235073   4.015   3.004   6.508  0.2638 -0.4274  0.1760
 4480TIP3   OH235074   3.363   0.425   1.397  0.1421  0.2633  0.7586
 4480TIP3    H135075   3.442   0.385   1.360  0.7223  1.3976  0.7186
 4480TIP3    H235076   3.352   0.507   1.348 -1.1560  0.0590  0.6672
 4481TIP3   OH235077   3.446   2.017   0.377 -0.4513 -0.0589  0.0398
 4481TIP3    H135078   3.449   1.944   0.438 -0.4382  0.9737  1.3297
 4481TIP3    H235079   3.486   2.090   0.425  1.6632  0.2505 -2.0128
 4482TIP3   OH235080   4.972   0.893   7.868  0.3176  0.6617  0.3320
 4482TIP3    H135081   4.923   0.850   7.938 -0.3380 -0.1516 -0.6023
 4482TIP3    H235082   5.022   0.823   7.827  1.5977  1.3310  0.7002
 4483TIP3   OH235083   4.964   1.543   0.787 -0.1032 -0.3589 -0.5882
 4483TIP3    H135084   4.968   1.633   0.820  0.3384 -0.1292 -1.2701
 4483TIP3    H235085   4.876   1.514   0.811 -0.1973  0.1965 -0.2239
 4484TIP3   OH235086   2.186   6.345   7.007  0.4515 -0.0107 -0.5354
 4484TIP3    H135087   2.231   6.427   7.027 -1.2423  0.2544  2.9192
 4484TIP3    H235088   2.153   6.356   6.918  1.3830  2.5203 -0.6276
 4485TIP3   OH235089   1.393   6.149   7.509 -0.9712  0.0352 -0.1605
 4485TIP3    H135090   1.399   6.152   7.604 -0.2909 -0.2356 -0.1907
 4485TIP3    H235091   1.465   6.091   7.482 -2.4698 -1.6707 -0.6954
 4486TIP3   OH235092   6.879   4.529   8.261  0.0069 -0.2727 -0.2759
 4486TIP3    H135093   6.895   4.436   8.278 -1.6385 -0.6313 -0.4810
 4486TIP3    H235094   6.829   4.559   8.337 -0.3249  0.1998 -0.6770
 4487TIP3   OH235095   3.744   3.411   2.635 -0.0623  0.3138  0.0416
 4487TIP3    H135096   3.751   3.331   2.688  0.3536  0.9455  0.9743
 4487TIP3    H235097   3.771   3.384   2.547  0.5558 -0.4588  0.4532
 4488TIP3   OH235098   5.838   1.943   1.641 -0.2524 -0.0783 -0.3512
 4488TIP3    H135099   5.915   1.998   1.628  0.1440 -0.4259  0.4552
 4488TIP3    H235100   5.858   1.892   1.720 -1.3533 -0.0919 -0.0719
 4489TIP3   OH235101   4.199   3.488   1.073  0.2225  0.5217  0.0923
 4489TIP3    H135102   4.169   3.572   1.039 -0.2972  1.0751  1.8009
 4489TIP3    H235103   4.141   3.424   1.031  0.7511  0.9645 -1.3762
 4490TIP3   OH235104   0.830   4.011   1.975 -0.5385 -0.6922 -0.2288
 4490TIP3    H135105   0.823   3.979   2.064 -1.7447  0.8975  0.2966
 4490TIP3    H235106   0.866   4.099   1.983  0.5958 -1.0051 -1.4339
 4491TIP3   OH235107   5.342   2.680   1.313  0.0053 -0.1710  0.0117
 4491TIP3    H135108   5.432   2.663   1.341 -0.5986 -1.4589  1.2664
 4491TIP3    H235109   5.306   2.738   1.381 -0.3468 -0.3183 -0.0448
 4492TIP3   OH235110   6.461   6.716   7.488 -0.1792 -0.4049 -0.3803
 4492TIP3    H135111   6.462   6.764   7.570  0.3675 -2.3409  0.8087
 4492TIP3    H235112   6.472   6.784   7.420  1.3846  1.0615  1.2341
 4493TIP3   OH235113   0.274   2.078   6.342 -0.0848 -0.2766 -0.0492
 4493TIP3    H135114   0.259   2.158   6.394 -1.1630 -1.2399  1.1961
 4493TIP3    H235115   0.243   2.101   6.254 -0.8289  0.5416  0.4068
 4494TIP3   OH235116   3.356   6.014   7.939  0.0964 -0.4454  0.7010
 4494TIP3    H135117   3.431   5.955   7.929  0.7443  0.4231  0.3476
 4494TIP3    H235118   3.312   6.010   7.854  1.3977  1.2329 -0.1250
 4495TIP3   OH235119   4.504   6.071   1.111  0.8243  0.0285 -0.0911
 4495TIP3    H135120   4.472   6.121   1.036 -1.5985 -0.2282  0.6938
 4495TIP3    H235121   4.534   6.138   1.172  3.4573  0.2200 -1.4679
 4496TIP3   OH235122   6.568   3.123   7.134  0.2339 -0.2915  0.5256
 4496TIP3    H135123   6.531   3.034   7.135  0.1588 -0.2636  2.0513
 4496TIP3    H235124   6.508   3.173   7.079  0.7100 -1.3438 -1.0142
 4497TIP3   OH235125   2.024   6.261   1.791 -0.8834  0.1858 -0.3389
 4497TIP3    H135126   2.015   6.313   1.871  0.7681  0.4440 -0.3003
 4497TIP3    H235127   1.968   6.185   1.807 -1.3820  0.7240  0.6275
 4498TIP3   OH235128   4.219   2.429   0.981 -0.0907 -0.1559  0.1523
 4498TIP3    H135129   4.165   2.352   0.997  0.6071 -0.6377  0.2531
 4498TIP3    H235130   4.218   2.440   0.886 -2.7827  1.6435  0.2723
 4499TIP3   OH235131   6.498   4.385   6.930 -0.4079  0.0816  0.4508
 4499TIP3    H135132   6.442   4.449   6.887  0.3335  1.3911  1.3934
 4499TIP3    H235133   6.566   4.436   6.974 -0.3597 -1.2738  2.0746
 4500TIP3   OH235134   1.890   4.843   8.229 -0.2254  0.2965  0.2294
 4500TIP3    H135135   1.972   4.859   8.275 -0.1912 -0.1444  0.3205
 4500TIP3    H235136   1.855   4.931   8.213 -0.1126  0.4657  0.8640
 4501TIP3   OH235137   1.618   5.695   6.268  0.0350  0.3480 -0.1380
 4501TIP3    H135138   1.535   5.648   6.274  0.3168 -0.2862 -0.8961
 4501TIP3    H235139   1.593   5.787   6.256 -0.5301  0.3653  1.0609
 4502TIP3   OH235140   3.316   6.610   7.106 -0.1018 -0.2515  0.3390
 4502TIP3    H135141   3.235   6.639   7.148  0.8106  0.5806  1.6004
 4502TIP3    H235142   3.287   6.558   7.031 -1.7928  0.0675  0.7320
 4503TIP3   OH235143   3.730   0.194   0.443 -0.4087  0.3765  0.6029
 4503TIP3    H135144   3.686   0.110   0.457  1.0661 -1.1568 -2.7648
 4503TIP3    H235145   3.666   0.247   0.395 -1.0817  0.9406  2.0899
 4504TIP3   OH235146   4.772   1.166   7.776 -0.1423  0.2923 -0.4815
 4504TIP3    H135147   4.773   1.072   7.794  0.3120  0.6958  1.9477
 4504TIP3    H235148   4.683   1.184   7.747 -0.2346 -0.8770 -0.9675
 4505TIP3   OH235149   2.727   0.923   0.097  0.2986 -0.2166  0.6972
 4505TIP3    H135150   2.746   0.937   0.004 -1.4426 -0.1507  0.3197
 4505TIP3    H235151   2.738   1.010   0.136 -0.4444  0.0775  0.2668
 4506TIP3   OH235152   4.645   3.514   7.313  0.0424 -0.3192  0.1999
 4506TIP3    H135153   4.730   3.540   7.349  0.0150 -1.1328  0.8776
 4506TIP3    H235154   4.667   3.462   7.236  0.0951  1.9261 -1.4052
 4507TIP3   OH235155   1.880   5.635   0.880  0.0810  0.1536 -0.3507
 4507TIP3    H135156   1.815   5.703   0.900 -0.2963  0.5666 -2.6852
 4507TIP3    H235157   1.895   5.643   0.786  0.0571 -2.9787 -0.7330
 4508TIP3   OH235158   5.598   2.305   0.160 -0.3571  0.2994 -0.0308
 4508TIP3    H135159   5.557   2.256   0.088 -0.7290  0.2694  0.1987
 4508TIP3    H235160   5.692   2.296   0.145 -0.4140  1.1522 -1.1091
 4509TIP3   OH235161   5.754   6.376   6.605  0.0524 -0.0829 -0.1216
 4509TIP3    H135162   5.780   6.317   6.534 -1.5389  1.0337 -1.7066
 4509TIP3    H235163   5.813   6.451   6.597  0.6120 -0.4472  0.4829
 4510TIP3   OH235164   1.157   3.227   8.439 -0.1418  0.0695  0.6279
 4510TIP3    H135165   1.094   3.296   8.417 -0.6944 -0.5522  0.2137
 4510TIP3    H235166   1.242   3.266   8.420 -0.4851  0.3831 -0.3786
 4511TIP3   OH235167   4.175   3.709   7.736 -0.5519 -1.0358  0.5780
 4511TIP3    H135168   4.239   3.655   7.782  1.1004  0.3906  0.0782
 4511TIP3    H235169   4.093   3.697   7.784  0.5471 -1.4033  2.4511
 4512TIP3   OH235170   3.082   4.193   1.353  0.4004 -0.5587 -0.0479
 4512TIP3    H135171   2.988   4.178   1.365  0.0720  1.5683  0.4145
 4512TIP3    H235172   3.119   4.105   1.341 -1.7924 -1.3882 -1.4341
 4513TIP3   OH235173   3.300   0.821   7.912 -0.1291  0.2137 -0.0023
 4513TIP3    H135174   3.248   0.848   7.836  0.2501  0.9385 -0.0172
 4513TIP3    H235175   3.390   0.846   7.889  0.3375 -1.5221 -0.2159
 4514TIP3   OH235176   6.492   5.296   7.119  0.2693  0.3274  0.2979
 4514TIP3    H135177   6.464   5.364   7.181 -0.6034 -1.3577  1.8339
 4514TIP3    H235178   6.568   5.255   7.160 -1.3479 -1.9586  1.2200
 4515TIP3   OH235179   6.419   5.659   7.556  0.0112  0.4629 -0.3611
 4515TIP3    H135180   6.364   5.582   7.573  0.1057  0.2553 -0.9393
 4515TIP3    H235181   6.508   5.629   7.575 -0.0079  0.6070 -0.0357
 4516TIP3   OH235182   0.584   0.522   8.659 -0.2320  0.7712  0.3291
 4516TIP3    H135183   0.582   0.453   8.593 -0.8317  0.7995  0.3113
 4516TIP3    H235184   0.671   0.515   8.699 -0.3432 -0.0979  0.4386
 4517TIP3   OH235185   6.783   4.325   0.143 -0.4319  0.3242  0.0096
 4517TIP3    H135186   6.815   4.395   0.200  0.9269  0.4381 -0.8655
 4517TIP3    H235187   6.772   4.250   0.202  1.2744  0.3363  0.3959
 4518TIP3   OH235188   0.318   0.377   2.308  0.1441 -0.3781  0.4817
 4518TIP3    H135189   0.305   0.449   2.246 -0.5749 -0.2477  0.7799
 4518TIP3    H235190   0.389   0.407   2.365 -0.3155  0.1905  0.7566
 4519TIP3   OH235191   0.717   4.262   7.895  0.2065 -0.2752 -0.4953
 4519TIP3    H135192   0.651   4.207   7.938 -0.9249  0.4647 -1.2380
 4519TIP3    H235193   0.746   4.322   7.964 -0.4983 -0.0799 -0.3513
 4520TIP3   OH235194   3.652   2.469   1.037  0.3987 -0.4024 -0.7526
 4520TIP3    H135195   3.709   2.509   1.102  1.6146 -1.8400 -0.8681
 4520TIP3    H235196   3.701   2.475   0.955 -1.4233  2.0663 -1.7987
 4521TIP3   OH235197   4.822   5.722   1.174 -0.1669 -0.3724 -0.1513
 4521TIP3    H135198   4.888   5.701   1.241  0.8232 -1.0215 -1.2968
 4521TIP3    H235199   4.830   5.817   1.163 -0.1159 -0.3034  0.4104
 4522TIP3   OH235200   4.247   5.323   7.704 -0.1682 -0.1355  0.1633
 4522TIP3    H135201   4.321   5.287   7.655  1.4043 -0.9912  2.9190
 4522TIP3    H235202   4.276   5.409   7.733 -0.1657 -0.5328  1.3874
 4523TIP3   OH235203   4.137   1.167   6.890 -0.3327  0.2417 -0.6155
 4523TIP3    H135204   4.112   1.107   6.961  3.2236  0.8790  1.4004
 4523TIP3    H235205   4.123   1.254   6.926  1.6018  0.5777 -0.5663
 4524TIP3   OH235206   3.040   0.925   1.293  0.0026 -0.2696  0.0038
 4524TIP3    H135207   3.085   0.963   1.369  0.7215 -1.3380  0.1462
 4524TIP3    H235208   3.045   0.830   1.308  0.9771 -0.5510 -1.8296
 4525TIP3   OH235209   4.393   5.690   6.862 -0.0826  0.3050  0.3544
 4525TIP3    H135210   4.425   5.704   6.772 -0.0801  0.4368  0.3760
 4525TIP3    H235211   4.334   5.763   6.878  1.0711  1.1327  1.0059
 4526TIP3   OH235212   4.474   1.608   8.530  0.0026 -0.1055  0.1625
 4526TIP3    H135213   4.452   1.539   8.593 -1.7102  1.4266  1.3354
 4526TIP3    H235214   4.394   1.621   8.480  0.3308  0.9676 -0.1057
 4527TIP3   OH235215   2.714   0.751   0.337 -0.0678  0.1564  0.7306
 4527TIP3    H135216   2.730   0.815   0.268  1.8920  0.3058  1.2638
 4527TIP3    H235217   2.653   0.794   0.396 -0.0714  0.8839  0.2125
 4528TIP3   OH235218   3.968   4.618   1.424  0.6066 -0.9730  0.4129
 4528TIP3    H135219   3.992   4.678   1.495  0.9235 -1.1077  0.4198
 4528TIP3    H235220   3.932   4.675   1.356  2.0739 -0.6178 -0.0992
 4529TIP3   OH235221   3.532   1.381   7.449  0.5826  0.2955  0.3426
 4529TIP3    H135222   3.518   1.292   7.481 -1.1908  0.0244 -1.0781
 4529TIP3    H235223   3.592   1.371   7.375 -1.3643 -0.0613 -1.2652
 4530TIP3   OH235224   6.065   1.885   6.314 -1.1166 -0.1352  0.0066
 4530TIP3    H135225   6.117   1.965   6.322  0.4939 -1.1801  0.5618
 4530TIP3    H235226   5.974   1.915   6.309 -0.5650  1.7030  0.3788
 4531TIP3   OH235227   5.315   6.018   8.472 -0.4112  0.2457 -0.1958
 4531TIP3    H135228   5.358   6.083   8.527 -0.6176  0.2759 -0.0689
 4531TIP3    H235229   5.373   6.008   8.396  0.1962 -0.2551  0.3211
 4532TIP3   OH235230   0.379   1.557   1.441  0.4590 -0.0396 -0.9861
 4532TIP3    H135231   0.417   1.595   1.520 -1.1367 -1.0499  0.3409
 4532TIP3    H235232   0.339   1.631   1.396  0.1357  0.3596 -0.0727
 4533TIP3   OH235233   4.198   4.479   7.180 -0.0875 -0.5142  0.3431
 4533TIP3    H135234   4.138   4.498   7.108  0.7624  1.3566  0.0716
 4533TIP3    H235235   4.257   4.413   7.145 -1.8413 -2.3374  0.5867
 4534TIP3   OH235236   2.492   5.658   8.555  0.1839 -0.3810  0.0533
 4534TIP3    H135237   2.405   5.623   8.535 -0.1579 -0.8563  2.1280
 4534TIP3    H235238   2.509   5.720   8.484 -1.0978 -1.5094 -1.3262
 4535TIP3   OH235239   2.486   0.293   7.771 -0.0854 -0.4208  0.2818
 4535TIP3    H135240   2.416   0.254   7.824 -0.2907 -2.1620 -1.2064
 4535TIP3    H235241   2.466   0.267   7.681  3.1929 -2.2403 -0.0776
 4536TIP3   OH235242   3.069   3.206   1.251  0.4914 -0.3215  0.2846
 4536TIP3    H135243   3.001   3.226   1.316  0.4807  0.7711 -0.0560
 4536TIP3    H235244   3.025   3.216   1.167  0.9382 -0.1325  0.0735
 4537TIP3   OH235245   6.897   2.982   0.051 -0.7848  0.0260 -0.1509
 4537TIP3    H135246   6.814   2.961   0.009 -0.1885 -0.2750 -1.1947
 4537TIP3    H235247   6.879   3.063   0.099 -1.9286 -0.5354  0.4163
 4538TIP3   OH235248   3.087   4.766   7.119 -0.6561 -0.3323  0.3744
 4538TIP3    H135249   3.122   4.829   7.182  0.5768 -1.3001  0.7001
 4538TIP3    H235250   3.004   4.737   7.157 -0.1519 -0.5527  1.3113
 4539TIP3   OH235251   4.478   4.558   0.527 -0.2820  0.5314 -0.2957
 4539TIP3    H135252   4.499   4.465   0.532 -0.1231  0.6236  1.8892
 4539TIP3    H235253   4.550   4.597   0.478  2.4356  0.1636  3.0312
 4540TIP3   OH235254   5.808   5.083   0.283  0.3205 -0.1353  0.6115
 4540TIP3    H135255   5.890   5.079   0.334  2.3195  1.1289 -2.2492
 4540TIP3    H235256   5.811   5.006   0.227 -1.1181 -0.7090  1.2799
 4541TIP3   OH235257   6.234   3.943   0.264 -0.4028 -0.2782 -0.3624
 4541TIP3    H135258   6.304   3.967   0.203 -0.6133 -1.7272 -1.2339
 4541TIP3    H235259   6.196   4.026   0.291 -0.5661  0.4180 -2.5633
 4542TIP3   OH235260   4.852   6.402   0.852  0.0917  0.1590 -0.5238
 4542TIP3    H135261   4.847   6.493   0.822 -1.6131 -0.0109 -0.8652
 4542TIP3    H235262   4.818   6.405   0.942 -1.6428 -0.3656 -1.1295
 4543TIP3   OH235263   3.997   2.484   8.238 -0.8503 -0.0930 -0.0455
 4543TIP3    H135264   3.927   2.419   8.234 -2.0786  1.1753  0.2476
 4543TIP3    H235265   4.045   2.463   8.318 -1.6572 -0.2232  0.4122
 4544TIP3   OH235266   0.717   3.585   0.219 -0.0504 -0.2648 -0.1502
 4544TIP3    H135267   0.801   3.564   0.259 -0.1970  1.2343  1.0402
 4544TIP3    H235268   0.660   3.606   0.293 -0.7129  1.2933 -1.0559
 4545TIP3   OH235269   1.135   2.292   1.975 -0.7035 -0.0897 -0.2170
 4545TIP3    H135270   1.203   2.251   2.028  0.2358  0.7990 -0.7067
 4545TIP3    H235271   1.056   2.288   2.029 -0.1356 -0.6089  0.5916
 4546TIP3   OH235272   3.398   6.478   7.378 -0.2775 -0.1084  0.2361
 4546TIP3    H135273   3.313   6.519   7.363  0.0837  0.2897 -0.7852
 4546TIP3    H235274   3.425   6.444   7.293  0.8890  0.3581  0.3882
 4547TIP3   OH235275   5.266   0.938   6.620 -0.0398  0.4707  0.1322
 4547TIP3    H135276   5.278   0.846   6.641  0.9193  0.3663 -0.7448
 4547TIP3    H235277   5.322   0.952   6.543  0.6805  2.0246  0.8925
 4548TIP3   OH235278   0.644   6.483   0.419 -0.1300  0.0012 -0.0052
 4548TIP3    H135279   0.562   6.435   0.435 -0.1594 -0.2030 -0.7366
 4548TIP3    H235280   0.712   6.424   0.453 -0.1545 -0.6468 -1.0365
 4549TIP3   OH235281   4.863   3.806   1.484 -0.0602 -0.6850 -0.3053
 4549TIP3    H135282   4.794   3.864   1.518  0.0898  0.4923 -1.9008
 4549TIP3    H235283   4.889   3.846   1.401  0.5708 -2.6648 -1.1159
 4550TIP3   OH235284   4.233   6.450   6.467  0.4579  0.3654  0.1159
 4550TIP3    H135285   4.141   6.431   6.489  0.3014  0.7871 -0.1736
 4550TIP3    H235286   4.243   6.419   6.377  0.9331 -0.7947  0.5464
 4551TIP3   OH235287   5.713   0.196   6.239 -0.0971 -0.3360  0.1331
 4551TIP3    H135288   5.756   0.193   6.324 -1.4274 -0.0094  0.8423
 4551TIP3    H235289   5.684   0.287   6.230  1.4191  0.0670 -1.4244
 4552TIP3   OH235290   2.205   1.493   1.371  0.4600 -0.3246 -0.6079
 4552TIP3    H135291   2.212   1.588   1.370  0.5917 -0.3340 -1.2763
 4552TIP3    H235292   2.280   1.463   1.319  2.6131 -0.9629  2.5801
 4553TIP3   OH235293   0.591   6.647   0.751 -0.0235  0.1995  0.0393
 4553TIP3    H135294   0.557   6.645   0.661  0.4862 -0.2944 -0.1489
 4553TIP3    H235295   0.627   6.560   0.765  0.4873  0.4774  0.4981
 4554TIP3   OH235296   5.449   4.289   1.079 -0.1682  0.2365  0.1116
 4554TIP3    H135297   5.476   4.352   1.145 -2.4568  3.0400 -1.3928
 4554TIP3    H235298   5.530   4.246   1.052  1.4657  2.2447  1.5433
 4555TIP3   OH235299   3.320   2.998   0.833 -0.1789  0.4164  0.2253
 4555TIP3    H135300   3.343   2.936   0.764  0.0176  0.7631 -0.0246
 4555TIP3    H235301   3.302   2.943   0.910 -0.7158  0.0133 -0.1893
 4556TIP3   OH235302   6.251   6.549   6.939 -0.1368 -0.0321 -0.1813
 4556TIP3    H135303   6.332   6.539   6.989 -0.4434 -0.7661  0.1858
 4556TIP3    H235304   6.235   6.643   6.937  0.0030  0.0325  0.9233
 4557TIP3   OH235305   0.767   4.051   7.296  0.5118  0.7289  0.0964
 4557TIP3    H135306   0.747   4.145   7.296  2.2325  1.1627  2.0577
 4557TIP3    H235307   0.750   4.024   7.386 -0.3125 -0.9636 -0.5378
 4558TIP3   OH235308   4.083   3.388   7.993 -0.1185  0.1782  0.0935
 4558TIP3    H135309   4.102   3.394   7.899  1.5071 -0.5918  0.3428
 4558TIP3    H235310   4.008   3.446   8.006  0.3592  1.2035 -1.4689
 4559TIP3   OH235311   1.992   1.246   0.616  0.7625 -0.4151 -0.4158
 4559TIP3    H135312   1.984   1.260   0.710  0.8118 -0.5587 -0.3904
 4559TIP3    H235313   1.967   1.330   0.577  0.9403 -0.2922 -0.2671
 4560TIP3   OH235314   5.648   5.101   1.746  0.0376 -0.5955  0.0787
 4560TIP3    H135315   5.642   5.194   1.768 -2.6141 -0.4049 -1.0985
 4560TIP3    H235316   5.730   5.072   1.787  1.4489  2.4458 -0.3308
 4561TIP3   OH235317   6.375   2.247   8.210 -0.2174 -0.1451 -0.4031
 4561TIP3    H135318   6.325   2.165   8.208 -0.5458  0.0519 -1.7238
 4561TIP3    H235319   6.451   2.227   8.265 -1.0713 -0.8520  0.5662
 4562TIP3   OH235320   4.872   0.738   7.014 -0.5559  0.2220  0.4107
 4562TIP3    H135321   4.821   0.687   6.952  1.1642 -0.4595 -0.5256
 4562TIP3    H235322   4.892   0.820   6.969  0.2333 -0.0485  0.2420
 4563TIP3   OH235323   3.793   0.416   1.478 -0.4264  0.0436 -0.4325
 4563TIP3    H135324   3.871   0.390   1.429 -0.3468  0.2194 -0.3979
 4563TIP3    H235325   3.721   0.372   1.433 -0.3427  0.1293 -0.6492
 4564TIP3   OH235326   3.405   2.392   7.168 -0.0850  0.3480 -0.2784
 4564TIP3    H135327   3.348   2.319   7.145  0.0358 -0.0377  0.5995
 4564TIP3    H235328   3.427   2.434   7.085  1.9193 -2.1593 -1.1337
 4565TIP3   OH235329   0.998   5.297   1.232  0.4663 -0.1606  0.0982
 4565TIP3    H135330   0.953   5.374   1.267  1.7693  0.2592  0.8980
 4565TIP3    H235331   1.013   5.241   1.309  0.1297 -0.9227 -0.3709
 4566TIP3   OH235332   5.831   2.283   7.499  0.0816 -0.3528 -0.4364
 4566TIP3    H135333   5.774   2.225   7.448  2.0058 -0.9129 -2.0758
 4566TIP3    H235334   5.790   2.287   7.586 -2.1046 -1.1585 -1.3643
 4567TIP3   OH235335   6.835   6.814   0.162  0.1802  0.1685  0.2986
 4567TIP3    H135336   6.919   6.856   0.180  0.0930 -0.1500  1.5274
 4567TIP3    H235337   6.780   6.837   0.237 -0.1893 -1.2948  0.5109
 4568TIP3   OH235338   5.317   5.808   1.167 -0.2297  0.2145  0.6503
 4568TIP3    H135339   5.399   5.764   1.187  0.8739  2.8053  2.3256
 4568TIP3    H235340   5.305   5.871   1.239 -2.9896  0.8694 -0.2553
 4569TIP3   OH235341   3.329   3.882   0.249 -0.3432 -0.5152 -0.0755
 4569TIP3    H135342   3.286   3.871   0.164  1.1801  1.1012 -1.1228
 4569TIP3    H235343   3.260   3.917   0.306 -0.9176  0.2323 -1.1845
 4570TIP3   OH235344   2.767   2.401   8.552 -0.9153  0.8242  0.0734
 4570TIP3    H135345   2.735   2.363   8.471 -1.1645  0.6784  0.2404
 4570TIP3    H235346   2.838   2.459   8.525  0.6905 -1.0861 -0.0563
 4571TIP3   OH235347   6.285   1.204   8.360  0.2962  0.6411 -0.5129
 4571TIP3    H135348   6.288   1.300   8.362 -0.7360  0.6910 -0.4184
 4571TIP3    H235349   6.231   1.183   8.284 -0.0799  0.1639 -0.1249
 4572TIP3   OH235350   0.038   3.017   0.718 -0.1156  0.3332 -0.4387
 4572TIP3    H135351   0.072   3.075   0.649  0.1236 -0.2511 -0.8296
 4572TIP3    H235352   0.025   2.933   0.673 -0.2442  0.0274  0.1661
 4573TIP3   OH235353   6.250   5.618   0.053  0.9186  0.1417 -0.2819
 4573TIP3    H135354   6.310   5.680   0.013  0.1635  0.9793 -0.1509
 4573TIP3    H235355   6.226   5.658   0.136 -0.5742  0.3129 -0.7607
 4574TIP3   OH235356   4.726   4.674   0.402  0.0464  0.3971  0.3115
 4574TIP3    H135357   4.791   4.685   0.333 -0.1813  0.4559  0.1025
 4574TIP3    H235358   4.772   4.697   0.483  0.2150  0.6752  0.1374
 4575TIP3   OH235359   3.644   6.248   1.038  0.9424  0.3387 -0.0181
 4575TIP3    H135360   3.698   6.288   1.107  0.0394  1.3218  0.1469
 4575TIP3    H235361   3.554   6.270   1.063  0.6064  0.8966 -1.6056
 4576TIP3   OH235362   3.807   4.806   6.315 -0.1482 -0.0266 -0.5531
 4576TIP3    H135363   3.772   4.891   6.341 -0.6472 -0.8016  1.4556
 4576TIP3    H235364   3.846   4.821   6.228 -0.5263  2.1433 -0.3833
 4577TIP3   OH235365   5.326   3.993   6.866  0.0801 -0.0411 -0.4027
 4577TIP3    H135366   5.372   3.946   6.936 -1.0194  0.1932  0.5186
 4577TIP3    H235367   5.278   3.924   6.819 -0.2742 -0.0507 -0.0411
 4578TIP3   OH235368   3.260   2.115   6.499  0.1584 -0.0848 -0.1204
 4578TIP3    H135369   3.246   2.097   6.592 -1.4106 -3.2041 -0.8203
 4578TIP3    H235370   3.195   2.182   6.478  0.3757  0.4862  0.9729
 4579TIP3   OH235371   3.060   6.388   0.588 -0.4510  0.2195  0.3021
 4579TIP3    H135372   3.151   6.393   0.559 -0.8231 -0.2709 -1.0102
 4579TIP3    H235373   3.055   6.450   0.661  0.5160  1.5933 -0.7428
 4580TIP3   OH235374   3.398   0.698   7.189 -0.3884  0.5101 -0.1509
 4580TIP3    H135375   3.433   0.621   7.144 -1.5506 -0.1852  0.1035
 4580TIP3    H235376   3.362   0.664   7.271  1.7923  1.7655  1.4421
 4581TIP3   OH235377   1.219   6.854   1.650 -0.2391  0.4576 -0.3926
 4581TIP3    H135378   1.172   6.773   1.631 -1.0053  1.0219 -0.9600
 4581TIP3    H235379   1.173   6.891   1.725 -1.5338  1.6322 -1.7112
 4582TIP3   OH235380   0.490   5.399   8.051 -0.1033 -0.1370 -0.6150
 4582TIP3    H135381   0.496   5.408   8.146  0.7137  0.3322 -0.7016
 4582TIP3    H235382   0.528   5.314   8.032 -0.1223 -0.1629 -0.5388
 4583TIP3   OH235383   3.918   5.168   0.235 -0.2243  0.2167  0.1558
 4583TIP3    H135384   4.011   5.185   0.244  0.1916 -1.4115 -0.6006
 4583TIP3    H235385   3.897   5.191   0.144 -0.5506  0.5635  0.3176
 4584TIP3   OH235386   4.970   5.829   8.006  0.1887  0.2196  0.4143
 4584TIP3    H135387   5.020   5.750   8.024  1.4921  0.5938 -1.4137
 4584TIP3    H235388   4.905   5.803   7.941 -0.8644  0.1823  1.4263
 4585TIP3   OH235389   1.475   1.188   0.474  0.0980  0.3341 -0.1968
 4585TIP3    H135390   1.492   1.282   0.467  0.6149  0.5581  2.6900
 4585TIP3    H235391   1.457   1.160   0.385  1.9585  2.7743 -1.4557
 4586TIP3   OH235392   0.013   0.962   0.776  0.0319 -0.5421 -0.0292
 4586TIP3    H135393  -0.049   0.980   0.706 -0.7441 -1.0227  0.5183
 4586TIP3    H235394   0.098   0.954   0.732  0.1908  2.6426 -0.5347
 4587TIP3   OH235395   0.447   3.702   6.379  0.0363 -0.3224  0.2568
 4587TIP3    H135396   0.499   3.775   6.412  0.3599 -0.0733 -0.7594
 4587TIP3    H235397   0.504   3.660   6.314 -1.1198  0.1092 -1.0644
 4588TIP3   OH235398   1.337   1.285   1.145 -0.2065  0.5832 -0.1510
 4588TIP3    H135399   1.285   1.274   1.066  1.4261 -0.2739 -1.1560
 4588TIP3    H235400   1.322   1.205   1.195 -0.3347  0.6207 -0.1276
 4589TIP3   OH235401   1.417   2.904   7.690  0.5902  0.5186 -0.5654
 4589TIP3    H135402   1.454   2.970   7.631 -3.1467  2.1775 -1.3602
 4589TIP3    H235403   1.395   2.953   7.769  0.5372 -0.4817  0.0537
 4590TIP3   OH235404   6.442   2.965   7.479  0.3415 -0.3439 -0.4050
 4590TIP3    H135405   6.394   3.022   7.419  0.5586  0.8060  0.4722
 4590TIP3    H235406   6.511   3.020   7.515 -1.3847 -0.0915  2.9383
 4591TIP3   OH235407   5.059   6.048   1.899  0.1846  0.0762 -0.3948
 4591TIP3    H135408   5.111   5.974   1.932 -0.3276 -0.6613 -1.1971
 4591TIP3    H235409   4.974   6.009   1.876 -0.2961  1.0284 -0.2825
 4592TIP3   OH235410   0.250   2.041   0.459 -0.9890 -0.4927 -0.0183
 4592TIP3    H135411   0.326   2.014   0.408 -0.0666  2.5449 -0.4444
 4592TIP3    H235412   0.178   1.989   0.423  0.2799 -1.0137 -1.9659
 4593TIP3   OH235413   2.206   2.072   1.816  0.6496  0.0584  0.3212
 4593TIP3    H135414   2.114   2.084   1.793  0.5856 -0.4797  0.2956
 4593TIP3    H235415   2.246   2.158   1.801  0.3996 -0.0102 -0.7811
 4594TIP3   OH235416   6.440   5.203   1.731  0.2782  0.0619 -0.0082
 4594TIP3    H135417   6.483   5.283   1.760 -0.5470  1.1131 -1.5447
 4594TIP3    H235418   6.398   5.168   1.810 -0.4182  1.8508  0.4663
 4595TIP3   OH235419   3.602   4.003   0.412 -0.1520 -0.2121  0.6567
 4595TIP3    H135420   3.615   3.921   0.363 -1.3855 -0.6617  1.0338
 4595TIP3    H235421   3.649   4.069   0.361 -1.3481 -0.6760 -1.1491
 4596TIP3   OH235422   3.772   0.979   0.010  0.7037 -0.2821 -0.1297
 4596TIP3    H135423   3.859   0.983  -0.030  0.8864 -0.1362  0.2790
 4596TIP3    H235424   3.762   0.888   0.036  0.2282 -0.5802 -1.2804
 4597TIP3   OH235425   5.431   4.677   8.036  0.2515 -0.7476 -0.0098
 4597TIP3    H135426   5.408   4.596   8.083 -1.7577  0.3051  0.9523
 4597TIP3    H235427   5.403   4.662   7.946 -0.0291 -1.1664  0.1451
 4598TIP3   OH235428   1.142   3.415   7.260 -0.1024 -0.4420 -0.1543
 4598TIP3    H135429   1.093   3.341   7.224  1.7291 -2.1833  0.7548
 4598TIP3    H235430   1.099   3.436   7.342  0.6762 -2.0598  0.7146
 4599TIP3   OH235431   4.776   3.901   8.049 -0.2266  0.5265  0.2110
 4599TIP3    H135432   4.822   3.818   8.041 -1.3750 -0.1303  0.1595
 4599TIP3    H235433   4.781   3.939   7.961  0.2312  0.4780  0.2135
 4600TIP3   OH235434   4.328   2.049   0.905  0.3485  0.6195  1.1857
 4600TIP3    H135435   4.329   2.094   0.990  2.9486 -0.3107  1.7566
 4600TIP3    H235436   4.360   1.961   0.925 -1.4194 -0.4525 -0.4147
 4601TIP3   OH235437   4.455   5.044   0.176  0.0547 -0.2477 -0.0352
 4601TIP3    H135438   4.529   5.093   0.140  1.5500 -1.2477  1.5119
 4601TIP3    H235439   4.440   4.973   0.113 -0.8512  1.0025 -1.2913
 4602TIP3   OH235440   1.657   0.452   2.480 -0.6425  0.2797  0.1169
 4602TIP3    H135441   1.657   0.547   2.495 -0.0597  0.2142  0.5811
 4602TIP3    H235442   1.748   0.431   2.460 -0.8217 -0.1444 -0.2803
 4603TIP3   OH235443   3.493   6.321   6.748  0.1795 -0.4722 -0.1200
 4603TIP3    H135444   3.544   6.298   6.670 -0.5193  1.1298 -1.0838
 4603TIP3    H235445   3.529   6.265   6.817  2.7421  0.0565 -0.9226
 4604TIP3   OH235446   0.704   0.044   2.042  0.6412 -0.0504 -0.5878
 4604TIP3    H135447   0.674   0.132   2.018  0.0017  0.6585  2.4407
 4604TIP3    H235448   0.797   0.055   2.061  0.3610  0.2127  0.6949
 4605TIP3   OH235449   5.734   4.824   8.450  0.5618 -0.9098 -0.0827
 4605TIP3    H135450   5.672   4.896   8.459  0.4267 -0.9890 -0.3587
 4605TIP3    H235451   5.691   4.763   8.389  0.3218 -1.6068  0.7673
 4606TIP3   OH235452   4.832   5.583   0.900  0.2870  0.2099  0.5128
 4606TIP3    H135453   4.740   5.598   0.921  0.1085  0.2625 -0.2518
 4606TIP3    H235454   4.878   5.589   0.983 -0.4591 -0.2330  0.9648
 4607TIP3   OH235455   0.823   6.489   8.208  0.6670 -0.5590 -0.5490
 4607TIP3    H135456   0.776   6.422   8.158 -0.2268 -0.3332 -0.0372
 4607TIP3    H235457   0.797   6.572   8.168  2.4036 -0.5184 -1.7050
 4608TIP3   OH235458   1.194   5.845   0.944  0.0899  0.2876 -0.4088
 4608TIP3    H135459   1.106   5.856   0.909  0.0960  2.2496  0.0702
 4608TIP3    H235460   1.203   5.750   0.959 -1.5222 -0.0608 -1.4604
 4609TIP3   OH235461   0.068   3.788   0.830 -0.4883  0.0951 -0.9249
 4609TIP3    H135462   0.091   3.862   0.886 -0.6695  0.9901 -2.0097
 4609TIP3    H235463   0.146   3.772   0.778  0.1149 -1.5259  0.3630
 4610TIP3   OH235464   3.512   3.926   6.758 -0.5589  0.0912  0.1719
 4610TIP3    H135465   3.585   3.883   6.713 -0.9556  0.2832 -0.6649
 4610TIP3    H235466   3.457   3.960   6.688 -1.1461  0.4723  0.8066
 4611TIP3   OH235467   6.497   3.399   8.026  0.2740 -0.1451  0.3835
 4611TIP3    H135468   6.560   3.342   8.069  0.9366  0.1324 -0.2047
 4611TIP3    H235469   6.415   3.349   8.026  1.0613 -1.4992 -0.9796
 4612TIP3   OH235470   4.171   3.175   1.863 -0.2023 -0.5256  0.0677
 4612TIP3    H135471   4.124   3.217   1.791 -0.9244 -0.1739  0.7469
 4612TIP3    H235472   4.263   3.199   1.848 -0.5348  0.8691  0.1521
 4613TIP3   OH235473   3.986   0.676   0.932  0.2983 -0.1798 -0.3469
 4613TIP3    H135474   3.919   0.615   0.900 -0.7515  1.2741 -1.0094
 4613TIP3    H235475   3.937   0.746   0.975  1.0936  2.2972 -3.1104
 4614TIP3   OH235476   0.090   5.256   0.739 -0.7889 -0.8603 -0.3765
 4614TIP3    H135477   0.169   5.307   0.757 -0.5301 -0.9940 -1.0669
 4614TIP3    H235478   0.089   5.247   0.643 -0.7496 -2.2653 -0.2716
 4615TIP3   OH235479   6.361   2.623   0.914  0.0391 -0.2675  0.0331
 4615TIP3    H135480   6.320   2.693   0.865  0.0857 -0.9004 -0.9293
 4615TIP3    H235481   6.450   2.654   0.932  0.7531 -0.8742 -2.1622
 4616TIP3   OH235482   4.467   4.044   6.258 -0.0249 -0.3972  0.0278
 4616TIP3    H135483   4.514   4.006   6.184 -0.8057  0.5495 -0.9902
 4616TIP3    H235484   4.430   3.969   6.305  1.0853 -1.0496 -0.1157
 4617TIP3   OH235485   0.302   1.887   1.796  0.0253  0.4020  0.2288
 4617TIP3    H135486   0.212   1.873   1.767 -0.0872 -1.3908  1.3005
 4617TIP3    H235487   0.353   1.820   1.751  0.6420  0.6821  0.4952
 4618TIP3   OH235488   1.122   6.137   0.217  0.3406  0.0296  0.0891
 4618TIP3    H135489   1.054   6.201   0.195 -0.4689 -0.7358  0.3322
 4618TIP3    H235490   1.188   6.149   0.148  0.4814  1.4988  0.4394
 4619TIP3   OH235491   2.961   2.484   6.913 -0.2496 -0.1368  0.0946
 4619TIP3    H135492   3.024   2.441   6.855 -0.3018  0.3137 -0.2945
 4619TIP3    H235493   3.016   2.526   6.980 -0.0520  1.1046 -0.8009
 4620TIP3   OH235494   0.604   0.930   1.702 -0.4058  0.4656  0.1786
 4620TIP3    H135495   0.553   0.905   1.778  0.2428  1.5809  1.0053
 4620TIP3    H235496   0.543   0.981   1.647 -0.6573  0.3204  0.3250
 4621TIP3   OH235497   3.552   5.241   1.187  0.2937  0.4604  0.4053
 4621TIP3    H135498   3.600   5.275   1.111  1.3572  1.0114  1.2997
 4621TIP3    H235499   3.518   5.157   1.158  2.1418 -0.1335 -0.1562
 4622TIP3   OH235500   0.932   6.319   7.779  0.1430  0.0101 -0.1916
 4622TIP3    H135501   0.959   6.273   7.859  1.3777 -0.8932 -1.0887
 4622TIP3    H235502   1.014   6.354   7.743 -0.4924  0.9982 -0.7148
 4623TIP3   OH235503   2.412   1.982   7.835 -0.0646 -0.2213 -0.6853
 4623TIP3    H135504   2.319   1.976   7.855 -0.2982  0.4362 -1.5299
 4623TIP3    H235505   2.450   2.028   7.910 -0.4230 -0.3985 -0.3894
 4624TIP3   OH235506   0.768   0.834   0.793 -0.2970  0.4676 -0.0232
 4624TIP3    H135507   0.714   0.906   0.761 -1.8176 -0.5281  0.2267
 4624TIP3    H235508   0.749   0.762   0.733  3.1725  0.9097 -1.9142
 4625TIP3   OH235509   0.969   6.325   8.466 -0.2682 -0.3668 -0.0666
 4625TIP3    H135510   0.925   6.252   8.422  0.1059  0.1598 -1.3561
 4625TIP3    H235511   0.917   6.402   8.443 -1.7917 -0.3942  2.8558
 4626TIP3   OH235512   1.595   1.390   1.050  0.7576 -0.3358 -0.5688
 4626TIP3    H135513   1.627   1.431   1.130  1.3833 -1.5971 -0.1543
 4626TIP3    H235514   1.501   1.382   1.062  0.8946 -0.8372  0.1915
 4627TIP3   OH235515   6.701   2.561   1.576 -0.4127 -0.1213  0.4042
 4627TIP3    H135516   6.658   2.565   1.661 -0.7480  0.8101  0.2017
 4627TIP3    H235517   6.749   2.478   1.577 -0.5877 -0.2202  1.4122
 4628TIP3   OH235518   0.413   1.751   0.496  0.4659 -0.2163 -0.1379
 4628TIP3    H135519   0.385   1.776   0.584  0.8601  0.6016 -0.2368
 4628TIP3    H235520   0.463   1.670   0.508  0.3036 -0.2466  0.3532
 4629TIP3   OH235521   3.757   0.962   7.015 -0.6197  0.1765  0.1373
 4629TIP3    H135522   3.806   0.918   6.946 -0.5510  1.3720 -0.5982
 4629TIP3    H235523   3.766   1.055   6.996  0.3243  0.6170  2.3903
 4630TIP3   OH235524   6.558   4.999   8.255 -0.1464  0.3592  0.4264
 4630TIP3    H135525   6.582   4.909   8.280 -1.5306 -0.0685  0.3016
 4630TIP3    H235526   6.504   5.030   8.326 -0.1448  0.8991  0.1955
 4631TIP3   OH235527   3.003   2.501   8.177 -0.1468  0.0116 -0.9507
 4631TIP3    H135528   3.013   2.438   8.248 -2.3957 -1.1512 -1.5575
 4631TIP3    H235529   3.088   2.545   8.171  0.9580 -1.7720  0.6111
 4632TIP3   OH235530   4.926   0.601   0.317  0.1750 -0.4154 -0.2539
 4632TIP3    H135531   4.960   0.527   0.367  1.8228  0.4493 -0.0414
 4632TIP3    H235532   4.954   0.584   0.227  0.9487  0.1324 -0.1330
 4633TIP3   OH235533   4.403   3.049   8.346  0.0727 -0.3878  0.1140
 4633TIP3    H135534   4.383   3.011   8.432 -1.8791  1.3721  0.5095
 4633TIP3    H235535   4.407   3.143   8.362 -0.1367 -0.0361 -1.7117
 4634TIP3   OH235536   4.456   0.257   8.572  0.4375 -0.1089  0.7388
 4634TIP3    H135537   4.410   0.214   8.644  0.7326  1.0157  1.6263
 4634TIP3    H235538   4.429   0.349   8.577  1.0641  0.1374 -0.1103
 4635TIP3   OH235539   1.651   4.616   1.861 -0.7727  0.3963  0.4171
 4635TIP3    H135540   1.675   4.709   1.871  1.0695  0.0882 -0.6119
 4635TIP3    H235541   1.609   4.594   1.944  0.0553  1.7892  1.2600
 4636TIP3   OH235542   3.890   3.274   0.207  0.4667  0.0862  0.0621
 4636TIP3    H135543   3.934   3.196   0.241  0.1937  0.1582  0.5991
 4636TIP3    H235544   3.934   3.347   0.251  1.2397  0.2926 -1.0174
 4637TIP3   OH235545   3.079   0.088   1.425  0.1798 -0.5350 -0.3201
 4637TIP3    H135546   3.126   0.082   1.342 -1.6664  1.8414 -1.6672
 4637TIP3    H235547   2.988   0.069   1.402 -0.2217 -0.7180  1.3409
 4638TIP3   OH235548   1.367   5.547   8.569  0.7967  0.1131  0.0524
 4638TIP3    H135549   1.355   5.469   8.624  1.0884  0.4871  0.6599
 4638TIP3    H235550   1.434   5.598   8.615 -0.4736  1.4449  0.4838
 4639TIP3   OH235551   4.678   6.238   8.022 -0.1326 -0.8516  0.7583
 4639TIP3    H135552   4.682   6.333   8.012  1.9947 -0.9371  0.3424
 4639TIP3    H235553   4.729   6.220   8.101  0.3121 -1.7029  0.2919
 4640TIP3   OH235554   0.356   3.955   8.169  0.0076 -0.5814 -0.2319
 4640TIP3    H135555   0.279   3.901   8.149  1.0111 -2.2605  0.2247
 4640TIP3    H235556   0.420   3.893   8.204  1.0911  0.9909  0.7028
 4641TIP3   OH235557   5.552   3.906   0.968  0.0170 -0.4043 -0.0572
 4641TIP3    H135558   5.545   3.821   1.012 -1.7624 -0.7576 -0.9334
 4641TIP3    H235559   5.630   3.946   1.005  1.4734 -2.8309 -0.3292
 4642TIP3   OH235560   0.589   3.540   1.521  0.1955  0.4381 -0.3710
 4642TIP3    H135561   0.656   3.600   1.554  0.0870  0.9359 -1.0280
 4642TIP3    H235562   0.609   3.456   1.563  0.1132  1.0237  0.8573
 4643TIP3   OH235563   6.036   1.640   8.170  0.1897  0.0734 -0.0687
 4643TIP3    H135564   6.017   1.699   8.244 -0.3498 -0.0211 -0.1280
 4643TIP3    H235565   5.967   1.659   8.107 -0.7057 -1.4588  0.4027
 4644TIP3   OH235566   0.728   0.488   1.395 -0.2160  0.4003 -0.7594
 4644TIP3    H135567   0.819   0.517   1.386  0.1307 -0.5965 -0.6359
 4644TIP3    H235568   0.732   0.393   1.383 -1.3440  0.4179 -1.4484
 4645TIP3   OH235569   4.243   4.661   1.180  0.2247  0.1494  0.3539
 4645TIP3    H135570   4.287   4.740   1.150 -0.3352 -0.1496 -1.3955
 4645TIP3    H235571   4.195   4.688   1.258 -1.1219  1.9486 -1.0110
 4646TIP3   OH235572   4.184   1.364   1.730 -0.0090 -0.2581 -0.6386
 4646TIP3    H135573   4.196   1.404   1.816  0.7493 -2.2208  0.2273
 4646TIP3    H235574   4.140   1.281   1.748  1.9917 -1.6806 -1.8710
 4647TIP3   OH235575   0.432   6.642   7.319 -0.0021  0.0263  0.0327
 4647TIP3    H135576   0.507   6.599   7.362 -0.9531 -0.2770  1.4809
 4647TIP3    H235577   0.371   6.570   7.301 -0.2051  0.3507 -0.5992
 4648TIP3   OH235578   3.186   2.814   0.126  0.3746 -0.3347 -0.6076
 4648TIP3    H135579   3.239   2.741   0.094  0.7431  0.1207 -1.0712
 4648TIP3    H235580   3.099   2.777   0.140  1.2010 -1.5503  1.9388
 4649TIP3   OH235581   1.359   4.253   6.596 -0.1571 -0.1030  0.2329
 4649TIP3    H135582   1.276   4.295   6.616  0.8843  2.1120  0.1078
 4649TIP3    H235583   1.334   4.164   6.568 -2.5276  0.7495 -0.6214
 4650TIP3   OH235584   0.297   6.374   7.921  0.1281 -0.0373  0.6288
 4650TIP3    H135585   0.338   6.287   7.915 -0.2385 -0.1664 -0.2503
 4650TIP3    H235586   0.209   6.356   7.956  0.4110  0.1100  1.4418
 4651TIP3   OH235587   4.768   0.869   0.897 -0.0376  0.3570 -0.0997
 4651TIP3    H135588   4.760   0.840   0.807  0.8071 -0.4097  0.0643
 4651TIP3    H235589   4.725   0.800   0.948 -1.8532  1.4912  0.0145
 4652TIP3   OH235590   6.095   3.040   6.277 -0.4985  0.3613  0.0875
 4652TIP3    H135591   6.182   3.077   6.266 -0.1612 -0.3114  0.4367
 4652TIP3    H235592   6.049   3.103   6.333 -0.7577  1.5022 -1.3594
 4653TIP3   OH235593   4.626   4.492   7.777  0.0659 -0.3159 -0.4453
 4653TIP3    H135594   4.605   4.420   7.718  1.6086 -1.5958  0.4660
 4653TIP3    H235595   4.708   4.528   7.742 -0.0214  0.1470 -0.1789
 4654TIP3   OH235596   4.097   2.957   8.647 -0.1307  0.3227  0.0659
 4654TIP3    H135597   4.128   3.009   8.721 -1.3644  0.2889  0.6254
 4654TIP3    H235598   4.031   3.012   8.605 -1.9474 -1.0050  1.0618
 4655TIP3   OH235599   1.515   4.239   8.171 -0.0746  0.6020 -0.3608
 4655TIP3    H135600   1.543   4.223   8.260  0.5873 -0.0342 -0.6753
 4655TIP3    H235601   1.593   4.227   8.118 -0.1725  2.1686 -0.9236
 4656TIP3   OH235602   4.252   1.830   0.651 -0.2287  0.1438  0.0883
 4656TIP3    H135603   4.284   1.813   0.739  1.1132  1.8069 -0.0182
 4656TIP3    H235604   4.259   1.746   0.605 -1.8598 -0.9943  1.7681
 4657TIP3   OH235605   6.679   4.963   0.257 -0.0049 -0.0810 -0.1773
 4657TIP3    H135606   6.699   5.040   0.311  0.5903 -0.0844 -0.3822
 4657TIP3    H235607   6.585   4.968   0.242 -0.2024 -0.1308  0.9389
 4658TIP3   OH235608   3.153   2.400   7.820 -0.1362 -0.2935 -0.9205
 4658TIP3    H135609   3.160   2.489   7.784  0.4581 -0.0419 -0.2046
 4658TIP3    H235610   3.241   2.380   7.851  0.0007 -1.5417 -1.9906
 4659TIP3   OH235611   2.568   4.150   7.512  0.0464  0.7010 -0.0720
 4659TIP3    H135612   2.573   4.117   7.602  0.8724  1.8765  0.3302
 4659TIP3    H235613   2.550   4.243   7.521  0.7052  0.9462 -1.1111
 4660TIP3   OH235614   1.807   5.375   0.905 -0.5817  0.7113  0.6180
 4660TIP3    H135615   1.718   5.361   0.874 -1.5458  2.7295  2.2768
 4660TIP3    H235616   1.824   5.468   0.890  0.8612  0.5943  1.2829
 4661TIP3   OH235617   0.798   6.275   0.589  0.1107 -0.4334 -0.0364
 4661TIP3    H135618   0.877   6.294   0.539 -1.0097  1.3813 -1.2716
 4661TIP3    H235619   0.759   6.200   0.544 -0.5991  0.8372 -1.6708
 4662TIP3   OH235620   5.376   3.578   6.426 -0.3181  0.0392 -0.0881
 4662TIP3    H135621   5.362   3.483   6.416 -0.0449 -0.2724  1.9888
 4662TIP3    H235622   5.471   3.588   6.426 -0.3263  0.1669  0.6741
 4663TIP3   OH235623   2.476   1.359   7.047  0.2574 -0.0021 -0.2851
 4663TIP3    H135624   2.564   1.390   7.068  1.3720 -0.8877 -3.1583
 4663TIP3    H235625   2.487   1.310   6.966 -2.3708 -2.9554  0.9326
 4664TIP3   OH235626   1.814   5.962   7.323 -0.2128  0.2187 -0.6390
 4664TIP3    H135627   1.809   6.052   7.355  2.5939  0.2534 -0.0273
 4664TIP3    H235628   1.785   5.967   7.232 -1.5273  1.4428 -0.1780
 4665TIP3   OH235629   3.257   2.643   1.222 -0.3562 -0.2990  0.6291
 4665TIP3    H135630   3.337   2.591   1.222 -0.2678 -0.1703  0.0333
 4665TIP3    H235631   3.260   2.692   1.305  0.8171  0.6551  0.0588
 4666TIP3   OH235632   0.136   5.214   6.855  0.1941 -0.2646 -0.1759
 4666TIP3    H135633   0.187   5.136   6.833  2.7255  1.3070 -0.3387
 4666TIP3    H235634   0.175   5.283   6.802 -0.6236  1.5088  1.4258
 4667TIP3   OH235635   3.878   2.201   0.599 -0.0452 -0.1709  0.0070
 4667TIP3    H135636   3.971   2.222   0.587 -0.1388  1.1780  1.3447
 4667TIP3    H235637   3.879   2.114   0.639  0.5429 -0.9252 -1.5566
 4668TIP3   OH235638   4.456   5.853   1.739  0.0857 -0.3038 -0.6514
 4668TIP3    H135639   4.511   5.775   1.731  1.1777  0.3253  0.4016
 4668TIP3    H235640   4.463   5.897   1.655  1.1359 -0.2863 -0.5608
 4669TIP3   OH235641   0.665   3.280   0.336  0.6362  0.3383  0.3724
 4669TIP3    H135642   0.576   3.292   0.369  0.0210 -1.3384 -0.5005
 4669TIP3    H235643   0.719   3.271   0.414  0.0967  1.6592  0.9206
 4670TIP3   OH235644   1.650   4.839   0.067 -0.2839 -0.0130  0.5538
 4670TIP3    H135645   1.731   4.867   0.111 -0.7782 -0.2711  1.6636
 4670TIP3    H235646   1.580   4.870   0.124 -0.9390 -0.7055  0.1450
 4671TIP3   OH235647   5.171   2.407   1.742 -0.3544  0.2473  0.3707
 4671TIP3    H135648   5.169   2.456   1.824  2.6524 -2.3055  2.1859
 4671TIP3    H235649   5.118   2.328   1.759  0.5116 -0.4344 -0.0146
 4672TIP3   OH235650   6.001   0.699   0.795  0.5853 -0.0769 -0.1434
 4672TIP3    H135651   6.008   0.790   0.822  1.1554  0.1668 -1.0687
 4672TIP3    H235652   6.075   0.656   0.837  1.6504  0.3632 -1.4973
 4673TIP3   OH235653   6.709   5.809   1.509 -0.2874 -0.3359 -0.6208
 4673TIP3    H135654   6.758   5.734   1.542 -0.8023 -0.2979  0.2569
 4673TIP3    H235655   6.776   5.874   1.489  0.0583 -0.3887  0.3009
 4674TIP3   OH235656   4.130   6.473   7.892  0.6991  0.9200 -0.3636
 4674TIP3    H135657   4.147   6.475   7.986 -1.5290  0.9282  0.0961
 4674TIP3    H235658   4.131   6.565   7.865  0.2185  0.9999 -0.1114
 4675TIP3   OH235659   2.600   1.505   8.331  0.2611  0.2753 -0.1068
 4675TIP3    H135660   2.510   1.537   8.323 -0.0736 -0.4639  0.5311
 4675TIP3    H235661   2.628   1.489   8.241 -0.3704  0.1812 -0.2911
 4676TIP3   OH235662   0.132   5.911   8.164 -0.1170  0.2196 -0.2309
 4676TIP3    H135663   0.147   5.883   8.254  0.5361 -0.3853 -0.5223
 4676TIP3    H235664   0.179   5.994   8.157 -0.7701  0.6391  0.1821
 4677TIP3   OH235665   3.826   3.459   7.232  0.6353 -0.3469 -0.6867
 4677TIP3    H135666   3.848   3.419   7.148 -0.7345  0.3974 -1.4322
 4677TIP3    H235667   3.754   3.407   7.266 -0.7445  1.0507 -1.3727
 4678TIP3   OH235668   4.302   3.445   0.676  0.9066  0.1350 -0.6604
 4678TIP3    H135669   4.366   3.374   0.660  0.2666 -0.4031 -0.8734
 4678TIP3    H235670   4.245   3.443   0.600 -2.2551 -2.5176  1.4491
 4679TIP3   OH235671   2.011   2.471   1.614 -0.3018  1.3343 -0.3824
 4679TIP3    H135672   2.105   2.487   1.619 -0.1157  0.1687  0.4763
 4679TIP3    H235673   1.982   2.517   1.536  1.0498  1.3887 -0.8715
 4680TIP3   OH235674   0.396   0.921   0.863 -0.3247 -0.4625  0.0398
 4680TIP3    H135675   0.480   0.966   0.862 -0.0474 -0.9200  1.5023
 4680TIP3    H235676   0.348   0.960   0.790  1.0893 -0.0980 -0.7345
 4681TIP3   OH235677   1.321   2.866   0.598  0.0322  0.4560 -0.0594
 4681TIP3    H135678   1.327   2.792   0.538 -1.3280  0.7977 -0.6696
 4681TIP3    H235679   1.399   2.918   0.580  0.9928 -0.8148  0.3700
 4682TIP3   OH235680   6.879   6.379   7.507  0.4398  0.5111 -0.2268
 4682TIP3    H135681   6.845   6.468   7.519 -1.0062  0.4906 -3.1607
 4682TIP3    H235682   6.804   6.322   7.527 -1.0160  0.3839 -4.9196
 4683TIP3   OH235683   3.221   1.477   0.610  0.4942 -0.6122  0.5305
 4683TIP3    H135684   3.240   1.562   0.651  2.2833  0.1661 -1.7729
 4683TIP3    H235685   3.160   1.436   0.671  0.7196  1.6877  2.4789
 4684TIP3   OH235686   2.267   1.895   1.171  0.1464  0.2801 -0.0520
 4684TIP3    H135687   2.198   1.870   1.109  1.4168 -1.3390 -0.8843
 4684TIP3    H235688   2.313   1.966   1.127  0.6858 -0.4787 -0.7470
 4685TIP3   OH235689   3.420   0.374   8.491 -0.2255 -0.2694  0.1291
 4685TIP3    H135690   3.326   0.394   8.485 -0.0549  0.5189 -0.0997
 4685TIP3    H235691   3.456   0.401   8.406  0.1259 -1.0553  0.0205
 4686TIP3   OH235692   2.642   3.010   8.121 -0.6102 -0.4984 -0.1402
 4686TIP3    H135693   2.699   2.935   8.107  0.5268  0.4835 -0.9322
 4686TIP3    H235694   2.620   3.040   8.033 -2.3055 -0.7956  0.1434
 4687TIP3   OH235695   5.326   0.011   1.478  0.1564 -0.1512 -0.0071
 4687TIP3    H135696   5.281  -0.073   1.483 -1.0328  0.4802  0.4692
 4687TIP3    H235697   5.264   0.073   1.518  0.2253  1.2514 -1.9424
 4688TIP3   OH235698   5.902   4.124   1.962  0.3241 -0.3641 -0.1497
 4688TIP3    H135699   5.810   4.095   1.962 -0.3149  1.5396 -1.1021
 4688TIP3    H235700   5.939   4.083   2.040 -1.7736  0.1353  1.2046
 4689TIP3   OH235701   6.436   3.866   7.683  0.2013 -0.1904 -0.0893
 4689TIP3    H135702   6.470   3.925   7.750 -2.0512 -0.0368  1.0111
 4689TIP3    H235703   6.445   3.778   7.721 -2.0698 -0.0255  0.9694
 4690TIP3   OH235704   0.424   1.097   1.544 -0.0380  0.5166 -0.1068
 4690TIP3    H135705   0.495   1.098   1.480  0.9556  1.5100  0.9550
 4690TIP3    H235706   0.386   1.009   1.537 -0.1008  0.6562 -2.1593
 4691TIP3   OH235707   1.695   6.045   8.539 -0.2964 -0.0738 -0.4545
 4691TIP3    H135708   1.694   6.072   8.631 -1.4927  0.7294 -0.6915
 4691TIP3    H235709   1.682   5.951   8.542 -0.4157 -0.0433  0.1921
 4692TIP3   OH235710   5.695   4.997   2.077 -0.4181  0.6485  0.1814
 4692TIP3    H135711   5.748   4.960   2.007  2.1635 -0.1433  2.3713
 4692TIP3    H235712   5.753   5.058   2.122 -1.0070 -0.7797  3.1273
 4693TIP3   OH235713   1.509   0.254   0.505  0.1314 -0.7263 -0.1391
 4693TIP3    H135714   1.588   0.202   0.522 -0.1674 -1.1852 -0.1403
 4693TIP3    H235715   1.483   0.286   0.591  0.5142 -0.2864 -0.1838
 4694TIP3   OH235716   2.976   1.013   7.036  0.3776 -0.1286  0.2899
 4694TIP3    H135717   3.013   1.006   6.947 -2.2118 -0.9928 -0.8113
 4694TIP3    H235718   3.048   0.987   7.093  2.2602  0.8154 -1.5044
 4695TIP3   OH235719   2.742   1.506   8.077  0.1022 -0.0828  0.1856
 4695TIP3    H135720   2.789   1.576   8.031 -0.0295 -0.2949 -0.2730
 4695TIP3    H235721   2.810   1.446   8.106  0.1911  0.0817  0.3185
 4696TIP3   OH235722   2.406   1.121   1.004  0.6376  0.2000 -0.0638
 4696TIP3    H135723   2.402   1.143   1.097 -1.3901 -0.4131  0.0508
 4696TIP3    H235724   2.410   1.025   1.002  1.3111  0.2276 -0.6267
 4697TIP3   OH235725   2.820   0.099   1.343 -0.9517 -0.0127  0.1944
 4697TIP3    H135726   2.806   0.097   1.248  0.0035 -0.5581  0.0521
 4697TIP3    H235727   2.744   0.053   1.379 -1.5826  0.6422 -0.2598
 4698TIP3   OH235728   3.756   0.664   7.642  0.1724  0.0169  0.4130
 4698TIP3    H135729   3.799   0.584   7.609 -0.7765 -0.5781  0.5699
 4698TIP3    H235730   3.663   0.643   7.640  0.0013  0.4298  2.2651
 4699TIP3   OH235731   2.351   2.881   6.482 -0.2307  0.7161 -0.3729
 4699TIP3    H135732   2.400   2.800   6.469 -0.1373  1.0584 -2.5159
 4699TIP3    H235733   2.405   2.932   6.543  1.2260  0.3662 -1.3156
 4700TIP3   OH235734   1.116   5.088   8.169  0.0347  0.3641 -0.4034
 4700TIP3    H135735   1.113   5.177   8.134 -1.3200  1.2424  1.7200
 4700TIP3    H235736   1.145   5.034   8.096 -0.8708  2.2952 -2.2961
 4701TIP3   OH235737   2.983   5.934   1.756 -0.3673  0.0811  0.2869
 4701TIP3    H135738   3.051   6.001   1.749  0.3696 -0.3122  2.8387
 4701TIP3    H235739   3.019   5.870   1.817 -2.1063 -1.3596 -0.1275
 4702TIP3   OH235740   1.984   1.361   7.078 -0.5476 -0.0650  0.1256
 4702TIP3    H135741   2.075   1.342   7.053 -0.4381  0.2519  0.2768
 4702TIP3    H235742   1.942   1.386   6.995 -0.4081  0.1295  0.1133
 4703TIP3   OH235743   3.207   3.913   7.221 -0.1812 -0.4740 -0.3125
 4703TIP3    H135744   3.195   3.821   7.247 -0.9921 -0.4663 -0.6218
 4703TIP3    H235745   3.137   3.929   7.158  0.7667 -0.0219 -1.2778
 4704TIP3   OH235746   0.729   6.478   6.634  1.0583 -0.5854 -0.1201
 4704TIP3    H135747   0.812   6.454   6.675  1.4791  0.3798 -0.3923
 4704TIP3    H235748   0.676   6.398   6.640  0.8234 -0.3167  2.9589
 4705TIP3   OH235749   6.418   3.786   1.514  0.4846 -0.2112  0.8677
 4705TIP3    H135750   6.436   3.717   1.451  1.1712  0.2680  0.5220
 4705TIP3    H235751   6.407   3.741   1.598  3.2193 -0.5903  1.0986
 4706TIP3   OH235752   2.775   6.411   6.877 -0.3569  0.4109 -0.4271
 4706TIP3    H135753   2.782   6.414   6.973 -1.2369  1.6604 -0.3733
 4706TIP3    H235754   2.779   6.318   6.856  1.9385  0.1874  0.6304
 4707TIP3   OH235755   0.104   5.379   0.109  0.0812 -0.1898  0.2998
 4707TIP3    H135756   0.065   5.298   0.077 -0.6204 -0.0060  0.6709
 4707TIP3    H235757   0.129   5.360   0.200 -1.0567  0.3210  0.7336
 4708TIP3   OH235758   1.559   5.237   2.171 -0.0669  0.2568 -0.4498
 4708TIP3    H135759   1.479   5.277   2.206 -0.2939 -0.5857  0.0179
 4708TIP3    H235760   1.616   5.311   2.152 -0.9107  0.8675 -0.6739
 4709TIP3   OH235761   3.796   0.541   8.211  0.1191 -0.4518  0.0536
 4709TIP3    H135762   3.718   0.555   8.264  0.0801 -2.7492  0.7056
 4709TIP3    H235763   3.763   0.524   8.123  0.0303  0.6034 -0.1289
 4710TIP3   OH235764   6.409   5.013   2.552 -0.4945  0.2521  0.3008
 4710TIP3    H135765   6.481   4.989   2.494 -0.6088  0.7402 -0.0507
 4710TIP3    H235766   6.352   5.068   2.499 -2.3197 -1.8922 -0.1051
 4711TIP3   OH235767   1.517   5.155   0.249 -0.1189 -0.1238 -0.0698
 4711TIP3    H135768   1.609   5.127   0.251 -0.7875 -3.0321 -2.5630
 4711TIP3    H235769   1.474   5.101   0.314 -0.6414 -1.6757 -1.6367
 4712TIP3   OH235770   5.427   5.689   1.859 -0.1493  0.1610 -0.2816
 4712TIP3    H135771   5.412   5.599   1.888  2.2334  0.3023  1.7247
 4712TIP3    H235772   5.466   5.681   1.772 -0.1104 -0.7428 -0.1855
 4713TIP3   OH235773   3.170   3.711   2.089  0.4082 -0.0779  0.6586
 4713TIP3    H135774   3.104   3.717   2.159 -1.0647 -1.4901 -0.5514
 4713TIP3    H235775   3.206   3.623   2.098  1.2606  0.2394  0.4940
 4714TIP3   OH235776   4.660   0.577   1.691 -0.1163  0.1458 -0.3571
 4714TIP3    H135777   4.671   0.571   1.786  0.2592  1.1979 -0.3209
 4714TIP3    H235778   4.605   0.502   1.669  2.2655 -1.9152  0.2662
 4715TIP3   OH235779   2.416   3.096   0.420  0.1221 -0.0582 -0.8915
 4715TIP3    H135780   2.474   3.052   0.483  1.0060 -0.1268 -1.7247
 4715TIP3    H235781   2.455   3.076   0.335 -2.6608 -2.4407 -1.7487
 4716TIP3   OH235782   3.668   6.901   8.206  0.2315 -0.2659 -0.1626
 4716TIP3    H135783   3.750   6.889   8.159  0.1414  0.7248 -0.5784
 4716TIP3    H235784   3.635   6.986   8.177  0.0391  0.2563  1.4776
 4717TIP3   OH235785   2.363   4.370   7.146 -0.0422 -0.8872 -0.0442
 4717TIP3    H135786   2.269   4.383   7.135  0.0327 -0.4238 -0.1333
 4717TIP3    H235787   2.370   4.298   7.209 -0.4509 -0.3153  0.6547
 4718TIP3   OH235788   0.467   1.794   6.889  0.2408 -0.2358  0.0497
 4718TIP3    H135789   0.422   1.780   6.805  1.7480 -1.0642 -0.6591
 4718TIP3    H235790   0.454   1.887   6.907  0.1027  0.0181 -1.2454
 4719TIP3   OH235791   5.308   5.506   0.015  0.5224  0.0723 -0.2894
 4719TIP3    H135792   5.322   5.469  -0.072  2.3212  1.0809 -0.4789
 4719TIP3    H235793   5.334   5.435   0.075  0.2690 -0.2667 -0.5724
 4720TIP3   OH235794   0.355   2.834   8.501 -0.1421  0.6156  0.0938
 4720TIP3    H135795   0.414   2.821   8.575 -2.1518 -0.6789  1.5819
 4720TIP3    H235796   0.267   2.829   8.540 -1.2885 -0.4304 -2.4255
 4721TIP3   OH235797   1.586   6.700   0.358  0.1564  0.5802 -0.0069
 4721TIP3    H135798   1.532   6.765   0.314 -0.2989  0.0767 -0.2075
 4721TIP3    H235799   1.527   6.625   0.372  1.0970 -0.4489 -1.3004
 4722TIP3   OH235800   3.502   4.699   8.284 -0.1738  0.3600 -0.7393
 4722TIP3    H135801   3.516   4.726   8.375 -0.7412  1.9842 -1.0894
 4722TIP3    H235802   3.556   4.621   8.273 -0.7211 -0.3447  1.2066
 4723TIP3   OH235803   6.232   0.649   0.922 -0.2739 -0.0710  0.0148
 4723TIP3    H135804   6.262   0.719   0.864 -1.1450  0.0509 -0.3178
 4723TIP3    H235805   6.302   0.637   0.985  1.2713 -1.0321 -1.7746
 4724TIP3   OH235806   2.770   2.387   1.804  0.2612 -0.0415 -0.5366
 4724TIP3    H135807   2.687   2.433   1.803 -0.1280 -0.7010  0.1412
 4724TIP3    H235808   2.826   2.437   1.745 -0.6940  0.2511 -1.2200
 4725TIP3   OH235809   0.292   2.592   7.926 -0.0906 -0.0812 -0.0210
 4725TIP3    H135810   0.228   2.653   7.888  0.8000  1.2524  0.5341
 4725TIP3    H235811   0.375   2.615   7.884  0.2070 -1.1560 -0.0403
 4726TIP3   OH235812   6.491   5.655   6.967 -0.8974 -0.4340 -0.0609
 4726TIP3    H135813   6.530   5.739   6.945 -0.6595 -0.0647  1.6192
 4726TIP3    H235814   6.424   5.676   7.032 -1.2321 -1.4800 -0.0473
 4727TIP3   OH235815   3.872   3.609   7.654 -0.4845 -0.3201  0.6881
 4727TIP3    H135816   3.841   3.640   7.569  4.3161 -1.4020 -1.8417
 4727TIP3    H235817   3.861   3.514   7.650 -1.8172 -0.2606  2.1207
 4728TIP3   OH235818   2.526   1.533   8.635  0.2109  0.1265 -0.7808
 4728TIP3    H135819   2.596   1.578   8.682 -1.3441  0.5564  1.2457
 4728TIP3    H235820   2.495   1.598   8.571 -0.4787  1.1434  0.5451
 4729TIP3   OH235821   3.858   1.962   8.664 -0.0869 -0.3052 -0.3309
 4729TIP3    H135822   3.815   1.975   8.579 -0.1265 -2.5818 -0.7198
 4729TIP3    H235823   3.814   1.885   8.701  1.0628 -0.3508  1.0055
 4730TIP3   OH235824   4.052   1.027   0.928 -0.0866 -0.4617 -0.9093
 4730TIP3    H135825   3.973   1.002   0.975  0.4243 -1.4283 -0.5390
 4730TIP3    H235826   4.036   1.117   0.900 -0.2396  0.3091  1.4702
 4731TIP3   OH235827   2.112   3.681   0.924 -0.1291  0.1464 -0.5561
 4731TIP3    H135828   2.151   3.694   0.837 -0.7367  2.8709 -0.5105
 4731TIP3    H235829   2.093   3.770   0.956  2.1406 -0.5076  3.3401
 4732TIP3   OH235830   4.451   3.587   1.611  0.0559  0.2539  0.1590
 4732TIP3    H135831   4.415   3.608   1.524 -0.6894 -0.4836  0.2684
 4732TIP3    H235832   4.513   3.516   1.595 -1.1603 -0.8987  0.3802
 4733TIP3   OH235833   3.113   5.998   7.150  0.3888  0.0145 -0.0676
 4733TIP3    H135834   3.140   6.082   7.188 -0.9257  0.7623 -0.7179
 4733TIP3    H235835   3.153   5.997   7.063 -0.8077  0.6689 -0.6430
 4734TIP3   OH235836   0.480   1.821   6.170  0.1380 -0.3978  0.5501
 4734TIP3    H135837   0.546   1.873   6.215 -0.6393 -0.5782  1.9392
 4734TIP3    H235838   0.444   1.880   6.103  1.1883 -0.0779  0.2532
 4735TIP3   OH235839   5.921   3.824   8.024 -0.4614  0.1468 -0.7615
 4735TIP3    H135840   6.012   3.806   8.002 -0.4494 -1.3142  0.3445
 4735TIP3    H235841   5.910   3.918   8.006  1.2724  0.3668 -0.8500
 4736TIP3   OH235842   5.475   2.144   8.653  0.2933 -0.2118 -0.3769
 4736TIP3    H135843   5.493   2.108   8.566 -0.3736 -1.1459 -0.1477
 4736TIP3    H235844   5.431   2.072   8.700  1.8777 -0.2215  1.1930
 4737TIP3   OH235845   2.784   2.646   0.093  0.3709  0.2094 -0.2056
 4737TIP3    H135846   2.821   2.688   0.015  0.0142  1.5099  0.2865
 4737TIP3    H235847   2.860   2.612   0.140  0.6854  0.4020 -0.5614
 4738TIP3   OH235848   1.797   2.615   7.781  0.4480  0.1506 -0.5512
 4738TIP3    H135849   1.870   2.678   7.784  0.0325  0.6654 -0.9659
 4738TIP3    H235850   1.720   2.670   7.767  0.2105 -0.5495 -2.2187
 4739TIP3   OH235851   6.438   5.665   6.233 -0.7810 -0.0267  0.4684
 4739TIP3    H135852   6.411   5.752   6.205 -0.2593 -0.1501 -0.4826
 4739TIP3    H235853   6.372   5.606   6.197 -0.3891 -0.1368 -0.0989
 4740TIP3   OH235854   0.576   3.585   6.708  0.5106  0.5465 -0.1424
 4740TIP3    H135855   0.576   3.679   6.694  1.3242  0.5433 -0.1990
 4740TIP3    H235856   0.569   3.547   6.621  1.0104  0.5531 -0.1874
 4741TIP3   OH235857   1.202   6.492   0.637 -0.0263 -0.0631  1.0424
 4741TIP3    H135858   1.296   6.475   0.636  0.0109 -0.6994 -2.7850
 4741TIP3    H235859   1.194   6.587   0.644  0.7266 -0.1345  3.4924
 4742TIP3   OH235860   4.216   3.380   7.053  0.2393 -0.3894 -0.1338
 4742TIP3    H135861   4.168   3.428   6.986  0.9675 -0.6864 -0.8820
 4742TIP3    H235862   4.228   3.443   7.124  1.4159  0.6538 -1.2036
 4743TIP3   OH235863   2.398   1.740   7.554 -0.4151 -0.1218  0.0908
 4743TIP3    H135864   2.468   1.714   7.495 -0.8743 -1.0856 -0.0380
 4743TIP3    H235865   2.329   1.774   7.497 -0.1226  0.6842  0.2072
 4744TIP3   OH235866   6.849   3.033   7.335  0.5155  0.2650 -0.5700
 4744TIP3    H135867   6.894   3.071   7.410 -1.2058  1.1806  0.0665
 4744TIP3    H235868   6.800   2.959   7.371 -0.1799  0.6005 -0.7975
 4745TIP3   OH235869   3.412   4.253   6.589 -0.2458  0.2954  0.2307
 4745TIP3    H135870   3.382   4.305   6.514 -0.7618  0.1756  0.3521
 4745TIP3    H235871   3.377   4.165   6.573  1.8362 -0.4294 -0.7256
 4746TIP3   OH235872   1.066   4.576   8.571 -0.3268 -0.3483  0.4095
 4746TIP3    H135873   1.154   4.583   8.533 -1.2385  1.3211 -1.5581
 4746TIP3    H235874   1.075   4.510   8.640  2.6119  0.2241  0.7101
 4747TIP3   OH235875   4.971   6.616   8.081 -0.0736 -0.4183  0.3917
 4747TIP3    H135876   4.945   6.685   8.020 -1.5566  0.5334  1.9855
 4747TIP3    H235877   5.001   6.663   8.159  1.4433 -1.5937  0.5483
 4748TIP3   OH235878   4.985   4.858   1.971 -0.0095 -0.5527  0.0664
 4748TIP3    H135879   4.977   4.926   2.038 -1.6684  0.0961 -0.7296
 4748TIP3    H235880   5.001   4.778   2.021  3.9346  0.5765  0.9377
 4749TIP3   OH235881   2.264   1.632   7.784 -0.1245  0.0332  0.5725
 4749TIP3    H135882   2.286   1.541   7.765 -0.5404  0.4131 -2.1998
 4749TIP3    H235883   2.313   1.683   7.719 -1.1984  1.6441  0.9504
 4750TIP3   OH235884   1.598   5.843   1.976  0.1588 -0.0744 -0.0611
 4750TIP3    H135885   1.607   5.775   2.043 -0.9679 -0.0168  0.1660
 4750TIP3    H235886   1.606   5.925   2.024 -1.1313 -0.0266  0.0945
 4751TIP3   OH235887   6.249   3.586   7.419  0.5831 -0.7904  0.2017
 4751TIP3    H135888   6.183   3.641   7.461  2.5805  0.7316  1.5801
 4751TIP3    H235889   6.225   3.586   7.327 -1.2601 -0.2206  0.6292
 4752TIP3   OH235890   6.422   3.310   8.322  0.1378 -0.0456  0.2181
 4752TIP3    H135891   6.515   3.309   8.298  0.0104 -0.2535 -0.2839
 4752TIP3    H235892   6.385   3.232   8.281  0.3446 -1.7343  2.9786
 4753TIP3   OH235893   6.096   5.992   0.435  0.5488 -0.0304  0.6001
 4753TIP3    H135894   6.067   5.902   0.422  0.5281 -0.0843  1.0026
 4753TIP3    H235895   6.139   5.991   0.521  1.1079  0.2015  0.3283
 4754TIP3   OH235896   6.812   4.544   7.280  0.2432  0.2900  0.1050
 4754TIP3    H135897   6.844   4.634   7.268 -1.1472  0.6454 -1.2870
 4754TIP3    H235898   6.733   4.540   7.227  0.3032 -1.7937  0.1119
 4755TIP3   OH235899   1.163   3.183   1.442 -0.9193  0.1408  0.1724
 4755TIP3    H135900   1.083   3.137   1.419 -0.1061 -2.4951  2.0730
 4755TIP3    H235901   1.233   3.119   1.427  0.3641  0.9042  2.3089
 4756TIP3   OH235902   1.729   2.604   8.139  0.6704  0.3126  0.4666
 4756TIP3    H135903   1.765   2.551   8.210 -0.8680 -0.9611  0.3569
 4756TIP3    H235904   1.676   2.543   8.088  2.3950  1.0012 -2.3146
 4757TIP3   OH235905   4.104   0.879   8.034  0.2096  1.0144 -0.1534
 4757TIP3    H135906   4.083   0.904   7.944  0.1091  0.7966 -0.1912
 4757TIP3    H235907   4.079   0.787   8.040  1.0892  0.7674 -0.1775
 4758TIP3   OH235908   3.660   5.280   7.736  0.4316 -0.0441  0.2599
 4758TIP3    H135909   3.709   5.301   7.815 -0.9496  0.7557  0.9365
 4758TIP3    H235910   3.715   5.313   7.665  1.3816 -0.1749  0.9160
 4759TIP3   OH235911   4.430   2.852   7.416 -0.2618  0.0673  0.0983
 4759TIP3    H135912   4.489   2.854   7.340 -0.1146 -2.2292  0.0785
 4759TIP3    H235913   4.345   2.879   7.382 -0.1351 -0.6837 -0.8392
 4760TIP3   OH235914   5.083   0.439   1.253  0.5463 -0.4710 -0.2082
 4760TIP3    H135915   5.029   0.437   1.174  0.0086 -0.7858  0.1648
 4760TIP3    H235916   5.166   0.400   1.225  0.6700  0.2106 -0.8362
 4761TIP3   OH235917   4.859   0.487   1.071 -0.1569 -0.1800 -0.1051
 4761TIP3    H135918   4.826   0.494   0.982 -3.7798 -1.8448  0.9430
 4761TIP3    H235919   4.833   0.569   1.113 -0.8203 -0.4843  0.0860
 4762TIP3   OH235920   2.799   6.830   7.862  0.1089  0.1130 -0.4708
 4762TIP3    H135921   2.887   6.797   7.841  0.8534  0.1335  2.2118
 4762TIP3    H235922   2.802   6.922   7.838  1.6898  0.6923  1.6356
 4763TIP3   OH235923   0.675   6.187   8.437  0.2192  0.3655  0.4227
 4763TIP3    H135924   0.696   6.261   8.494  0.1286  0.6005  0.1542
 4763TIP3    H235925   0.617   6.132   8.490  1.6244 -0.3770  1.2346
 4764TIP3   OH235926   1.713   0.971   2.657 -0.6486  0.1429 -0.2883
 4764TIP3    H135927   1.687   0.904   2.594  0.7021  0.7464 -1.5535
 4764TIP3    H235928   1.785   0.931   2.707 -0.8704  0.1129  0.0096
 4765TIP3   OH235929   3.428   1.324   8.438 -0.2706  0.0756 -0.3337
 4765TIP3    H135930   3.478   1.271   8.500 -0.3655 -0.5525 -0.7793
 4765TIP3    H235931   3.337   1.317   8.468 -0.1598  0.8438  0.2098
 4766TIP3   OH235932   1.217   0.492   0.695 -0.4594  0.6946 -0.1459
 4766TIP3    H135933   1.294   0.516   0.747 -0.4270  0.9800 -0.3194
 4766TIP3    H235934   1.248   0.496   0.604 -0.4519 -0.0290 -0.1813
 4767TIP3   OH235935   1.657   3.709   8.333  0.1608 -0.0772  0.7394
 4767TIP3    H135936   1.637   3.668   8.417  0.3488  1.4552  1.5586
 4767TIP3    H235937   1.595   3.782   8.326  0.8703  0.4786  0.0656
 4768TIP3   OH235938   0.370   0.919   7.322 -0.1779  0.3934 -0.0396
 4768TIP3    H135939   0.356   0.916   7.227  3.1975 -0.5337 -0.6459
 4768TIP3    H235940   0.323   0.843   7.356 -2.3634  1.3525 -0.7239
 4769TIP3   OH235941   6.208   4.416   1.384 -0.7970 -0.3573 -0.3648
 4769TIP3    H135942   6.183   4.503   1.415  1.1553 -0.3417  1.3756
 4769TIP3    H235943   6.142   4.394   1.319 -2.1226  1.8459  0.1328
 4770TIP3   OH235944   1.080   5.961   2.031 -0.7314 -0.0794  0.6616
 4770TIP3    H135945   1.047   6.047   2.054 -0.1993  0.6706 -1.2076
 4770TIP3    H235946   1.006   5.902   2.044 -1.3784  0.8051  1.0690
 4771TIP3   OH235947   2.910   3.274   1.044 -0.3274 -0.0070  0.2487
 4771TIP3    H135948   2.940   3.342   0.983  2.5025 -0.3565  1.1068
 4771TIP3    H235949   2.868   3.209   0.987  1.7587 -0.0774 -1.3268
 4772TIP3   OH235950   0.771   2.260   0.283 -0.3520 -0.5909 -0.2762
 4772TIP3    H135951   0.750   2.197   0.214 -1.0486  0.1999 -0.7992
 4772TIP3    H235952   0.770   2.345   0.240  0.4708 -0.1990  0.4480
 4773TIP3   OH235953   1.049   3.645   1.750  0.1184 -0.3096  0.2637
 4773TIP3    H135954   0.984   3.603   1.805  0.8043 -1.0619  0.5118
 4773TIP3    H235955   1.100   3.700   1.809  1.4343 -1.8010  0.5989
 4774TIP3   OH235956   0.616   5.351   7.343 -0.6374 -0.3499 -0.0294
 4774TIP3    H135957   0.657   5.438   7.340 -0.7417 -0.2864  0.2677
 4774TIP3    H235958   0.685   5.291   7.316  0.3113 -0.4601  2.3491
 4775TIP3   OH235959   6.591   0.355   7.130  0.0038 -0.0630  1.0557
 4775TIP3    H135960   6.599   0.411   7.208 -0.6812  1.1840  0.2642
 4775TIP3    H235961   6.550   0.411   7.065 -0.8339 -1.5567  0.2530
 4776TIP3   OH235962   4.834   1.151   0.903 -0.2662  0.0879 -0.0923
 4776TIP3    H135963   4.927   1.132   0.891 -0.3564 -0.1798 -0.3735
 4776TIP3    H235964   4.791   1.066   0.896 -0.5459  0.2312 -0.1127
 4777TIP3   OH235965   5.317   3.381   1.807  0.4773  0.2721  0.2169
 4777TIP3    H135966   5.276   3.331   1.878  2.1981 -0.5729  0.6763
 4777TIP3    H235967   5.341   3.315   1.742  1.7278  0.6091  0.3021
 4778TIP3   OH235968   6.737   4.769   7.985  0.2825  0.4655 -0.0421
 4778TIP3    H135969   6.677   4.774   8.060 -0.4638  2.8332 -0.7029
 4778TIP3    H235970   6.691   4.716   7.920 -1.0613  2.0148 -0.4348
 4779TIP3   OH235971   0.245   2.396   7.044  0.3412  0.7457 -0.0147
 4779TIP3    H135972   0.262   2.475   6.993 -0.9610  0.4171 -1.0216
 4779TIP3    H235973   0.262   2.324   6.983 -0.0074  0.3091  0.3903
 4780TIP3   OH235974   1.439   3.783   6.665 -0.1939 -0.2214  0.2565
 4780TIP3    H135975   1.361   3.733   6.691 -1.1296  1.5237  0.9392
 4780TIP3    H235976   1.409   3.837   6.592  0.6199 -0.1428 -0.0309
 4781TIP3   OH235977   2.246   1.096   7.583  0.4678  0.2815  0.0702
 4781TIP3    H135978   2.321   1.043   7.557  1.0125  1.3189 -0.5691
 4781TIP3    H235979   2.172   1.057   7.537  0.4258 -1.3350  1.4538
 4782TIP3   OH235980   4.784   0.235   1.001  0.1463  0.3471 -0.1817
 4782TIP3    H135981   4.689   0.234   1.009  0.0680 -0.1652 -1.0510
 4782TIP3    H235982   4.809   0.324   1.025 -0.6101  0.6531 -0.4768
 4783TIP3   OH235983   2.179   4.948   8.072  0.5652 -0.5258 -0.3570
 4783TIP3    H135984   2.246   5.006   8.035 -0.0369  1.2732  1.2108
 4783TIP3    H235985   2.119   4.931   8.000  1.7899 -0.8006 -1.3423
 4784TIP3   OH235986   2.917   0.537   0.390  0.1068  0.2606 -0.9958
 4784TIP3    H135987   2.966   0.581   0.461 -0.3068 -0.8460  0.0125
 4784TIP3    H235988   2.857   0.604   0.357  1.4102  1.2752 -1.4139
 4785TIP3   OH235989   4.710   0.002   5.970  0.4004  0.0012  0.0649
 4785TIP3    H135990   4.680   0.020   6.059 -1.6238 -0.1299 -0.5613
 4785TIP3    H235991   4.674  -0.083   5.949  4.3211 -2.0126  0.5412
 4786TIP3   OH235992   5.768   1.128   1.705 -0.0296 -0.2584 -0.0402
 4786TIP3    H135993   5.815   1.088   1.778 -0.5900 -1.3520 -0.2550
 4786TIP3    H235994   5.729   1.208   1.741 -1.1383 -1.2866  1.1400
 4787TIP3   OH235995   4.302   1.083   1.601  0.6866 -0.0858 -0.3599
 4787TIP3    H135996   4.287   1.166   1.557 -0.0622 -0.2551 -0.4379
 4787TIP3    H235997   4.351   1.106   1.681 -0.6157  0.5939  0.2694
 4788TIP3   OH235998   0.582   5.763   0.679  0.7677 -0.1445 -0.1377
 4788TIP3    H135999   0.636   5.690   0.710  0.0845 -0.0925  1.2556
 4788TIP3    H236000   0.496   5.748   0.719  0.1875  0.6291 -1.0410
 4789TIP3   OH236001   4.605   2.450   1.647 -0.1709  0.2955 -0.1115
 4789TIP3    H136002   4.673   2.512   1.674  0.5582 -0.3361 -0.4436
 4789TIP3    H236003   4.622   2.434   1.555 -0.4891 -0.2201 -0.0863
 4790TIP3   OH236004   3.358   0.652   8.358  0.2798 -0.3235  0.3561
 4790TIP3    H136005   3.303   0.580   8.387  0.9950 -0.1008  2.4284
 4790TIP3    H236006   3.340   0.723   8.421 -0.2793  1.2795 -1.5049
 4791TIP3   OH236007   6.115   3.007   8.372 -0.3412 -0.3519 -0.3005
 4791TIP3    H136008   6.205   2.995   8.344  0.4808  2.3774  0.7939
 4791TIP3    H236009   6.069   3.040   8.295 -0.1672 -0.8126 -0.6010
 4792TIP3   OH236010   4.140   4.053   6.565  0.1765  0.0837 -0.2030
 4792TIP3    H136011   4.195   3.982   6.598  2.2399  1.1493 -1.1338
 4792TIP3    H236012   4.190   4.133   6.582 -2.0119  1.3648  0.7161
 4793TIP3   OH236013   3.678   2.954   8.573  0.2203  0.0470  0.1049
 4793TIP3    H136014   3.590   2.968   8.608 -0.6396 -1.0673 -1.4864
 4793TIP3    H236015   3.664   2.905   8.492  2.4272 -1.8135  0.7622
 4794TIP3   OH236016   6.556   5.802   1.289 -0.2448 -0.0888  0.4897
 4794TIP3    H136017   6.476   5.753   1.305  0.6700 -1.7568  0.2537
 4794TIP3    H236018   6.601   5.803   1.373 -0.5322  0.9223  0.6454
 4795TIP3   OH236019   3.995   5.493   6.573  0.1222  0.5807 -0.4574
 4795TIP3    H136020   4.034   5.525   6.654  2.9151  0.4849 -1.6663
 4795TIP3    H236021   3.920   5.551   6.559  0.4751  1.5697  1.3920
 4796TIP3   OH236022   3.084   5.705   1.883 -0.3629  0.0196 -0.1053
 4796TIP3    H136023   3.075   5.646   1.959 -0.6631 -2.6881 -2.1012
 4796TIP3    H236024   3.173   5.689   1.852  0.5387  2.7163  0.8050
 4797TIP3   OH236025   1.329   1.805   0.474 -0.0593  0.4799  0.7055
 4797TIP3    H136026   1.256   1.819   0.413  0.0456  0.0032  0.4597
 4797TIP3    H236027   1.289   1.805   0.560  0.0773  3.4477  0.8733
 4798TIP3   OH236028   2.863   3.582   7.875 -0.1102  0.3939  0.1981
 4798TIP3    H136029   2.803   3.643   7.831  0.5735 -0.2099 -1.6386
 4798TIP3    H236030   2.806   3.520   7.920 -0.8918 -0.0618 -1.3717
 4799TIP3   OH236031   4.811   5.430   7.246  0.5187 -0.5340  0.5770
 4799TIP3    H136032   4.896   5.448   7.206  1.0884 -2.2378  0.9385
 4799TIP3    H236033   4.774   5.517   7.265  1.3490  0.2683 -1.2510
 4800TIP3   OH236034   6.444   4.568   0.348  0.1999  0.0812  0.1484
 4800TIP3    H136035   6.500   4.646   0.343  1.4412 -0.8246 -0.7305
 4800TIP3    H236036   6.497   4.503   0.394 -0.2966 -0.6495 -0.2802
 4801TIP3   OH236037   1.594   1.227   2.762 -0.0998  0.1718 -0.8074
 4801TIP3    H136038   1.659   1.295   2.745  2.3319 -2.0112 -1.0386
 4801TIP3    H236039   1.635   1.147   2.729 -1.4562 -1.8995  2.0892
 4802TIP3   OH236040   5.703   0.498   7.831 -0.3687  0.5493  0.0821
 4802TIP3    H136041   5.631   0.497   7.894  0.7165  0.7618  1.3488
 4802TIP3    H236042   5.758   0.572   7.857  0.3483  0.3606 -0.8286
 4803TIP3   OH236043   4.756   6.815   0.502  0.2283 -0.3006  0.5521
 4803TIP3    H136044   4.683   6.856   0.455  1.0112  0.5509  0.0335
 4803TIP3    H236045   4.715   6.747   0.555 -0.7697 -0.9289 -0.9313
 4804TIP3   OH236046   0.185   2.168   0.801 -0.0760 -0.1107 -0.5463
 4804TIP3    H136047   0.158   2.088   0.757 -1.2262 -0.5051  0.8245
 4804TIP3    H236048   0.242   2.138   0.872  2.0049  0.5387 -1.8424
 4805TIP3   OH236049   4.220   6.301   5.926  0.1439 -0.3295 -0.7731
 4805TIP3    H136050   4.134   6.341   5.922  0.1106 -0.3899 -0.6804
 4805TIP3    H236051   4.203   6.211   5.957  0.2823 -0.2014 -0.3139
 4806TIP3   OH236052   0.205   1.547   0.389  0.4529  0.7437  0.3195
 4806TIP3    H136053   0.263   1.471   0.381  0.0854  0.0954  2.7794
 4806TIP3    H236054   0.240   1.595   0.464 -0.3764  2.0536 -0.0972
 4807TIP3   OH236055   4.888   2.662   2.174 -0.5122 -0.1585 -0.2990
 4807TIP3    H136056   4.883   2.566   2.182 -0.8167 -0.0844  0.5147
 4807TIP3    H236057   4.930   2.690   2.255  1.9561  0.2217 -1.6307
 4808TIP3   OH236058   1.854   0.100   1.386  0.4883 -0.0168  0.3696
 4808TIP3    H136059   1.817   0.174   1.337  1.4878 -0.8604 -1.7852
 4808TIP3    H236060   1.948   0.115   1.384  0.7575 -1.6202 -0.6661
 4809TIP3   OH236061   6.013   5.661   5.922 -0.2245 -0.3582  0.7063
 4809TIP3    H136062   6.030   5.602   5.995  1.6733 -2.8523 -1.5824
 4809TIP3    H236063   5.944   5.619   5.872 -0.8320  0.8456  0.4810
 4810TIP3   OH236064   4.166   3.877   0.128  0.0594  0.0731  0.2277
 4810TIP3    H136065   4.122   3.870   0.213  1.6305  0.5344  1.1355
 4810TIP3    H236066   4.120   3.948   0.083  0.5087  1.3004  1.5887
 4811TIP3   OH236067   1.734   2.256   7.548  0.3296  0.0486 -0.4925
 4811TIP3    H136068   1.688   2.198   7.609  0.2882 -0.2499 -0.8045
 4811TIP3    H236069   1.827   2.243   7.568  0.2922  0.3787 -0.1073
 4812TIP3   OH236070   4.553   0.148   1.134  0.2224  0.3284  0.7338
 4812TIP3    H136071   4.595   0.206   1.197 -0.0058  0.2104  0.9959
 4812TIP3    H236072   4.508   0.083   1.188  0.0874  0.1851  0.4485
 4813TIP3   OH236073   4.801   0.310   0.559 -0.1178 -0.3992 -0.4682
 4813TIP3    H136074   4.821   0.266   0.476 -0.4753 -0.1552 -0.6833
 4813TIP3    H236075   4.864   0.272   0.621  1.1233  0.4543 -1.1581
 4814TIP3   OH236076   2.916   3.468   2.406  0.1269 -0.1884 -0.4642
 4814TIP3    H136077   2.975   3.492   2.478 -2.4120 -1.6048  2.3101
 4814TIP3    H236078   2.969   3.414   2.348  2.4130  1.4040  0.0065
 4815TIP3   OH236079   2.958   3.186   6.504 -0.3371 -0.2283  0.2718
 4815TIP3    H136080   3.052   3.193   6.517 -0.3364 -0.0056  0.1464
 4815TIP3    H236081   2.943   3.093   6.486 -0.2094 -0.3628  0.8282
 4816TIP3   OH236082   1.238   6.781   0.732  0.1627  0.3443 -0.1592
 4816TIP3    H136083   1.180   6.831   0.675  0.7745  0.6783 -0.5032
 4816TIP3    H236084   1.187   6.766   0.812 -0.3733  0.6653 -0.4360
 4817TIP3   OH236085   2.688   4.856   1.902  0.0139  0.1496  0.4852
 4817TIP3    H136086   2.608   4.805   1.887  0.6098 -0.1866 -2.0222
 4817TIP3    H236087   2.671   4.940   1.858  0.6692  0.4614  0.8141
 4818TIP3   OH236088   1.040   5.602   8.131 -0.5775  0.0163 -0.3467
 4818TIP3    H136089   1.005   5.622   8.044  0.3718  0.3977 -0.6564
 4818TIP3    H236090   1.031   5.684   8.180 -0.1109  0.1285 -0.4393
 4819TIP3   OH236091   6.311   4.552   5.937 -0.0390  0.8246 -0.2128
 4819TIP3    H136092   6.293   4.476   5.882 -0.0645 -0.5786  1.6288
 4819TIP3    H236093   6.270   4.625   5.892 -2.9614 -0.8146 -0.4468
 4820TIP3   OH236094   2.946   2.910   6.468 -0.2992  0.3313 -0.1529
 4820TIP3    H136095   2.999   2.889   6.392  0.2459 -0.8939  0.5275
 4820TIP3    H236096   2.949   2.831   6.522 -2.0270  0.5804  0.3652
 4821TIP3   OH236097   0.282   5.013   6.763  0.0119  0.3950 -0.0083
 4821TIP3    H136098   0.354   5.013   6.826  0.2934 -0.7120 -0.3040
 4821TIP3    H236099   0.316   5.058   6.686 -0.8181  3.1365  1.0914
 4822TIP3   OH236100   6.648   5.702   0.159 -0.2231 -0.0557 -0.0064
 4822TIP3    H136101   6.731   5.653   0.156  0.5242  0.8410  2.7296
 4822TIP3    H236102   6.591   5.648   0.214 -0.5862  0.5093  0.1800
 4823TIP3   OH236103   2.000   1.244   1.835  0.3426  0.6687  0.7724
 4823TIP3    H136104   2.027   1.244   1.743  0.7367 -0.3237  0.8867
 4823TIP3    H236105   2.058   1.182   1.878 -2.5733 -2.3003  0.8659
 4824TIP3   OH236106   1.558   3.495   8.595 -0.2023 -0.2386 -0.6968
 4824TIP3    H136107   1.595   3.451   8.672  2.3371  3.2245  0.3475
 4824TIP3    H236108   1.479   3.538   8.628 -1.4094 -1.9810 -1.1618
 4825TIP3   OH236109   4.182   0.400   0.800 -0.2844  0.1975  0.3110
 4825TIP3    H136110   4.272   0.372   0.787 -0.3233  0.4907 -0.7453
 4825TIP3    H236111   4.187   0.496   0.803 -0.7430  0.3499 -1.8154
 4826TIP3   OH236112   0.011   1.307   7.244 -0.4900  0.2377 -0.4366
 4826TIP3    H136113   0.084   1.355   7.283 -1.3149 -0.1692  1.7283
 4826TIP3    H236114  -0.064   1.365   7.253 -0.5442  0.5513 -2.4298
 4827TIP3   OH236115   6.239   2.516   7.054 -0.2228  0.3243  0.0160
 4827TIP3    H136116   6.282   2.445   7.101 -0.6391 -0.9913 -1.4868
 4827TIP3    H236117   6.206   2.474   6.974 -1.0773  2.0775 -0.5848
 4828TIP3   OH236118   4.219   5.944   7.598 -0.4548 -0.0596 -0.2099
 4828TIP3    H136119   4.148   5.961   7.536 -0.0120 -0.1193 -0.7388
 4828TIP3    H236120   4.229   5.849   7.598 -0.3578 -0.0504 -0.1599
 4829TIP3   OH236121   2.408   0.190   7.515 -0.0530  0.4083 -0.5054
 4829TIP3    H136122   2.403   0.096   7.497  1.2977 -0.0941  1.4024
 4829TIP3    H236123   2.467   0.225   7.448  1.6098 -0.6301  0.3575
 4830TIP3   OH236124   2.404   2.732   0.011  0.2675  0.1455  0.0582
 4830TIP3    H136125   2.415   2.742  -0.084 -1.4343 -0.1862 -0.2108
 4830TIP3    H236126   2.464   2.661   0.034 -0.8143 -1.2587 -1.1905
 4831TIP3   OH236127   1.011   1.013   0.247 -0.1452 -0.2435  0.6477
 4831TIP3    H136128   0.959   1.033   0.169  1.7996  1.4785 -0.3237
 4831TIP3    H236129   1.033   0.920   0.237 -0.5013 -0.2248 -0.5159
 4832TIP3   OH236130   1.934   0.973   7.126  0.1495 -0.5739 -0.3899
 4832TIP3    H136131   1.921   0.878   7.132 -0.7929 -0.3976  0.8055
 4832TIP3    H236132   1.845   1.009   7.127  0.4861  0.3255 -1.1213
 4833TIP3   OH236133   4.298   3.625   0.149  0.1564  0.1125 -0.2267
 4833TIP3    H136134   4.308   3.669   0.233 -0.8477 -0.1089  0.0245
 4833TIP3    H236135   4.288   3.696   0.086 -0.2344  0.2719  0.0098
 4834TIP3   OH236136   0.381   2.845   7.362  0.1072  1.0589 -0.0657
 4834TIP3    H136137   0.455   2.843   7.423  0.4123  1.1034 -0.4364
 4834TIP3    H236138   0.305   2.824   7.417  0.6807 -1.4406 -0.1099
 4835TIP3   OH236139   1.887   4.576   0.341  0.2637  0.7798  0.3323
 4835TIP3    H136140   1.918   4.665   0.357  0.5169  0.8761 -0.5987
 4835TIP3    H236141   1.791   4.584   0.342  0.2757  1.2357 -0.5322
 4836TIP3   OH236142   4.878   1.403   7.399  0.4402 -0.0624 -0.2389
 4836TIP3    H136143   4.783   1.403   7.410  0.5212  3.4553  2.0672
 4836TIP3    H236144   4.913   1.404   7.489  2.5045  1.5291 -0.9700
 4837TIP3   OH236145   2.971   2.702   6.630  0.2056  0.0991 -0.4359
 4837TIP3    H136146   2.930   2.650   6.700  4.2511 -1.0713  1.3643
 4837TIP3    H236147   2.972   2.643   6.555 -1.3715  0.1994 -0.5684
 4838TIP3   OH236148   6.494   3.835   1.179 -0.0882  0.3464  0.1343
 4838TIP3    H136149   6.451   3.912   1.217 -1.4385  0.3860 -1.3788
 4838TIP3    H236150   6.430   3.765   1.188  0.7256 -0.3717  0.5234
 4839TIP3   OH236151   0.958   5.293   1.577  0.0596  0.3454 -0.3733
 4839TIP3    H136152   0.884   5.235   1.592 -0.5585  0.8216 -1.4366
 4839TIP3    H236153   0.922   5.381   1.589  1.4267  0.5832  3.2485
 4840TIP3   OH236154   6.209   4.954   8.112 -0.5087  0.6659  0.3947
 4840TIP3    H136155   6.261   4.882   8.075 -1.4489 -0.4021  1.0603
 4840TIP3    H236156   6.185   4.924   8.199 -0.5836  1.9847  0.8484
 4841TIP3   OH236157   1.438   6.279   0.396 -0.1422  0.2571 -0.2023
 4841TIP3    H136158   1.382   6.355   0.381 -0.3215 -0.0580 -1.2516
 4841TIP3    H236159   1.382   6.204   0.376 -0.6260 -0.3103  2.8046
 4842TIP3   OH236160   6.176   2.400   0.850  0.9264 -0.2047  0.2980
 4842TIP3    H136161   6.252   2.459   0.848  0.6878  0.1394 -2.7861
 4842TIP3    H236162   6.131   2.423   0.932  2.8056  1.2867  1.0152
 4843TIP3   OH236163   0.245   4.983   1.954 -0.7739  0.0363  0.2034
 4843TIP3    H136164   0.235   4.896   1.993 -2.2087  0.1479  0.1535
 4843TIP3    H236165   0.259   5.041   2.029  0.0943 -0.2173  0.2440
 4844TIP3   OH236166   5.606   0.738   6.885  0.0756 -0.1548  0.2130
 4844TIP3    H136167   5.609   0.798   6.810 -0.6610  1.9201  1.7323
 4844TIP3    H236168   5.514   0.714   6.894  0.1695 -0.4526  0.3976
 4845TIP3   OH236169   0.222   1.508   8.042  0.0547 -0.6267 -0.2967
 4845TIP3    H136170   0.287   1.509   8.113 -0.1178  0.3013 -0.1351
 4845TIP3    H236171   0.147   1.555   8.078 -0.1830 -0.4928 -0.9645
 4846TIP3   OH236172   6.280   5.723   1.349  0.0425  0.0492  0.0364
 4846TIP3    H136173   6.268   5.656   1.282 -0.6960  0.5853 -0.3797
 4846TIP3    H236174   6.194   5.731   1.391  0.5477 -0.4165  1.1802
 4847TIP3   OH236175   0.392   0.177   2.130  0.5865 -0.8597  0.5429
 4847TIP3    H136176   0.410   0.087   2.157  1.1692 -0.3685  1.9021
 4847TIP3    H236177   0.372   0.223   2.212  1.9532  0.6156  0.0977
 4848TIP3   OH236178   2.391   6.268   6.766 -0.0540 -0.3965 -0.3837
 4848TIP3    H136179   2.472   6.248   6.812  0.5250 -1.5003 -1.8158
 4848TIP3    H236180   2.417   6.333   6.700 -0.7909  0.8605  0.5097
 4849TIP3   OH236181   6.829   1.734   6.822 -0.1366 -0.5433 -0.1162
 4849TIP3    H136182   6.855   1.821   6.792  0.3539 -0.7179 -0.2024
 4849TIP3    H236183   6.770   1.751   6.895 -0.9407 -0.1226 -0.8364
 4850TIP3   OH236184   1.765   1.586   7.167  0.1963 -0.0458  0.2602
 4850TIP3    H136185   1.736   1.673   7.140  0.4469  0.4304  1.4659
 4850TIP3    H236186   1.748   1.531   7.090 -1.4758  0.7193  0.0250
 4851TIP3   OH236187   4.530   4.637   8.098 -0.1594 -0.8179 -0.1065
 4851TIP3    H136188   4.529   4.541   8.103  1.1651 -0.7991  1.7791
 4851TIP3    H236189   4.621   4.659   8.074 -0.3728 -0.0329 -0.2191
 4852TIP3   OH236190   0.813   6.786   6.666 -0.2093  0.4064  0.0470
 4852TIP3    H136191   0.888   6.797   6.608  1.2316 -0.4620  1.6358
 4852TIP3    H236192   0.772   6.704   6.639  0.1121  0.3006 -0.1197
 4853TIP3   OH236193   3.752   3.393   1.172  0.2228  0.4485  0.5165
 4853TIP3    H136194   3.701   3.358   1.245 -1.3815 -0.4407 -0.9625
 4853TIP3    H236195   3.800   3.318   1.138  1.2781  0.9462  0.8664
 4854TIP3   OH236196   5.367   2.431   0.612  0.5879  0.6911 -0.3805
 4854TIP3    H136197   5.442   2.404   0.558  1.6725 -0.1989  1.4792
 4854TIP3    H236198   5.313   2.352   0.619 -1.2509  1.6179 -2.6773
 4855TIP3   OH236199   4.206   3.308   6.639 -0.0413  0.2631  0.3176
 4855TIP3    H136200   4.183   3.232   6.693  1.2254  0.7380  1.6078
 4855TIP3    H236201   4.150   3.379   6.672  0.8726  0.6047  1.2259
 4856TIP3   OH236202   3.912   6.478   0.890 -0.4252 -0.1241  0.5203
 4856TIP3    H136203   3.831   6.522   0.915 -0.6565 -0.3984  0.2615
 4856TIP3    H236204   3.885   6.414   0.825  0.3164  1.5331 -1.5463
 4857TIP3   OH236205   0.731   0.729   0.153 -0.0204 -0.2187  0.3734
 4857TIP3    H136206   0.650   0.709   0.199 -0.7112 -1.5868 -1.3156
 4857TIP3    H236207   0.781   0.647   0.156  0.5885  0.1325  0.0202
 4858TIP3   OH236208   3.158   1.956   8.336 -0.8045  0.0994 -0.0386
 4858TIP3    H136209   3.161   1.888   8.269  0.2001  1.3180 -1.3128
 4858TIP3    H236210   3.250   1.975   8.355 -1.0570  0.9590  0.4143
 4859TIP3   OH236211   1.109   1.918   1.652 -0.6892  0.3674  0.0245
 4859TIP3    H136212   1.089   1.882   1.739 -0.5528  1.3510  0.4798
 4859TIP3    H236213   1.191   1.966   1.665 -0.0713 -0.3753 -0.9153
 4860TIP3   OH236214   4.663   4.857   0.097 -0.3934  0.4913 -0.6047
 4860TIP3    H136215   4.706   4.937   0.128 -0.3190  0.1977  0.0807
 4860TIP3    H236216   4.692   4.847   0.006  1.1416  0.2182 -0.1275
 4861TIP3   OH236217   4.641   2.925   0.930 -0.0183  0.4647 -0.2457
 4861TIP3    H136218   4.666   3.011   0.963  4.2700 -0.9432  0.7585
 4861TIP3    H236219   4.648   2.868   1.007  4.5271 -1.9047 -2.0481
 4862TIP3   OH236220   2.626   2.078   8.429  0.2577  0.3979  0.1756
 4862TIP3    H136221   2.678   2.103   8.504  0.6974  0.7556 -0.2453
 4862TIP3    H236222   2.646   2.143   8.362 -1.5151  1.1825  0.3359
 4863TIP3   OH236223   2.226   5.782   0.846  0.4039  0.1175 -0.1851
 4863TIP3    H136224   2.320   5.768   0.861  0.3575 -1.1510 -0.9001
 4863TIP3    H236225   2.184   5.707   0.889 -0.0235 -1.1225 -2.6240
 4864TIP3   OH236226   3.195   4.331   2.008  0.1913 -0.0670 -0.3746
 4864TIP3    H136227   3.123   4.387   2.037  1.7820  1.8113  0.1636
 4864TIP3    H236228   3.169   4.243   2.032 -1.6311  0.6422  0.3823
 4865TIP3   OH236229   1.041   2.327   6.150  0.4806  0.2913 -0.4084
 4865TIP3    H136230   1.001   2.270   6.216  0.2966  0.3545 -0.4660
 4865TIP3    H236231   1.102   2.382   6.200  0.4014  0.2842 -0.3043
 4866TIP3   OH236232   2.514   3.324   7.798  0.4302  0.2416 -0.2122
 4866TIP3    H136233   2.425   3.306   7.828  0.3304  0.0701 -0.5919
 4866TIP3    H236234   2.564   3.247   7.823  1.0957  1.4192  2.3487
 4867TIP3   OH236235   5.061   6.761   8.547 -0.1540  0.3025 -0.1296
 4867TIP3    H136236   5.031   6.674   8.574  0.6079  0.2440  0.5599
 4867TIP3    H236237   5.155   6.762   8.566  0.1643  0.7294 -1.6117
 4868TIP3   OH236238   2.090   4.021   0.205  0.4159 -0.0809 -0.1022
 4868TIP3    H136239   2.013   4.066   0.170 -0.3263 -1.2756 -0.0813
 4868TIP3    H236240   2.134   3.985   0.127  1.3726  1.1973 -0.1796
 4869TIP3   OH236241   1.490   3.267   7.328 -0.3522 -0.7980  0.0815
 4869TIP3    H136242   1.456   3.342   7.375 -0.3258  1.3999 -3.0818
 4869TIP3    H236243   1.585   3.278   7.331 -0.3732  0.3442 -1.7483
 4870TIP3   OH236244   2.749   1.316   0.267 -0.4315  0.3367  0.1815
 4870TIP3    H136245   2.774   1.224   0.260  0.0607  0.5780 -2.5797
 4870TIP3    H236246   2.830   1.360   0.294 -0.5062  0.0457  0.9014
 4871TIP3   OH236247   3.329   4.868   0.233 -0.7251 -0.0405  0.0197
 4871TIP3    H136248   3.268   4.928   0.275 -1.3138 -0.4247 -0.2674
 4871TIP3    H236249   3.303   4.781   0.266  1.6570 -0.0033  2.3909
 4872TIP3   OH236250   1.709   0.153   8.188 -0.1927 -0.3827 -0.9604
 4872TIP3    H136251   1.717   0.081   8.250  0.6881 -1.0156 -1.7713
 4872TIP3    H236252   1.800   0.176   8.167 -0.3060  2.6492  1.1429
 4873TIP3   OH236253   4.501   1.351   7.827 -0.1045  0.3484  0.4931
 4873TIP3    H136254   4.467   1.306   7.904  0.0569  0.7217  0.7873
 4873TIP3    H236255   4.561   1.417   7.862 -0.8098  1.2127  0.1202
 4874TIP3   OH236256   2.096   3.723   0.056  0.0143  0.1417  0.1095
 4874TIP3    H136257   2.053   3.679   0.129  0.1776  0.1449  0.2090
 4874TIP3    H236258   2.026   3.741  -0.007  0.1986 -1.9133 -0.7780
 4875TIP3   OH236259   3.815   3.768   8.269 -0.5431 -0.1480 -0.2084
 4875TIP3    H136260   3.824   3.821   8.190  0.8328 -1.3662 -0.9153
 4875TIP3    H236261   3.733   3.719   8.256  0.1104 -0.9935 -1.3234
 4876TIP3   OH236262   6.549   0.449   1.480 -0.0194 -0.3414  0.4205
 4876TIP3    H136263   6.459   0.426   1.503 -0.1039 -0.2263  0.2054
 4876TIP3    H236264   6.568   0.397   1.401  0.1275 -0.4219  0.5079
 4877TIP3   OH236265   0.054   0.238   7.923 -0.1179  0.1066 -0.0215
 4877TIP3    H136266  -0.012   0.304   7.903  1.0539  1.2186 -0.3127
 4877TIP3    H236267   0.018   0.156   7.889 -2.0148  0.3841  1.1800
 4878TIP3   OH236268   2.951   3.842   0.647  0.0764  0.6554  0.0417
 4878TIP3    H136269   2.900   3.865   0.725 -1.4441  1.1469 -1.0479
 4878TIP3    H236270   2.892   3.787   0.595  1.5357 -0.7906 -0.1890
 4879TIP3   OH236271   6.743   4.884   1.255  0.1947  0.1077  0.0203
 4879TIP3    H136272   6.775   4.880   1.346 -0.2027 -0.3647  0.1453
 4879TIP3    H236273   6.801   4.947   1.212  2.5280 -2.0447 -0.2346
 4880TIP3   OH236274   4.881   2.623   8.125 -0.1640 -0.4524 -0.0795
 4880TIP3    H136275   4.900   2.710   8.090 -3.5287  0.7124  0.6875
 4880TIP3    H236276   4.897   2.631   8.219 -1.4868 -0.3251  0.1430
 4881TIP3   OH236277   5.571   3.777   8.164 -0.0365  0.2389  0.2898
 4881TIP3    H136278   5.567   3.683   8.180  0.0667  0.3222  0.8367
 4881TIP3    H236279   5.564   3.786   8.069 -1.3269 -0.2563  0.3076
 4882TIP3   OH236280   6.190   1.127   6.694 -0.1220  0.2321 -1.1701
 4882TIP3    H136281   6.139   1.060   6.740  1.1310 -0.6338 -0.9777
 4882TIP3    H236282   6.281   1.107   6.716  0.3453  1.4326 -1.8892
 4883TIP3   OH236283   1.714   5.109   6.985 -0.0467 -0.0178 -0.3814
 4883TIP3    H136284   1.733   5.187   6.932 -0.5486 -0.1517 -0.7621
 4883TIP3    H236285   1.673   5.048   6.924  0.3558 -0.5871 -0.0824
 4884TIP3   OH236286   0.170   4.172   8.044 -0.1237  0.0974 -0.5978
 4884TIP3    H136287   0.185   4.123   8.125 -0.3524  0.5131 -0.2993
 4884TIP3    H236288   0.080   4.204   8.051  0.1528  0.9020 -0.5963
 4885TIP3   OH236289   5.631   5.936   1.594 -1.1002  0.4658  0.2962
 4885TIP3    H136290   5.664   6.013   1.547 -0.2197  0.0688  0.2444
 4885TIP3    H236291   5.649   5.956   1.686 -1.5046  0.6143  0.3465
 4886TIP3   OH236292   6.573   2.809   0.953  0.5124  0.5548 -0.0039
 4886TIP3    H136293   6.665   2.826   0.970  0.5143  1.1697 -0.5986
 4886TIP3    H236294   6.557   2.845   0.866  0.3857 -2.0537 -1.1539
 4887TIP3   OH236295   3.649   5.434   8.266  0.5706 -0.3836 -0.0722
 4887TIP3    H136296   3.694   5.405   8.345 -2.1153 -1.6999  1.1020
 4887TIP3    H236297   3.680   5.375   8.198  1.5647 -0.4153  0.3857
 4888TIP3   OH236298   6.186   0.162   7.570  0.0057  0.3844  0.7017
 4888TIP3    H136299   6.138   0.123   7.643  2.0757 -3.1824  0.3798
 4888TIP3    H236300   6.164   0.107   7.495  3.2919 -0.5559  0.2644
 4889TIP3   OH236301   6.265   3.626   6.891 -0.4044  0.4698 -0.0994
 4889TIP3    H136302   6.302   3.714   6.897 -0.4913  0.5560 -0.8006
 4889TIP3    H236303   6.212   3.627   6.811  1.0805 -0.7882 -1.1482
 4890TIP3   OH236304   4.655   4.550   1.935 -0.0388  0.1351 -0.1262
 4890TIP3    H136305   4.700   4.615   1.881 -0.0640  0.3032  0.0529
 4890TIP3    H236306   4.675   4.466   1.894 -0.6142  0.3167 -0.7915
 4891TIP3   OH236307   3.044   3.858   6.990 -0.0848  0.3121 -0.8066
 4891TIP3    H136308   3.008   3.771   6.971  4.0275 -1.5674 -1.0296
 4891TIP3    H236309   3.026   3.908   6.911 -4.0884  0.4508 -0.0357
 4892TIP3   OH236310   1.713   0.952   2.242  0.5223  0.1331 -0.1802
 4892TIP3    H136311   1.779   0.999   2.293  0.5439 -0.2986  0.1993
 4892TIP3    H236312   1.758   0.928   2.161  1.4181 -1.7389  0.8156
 4893TIP3   OH236313   0.727   6.417   0.816  0.2322  0.8141 -0.3666
 4893TIP3    H136314   0.775   6.387   0.893  0.0991  1.7806  0.1139
 4893TIP3    H236315   0.763   6.367   0.743  2.6916  2.1486 -0.1837
 4894TIP3   OH236316   1.842   1.147   1.199  0.2045 -0.2985  0.2785
 4894TIP3    H136317   1.781   1.204   1.153  1.6188  1.6329  0.6477
 4894TIP3    H236318   1.806   1.140   1.288  0.1463  0.2452  0.3017
 4895TIP3   OH236319   2.043   4.613   7.622 -0.1407 -0.6300  0.2542
 4895TIP3    H136320   1.958   4.647   7.593  0.6944 -0.1798 -1.8163
 4895TIP3    H236321   2.066   4.548   7.556  1.6406  0.0719  0.1476
 4896TIP3   OH236322   5.581   0.029   0.755  0.5066 -0.3133  0.2208
 4896TIP3    H136323   5.623   0.043   0.671 -2.0091  1.7244 -0.8370
 4896TIP3    H236324   5.578   0.116   0.795 -1.0666 -0.6923  0.9992
 4897TIP3   OH236325   2.704   3.556   1.226  0.3291 -0.3177 -0.1145
 4897TIP3    H136326   2.787   3.562   1.273  0.1066  0.9413  0.1452
 4897TIP3    H236327   2.724   3.583   1.136  0.1306  0.4495  0.0598
 4898TIP3   OH236328   4.602   0.280   7.115 -0.0451  0.7877  0.6452
 4898TIP3    H136329   4.693   0.291   7.142  0.0305  1.2781  0.2239
 4898TIP3    H236330   4.578   0.365   7.078  0.2406 -0.1549 -1.9055
 4899TIP3   OH236331   2.728   0.765   1.620  0.6393 -0.7744 -0.1412
 4899TIP3    H136332   2.642   0.798   1.644  0.3042 -1.9900  0.3675
 4899TIP3    H236333   2.757   0.715   1.696  1.7106 -0.5482 -0.3857
 4900TIP3   OH236334   2.751   0.205   7.800 -0.3436  0.1295 -0.4289
 4900TIP3    H136335   2.783   0.293   7.783  0.0020  0.3422  1.1811
 4900TIP3    H236336   2.657   0.216   7.819  0.3618  0.7454  3.4336
 4901TIP3   OH236337   2.484   1.363   7.454 -0.8591 -0.1453  0.5416
 4901TIP3    H136338   2.488   1.273   7.423 -0.4089 -0.5069  1.6194
 4901TIP3    H236339   2.397   1.394   7.427 -1.2833 -1.1220  0.7497
 4902TIP3   OH236340   5.852   1.852   7.195 -0.0591  0.6382 -0.2512
 4902TIP3    H136341   5.861   1.892   7.108  2.0751  1.2786  0.2231
 4902TIP3    H236342   5.788   1.907   7.240 -0.8289  0.5766 -1.2281
 4903TIP3   OH236343   1.219   4.651   0.292 -0.2346  0.1451 -0.2718
 4903TIP3    H136344   1.179   4.638   0.378  0.8376  0.2358  0.2484
 4903TIP3    H236345   1.174   4.728   0.256 -0.7526  0.0485  0.1531
 4904TIP3   OH236346   5.228   5.985   7.948 -0.0561 -0.1687  0.2410
 4904TIP3    H136347   5.302   5.958   7.894 -0.2171  3.1104 -1.8640
 4904TIP3    H236348   5.151   5.969   7.893 -0.7109 -1.1256  1.3947
 4905TIP3   OH236349   0.059   4.050   0.993 -0.0555 -0.0843 -0.2847
 4905TIP3    H136350  -0.019   4.020   1.039 -0.3985  1.3475  0.1055
 4905TIP3    H236351   0.132   4.021   1.047 -0.4520  1.6674  1.2788
 4906TIP3   OH236352   5.748   1.871   8.607  0.1854 -0.0843 -0.1175
 4906TIP3    H136353   5.753   1.928   8.684  1.4897  1.2201 -1.1011
 4906TIP3    H236354   5.832   1.884   8.563 -0.4858 -0.8909 -1.6929
 4907TIP3   OH236355   1.553   3.969   6.841  0.6093 -0.2576  0.3674
 4907TIP3    H136356   1.512   3.908   6.780 -0.6120 -0.3362  1.2213
 4907TIP3    H236357   1.538   3.929   6.927  1.1044  0.5163  0.8172
 4908TIP3   OH236358   0.985   6.375   0.157  0.2162 -0.9396 -0.9876
 4908TIP3    H136359   1.037   6.415   0.087  2.5764 -0.7283  0.7270
 4908TIP3    H236360   0.913   6.436   0.172 -0.0920 -0.7907 -2.9078
 4909TIP3   OH236361   4.588   2.126   8.129 -0.4159 -0.1194 -0.5146
 4909TIP3    H136362   4.624   2.181   8.060 -0.7096 -0.7712 -1.2040
 4909TIP3    H236363   4.664   2.084   8.169 -0.3269 -0.7496 -1.3252
 4910TIP3   OH236364   3.975   2.716   1.502  0.7862  0.3426  0.3316
 4910TIP3    H136365   3.965   2.671   1.586 -0.8331  0.2711  0.1387
 4910TIP3    H236366   3.885   2.726   1.470  0.9580  4.0547  0.5397
 4911TIP3   OH236367   1.337   2.617   0.323 -0.1050 -0.2081 -0.3206
 4911TIP3    H136368   1.376   2.705   0.322 -2.2775  0.8417  0.6877
 4911TIP3    H236369   1.408   2.560   0.353  1.1817  1.2838 -0.3827
 4912TIP3   OH236370   2.347   0.762   6.334  0.4194 -0.3948  0.6024
 4912TIP3    H136371   2.258   0.753   6.301  1.1520  0.0504 -1.6176
 4912TIP3    H236372   2.340   0.825   6.405 -0.7513  1.2547 -0.9019
 4913TIP3   OH236373   6.417   3.347   6.744 -0.1876 -0.2359  0.6639
 4913TIP3    H136374   6.383   3.437   6.753  0.9945  0.5605 -2.0595
 4913TIP3    H236375   6.353   3.303   6.688  0.4337 -0.3902  0.0760
 4914TIP3   OH236376   4.629   0.902   7.053 -0.4411  0.0795  0.3532
 4914TIP3    H136377   4.645   0.819   7.098 -0.5049 -0.0165  0.2026
 4914TIP3    H236378   4.714   0.925   7.015 -0.5797 -0.2646 -0.1748
 4915TIP3   OH236379   2.059   5.235   0.534  0.4629 -0.2246 -0.1352
 4915TIP3    H136380   2.056   5.167   0.467  0.4550 -1.6544  1.2786
 4915TIP3    H236381   2.067   5.188   0.617  2.5647  1.5288  0.7672
 4916TIP3   OH236382   6.063   5.598   1.562  0.6953  0.1022  0.0939
 4916TIP3    H136383   5.983   5.635   1.598  1.1160 -0.4572  1.7098
 4916TIP3    H236384   6.132   5.660   1.587  0.9522 -0.1456  0.0158
 4917TIP3   OH236385   5.465   6.660   6.141  0.4165 -0.0800  0.4621
 4917TIP3    H136386   5.449   6.744   6.098  1.1328 -0.0213  0.2967
 4917TIP3    H236387   5.560   6.649   6.136  0.1871 -1.7282 -1.0990
 4918TIP3   OH236388   2.944   4.533   0.518 -1.2122  0.1912  0.3343
 4918TIP3    H136389   2.979   4.492   0.440 -1.2014 -2.6886  1.7204
 4918TIP3    H236390   2.862   4.573   0.489 -0.0589  1.2865 -1.5813
 4919TIP3   OH236391   4.658   0.148   0.197 -0.1163 -0.3565  0.6179
 4919TIP3    H136392   4.603   0.120   0.270  1.2848 -1.4185  1.3224
 4919TIP3    H236393   4.673   0.068   0.147  0.3717  0.0123  0.1664
 4920TIP3   OH236394   1.881   6.388   1.610  0.5994  0.0212 -0.2947
 4920TIP3    H136395   1.938   6.353   1.679  0.1117 -0.5635 -0.1720
 4920TIP3    H236396   1.807   6.327   1.607  0.3195  0.3753 -0.9268
 4921TIP3   OH236397   5.162   5.259   7.155  0.1689  0.3881 -0.0187
 4921TIP3    H136398   5.123   5.244   7.241 -1.4431 -0.6784 -0.8778
 4921TIP3    H236399   5.254   5.279   7.173 -0.1415  0.2191  1.9362
 4922TIP3   OH236400   1.496   5.301   0.900  0.2937  0.1392  0.0118
 4922TIP3    H136401   1.483   5.221   0.949  2.0501  0.0670  0.4261
 4922TIP3    H236402   1.466   5.371   0.959  0.9665 -0.0553  0.5973
 4923TIP3   OH236403   0.465   3.249   1.431 -0.8858  0.6891 -0.1099
 4923TIP3    H136404   0.482   3.337   1.397 -1.4138  0.5214 -0.8303
 4923TIP3    H236405   0.521   3.242   1.508  1.1596  0.7101 -1.5010
 4924TIP3   OH236406   3.434   3.256   0.909 -0.1135 -0.2065 -0.2699
 4924TIP3    H136407   3.395   3.177   0.871 -1.0852 -0.5579  1.3795
 4924TIP3    H236408   3.367   3.290   0.968  1.3815  0.2306  1.2461
 4925TIP3   OH236409   5.527   6.354   1.443 -0.2351  0.0040  0.2413
 4925TIP3    H136410   5.452   6.337   1.499  0.3196 -3.0715  0.2305
 4925TIP3    H236411   5.490   6.369   1.356 -0.8974  0.9282  0.6680
 4926TIP3   OH236412   6.062   3.803   7.732 -0.0778 -0.0658 -0.5021
 4926TIP3    H136413   6.087   3.778   7.821 -0.6230  1.3371  0.0729
 4926TIP3    H236414   6.017   3.727   7.697 -0.7047 -0.3072  0.7827
 4927TIP3   OH236415   1.757   4.793   7.779 -0.1662  0.2268 -0.6022
 4927TIP3    H136416   1.670   4.787   7.819 -0.9421  2.6707 -1.6594
 4927TIP3    H236417   1.764   4.714   7.725 -2.3831  0.6200 -1.5852
 4928TIP3   OH236418   1.366   0.429   7.352  0.0529 -0.3843 -0.1758
 4928TIP3    H136419   1.361   0.443   7.257 -2.2322  1.9643  0.1811
 4928TIP3    H236420   1.275   0.414   7.379  0.6778 -1.1665  1.6710
 4929TIP3   OH236421   5.639   4.717   7.570 -0.2476 -0.4138  0.2868
 4929TIP3    H136422   5.592   4.637   7.547 -1.0683  0.7551 -2.4966
 4929TIP3    H236423   5.732   4.693   7.564 -0.4845 -1.1274 -0.7341
 4930TIP3   OH236424   0.712   4.933   8.166  0.4758 -0.2992 -0.5815
 4930TIP3    H136425   0.764   4.878   8.225  0.9462 -1.3864 -1.9322
 4930TIP3    H236426   0.741   5.022   8.185  1.7847 -0.7596 -0.2782
 4931TIP3   OH236427   6.278   6.453   0.808  0.5676  0.3552 -0.2487
 4931TIP3    H136428   6.200   6.418   0.764 -0.7943  0.0351  2.2143
 4931TIP3    H236429   6.329   6.493   0.738 -1.7095  0.3813 -2.0305
 4932TIP3   OH236430   3.415   6.478   6.105 -0.0312  0.2390 -0.2370
 4932TIP3    H136431   3.436   6.418   6.033  0.8232  0.5578 -0.2622
 4932TIP3    H236432   3.453   6.436   6.182 -1.8849 -0.6544  0.2497
 4933TIP3   OH236433   2.698   2.319   0.892  0.4640  0.1431 -0.0955
 4933TIP3    H136434   2.672   2.260   0.963 -0.7003 -1.1133 -1.5007
 4933TIP3    H236435   2.780   2.282   0.859  1.8702  1.6015  1.4781
 4934TIP3   OH236436   1.433   3.931   0.938  0.1779  0.1166 -0.0844
 4934TIP3    H136437   1.473   3.911   0.853  2.2797  0.3397  0.7901
 4934TIP3    H236438   1.474   3.871   0.999  1.0880  2.0451  1.3112
 4935TIP3   OH236439   6.439   0.122   7.006  0.0706 -0.3337  0.4681
 4935TIP3    H136440   6.510   0.101   6.944 -0.1993  0.1113 -0.0007
 4935TIP3    H236441   6.471   0.196   7.056  0.2349 -0.6085  0.7702
 4936TIP3   OH236442   0.336   0.735   0.494  0.6152 -0.1988  0.4113
 4936TIP3    H136443   0.270   0.668   0.514 -0.1026  0.4979  0.4029
 4936TIP3    H236444   0.398   0.690   0.436 -0.1643 -0.7076 -0.0533
 4937TIP3   OH236445   5.523   6.247   0.952  0.2173  0.1127  0.2797
 4937TIP3    H136446   5.494   6.337   0.967  0.8352  0.3791 -0.0599
 4937TIP3    H236447   5.443   6.198   0.936 -0.0158  0.9738 -1.4100
 4938TIP3   OH236448   4.191   0.821   7.288 -0.1714  0.0598 -0.6041
 4938TIP3    H136449   4.276   0.841   7.328 -0.7057  0.9037  0.1491
 4938TIP3    H236450   4.172   0.732   7.317  0.5853 -0.2421 -1.0158
 4939TIP3   OH236451   0.699   1.589   7.427 -0.0825 -0.3953  0.5101
 4939TIP3    H136452   0.673   1.507   7.470  0.0531 -0.8927 -0.3323
 4939TIP3    H236453   0.695   1.569   7.333 -3.1864  1.4749  0.1184
 4940TIP3   OH236454   1.570   0.899   1.519  0.3665  0.0659  0.0979
 4940TIP3    H136455   1.495   0.904   1.578  1.1227  4.3271  1.0233
 4940TIP3    H236456   1.533   0.873   1.434 -1.9707  0.9649  0.7788
 4941TIP3   OH236457   1.840   0.497   0.852 -0.0793 -0.3442 -0.4573
 4941TIP3    H136458   1.834   0.494   0.757 -0.9352  3.5209 -0.6798
 4941TIP3    H236459   1.910   0.560   0.871 -0.5802 -0.2841  1.4583
 4942TIP3   OH236460   5.610   1.271   8.075  0.4327 -0.2050  0.0003
 4942TIP3    H136461   5.636   1.206   8.140 -0.7037  0.0028  0.6771
 4942TIP3    H236462   5.688   1.282   8.020  1.0622 -1.1591  0.6733
 4943TIP3   OH236463   3.508   0.505   8.156  0.2532  0.1017  0.7844
 4943TIP3    H136464   3.483   0.555   8.234  0.8367  0.8945  0.4820
 4943TIP3    H236465   3.437   0.519   8.094  0.9978  1.6315  0.2392
 4944TIP3   OH236466   2.529   3.063   6.648  0.5346 -0.1370  0.0440
 4944TIP3    H136467   2.608   3.117   6.656  0.0534  0.4297  1.1136
 4944TIP3    H236468   2.464   3.107   6.702 -0.5117 -0.6312 -0.7784
 4945TIP3   OH236469   4.283   5.912   1.962 -0.3484  0.4304 -0.5222
 4945TIP3    H136470   4.277   6.005   1.941  1.8932  0.5264 -0.9717
 4945TIP3    H236471   4.328   5.873   1.887  2.3551 -0.2846  1.2983
 4946TIP3   OH236472   2.908   2.448   7.928 -0.0278 -0.0576 -0.4631
 4946TIP3    H136473   2.928   2.468   8.020 -0.1560  1.6465 -0.7729
 4946TIP3    H236474   2.989   2.409   7.894  0.8693  1.4897 -0.2117
 4947TIP3   OH236475   2.994   2.852   0.680 -0.4121  0.0309 -0.3713
 4947TIP3    H136476   3.071   2.811   0.720 -1.1051  0.3563  1.3837
 4947TIP3    H236477   2.981   2.804   0.598  2.3265  0.7142 -1.3273
 4948TIP3   OH236478   1.025   1.486   7.306  0.0620 -0.0555  0.5842
 4948TIP3    H136479   0.980   1.533   7.235  0.5868 -1.4290 -0.7121
 4948TIP3    H236480   1.118   1.500   7.288  0.2511  1.6536  2.4809
 4949TIP3   OH236481   3.767   6.784   0.816 -0.0713  0.3881  0.4039
 4949TIP3    H136482   3.857   6.801   0.789  0.0505  0.6468  0.9485
 4949TIP3    H236483   3.730   6.732   0.745 -0.0733  1.8790 -0.7281
 4950TIP3   OH236484   5.777   5.627   6.990 -0.0868  0.7435  0.2098
 4950TIP3    H136485   5.865   5.591   7.004 -1.4462 -2.7155  1.0562
 4950TIP3    H236486   5.774   5.649   6.897  1.5373  0.5573  0.0814
 4951TIP3   OH236487   6.603   1.403   6.999  0.2044  0.2991  0.3656
 4951TIP3    H136488   6.551   1.483   7.001 -0.3328 -0.0600  1.4491
 4951TIP3    H236489   6.566   1.353   6.925  1.5301  1.6487 -1.2841
 4952TIP3   OH236490   0.396   0.720   8.284  0.1533  0.8279 -0.2097
 4952TIP3    H136491   0.334   0.702   8.354  0.1879 -3.6840 -1.0119
 4952TIP3    H236492   0.347   0.773   8.221 -0.7418  2.6098  1.8389
 4953TIP3   OH236493   4.819   3.047   8.354 -0.3387  0.3076  0.0155
 4953TIP3    H136494   4.881   3.078   8.420  0.3586  1.4695 -1.1413
 4953TIP3    H236495   4.793   2.960   8.384  1.6089 -0.0842  0.7043
 4954TIP3   OH236496   0.181   1.721   7.657  0.3592  0.4857 -0.0285
 4954TIP3    H136497   0.267   1.681   7.657  0.0709 -0.2906 -2.2525
 4954TIP3    H236498   0.170   1.754   7.567 -1.5846  0.6973  0.2390
 4955TIP3   OH236499   1.945   6.820   7.866  0.2356  0.0719  0.2360
 4955TIP3    H136500   1.919   6.812   7.774  0.6808 -0.5033  0.1575
 4955TIP3    H236501   2.041   6.821   7.864  0.2443  0.5649  0.6538
 4956TIP3   OH236502   1.486   2.257   0.848  0.6718  0.5470 -0.2217
 4956TIP3    H136503   1.457   2.169   0.826  2.0066  0.2791 -0.9910
 4956TIP3    H236504   1.446   2.313   0.782  1.3808  0.2614 -0.9028
 4957TIP3   OH236505   5.015   2.141   1.546 -0.4214  0.6510 -0.3477
 4957TIP3    H136506   5.089   2.104   1.594  1.1119  1.3603 -2.0255
 4957TIP3    H236507   4.947   2.073   1.552  1.1486 -1.0341 -0.5919
 4958TIP3   OH236508   4.954   0.097   7.420 -0.7329 -0.1434  0.0124
 4958TIP3    H136509   5.050   0.108   7.420 -0.6140 -1.1386 -0.7356
 4958TIP3    H236510   4.940   0.007   7.391 -1.8702 -0.3492  1.1370
 4959TIP3   OH236511   4.870   2.013   7.997 -0.2880 -0.1624  0.0765
 4959TIP3    H136512   4.935   1.994   7.929  0.1828 -0.9208  0.7290
 4959TIP3    H236513   4.787   2.017   7.949 -0.0851 -1.5506 -0.4386
 4960TIP3   OH236514   5.796   0.944   1.179  0.5035  0.1762 -0.3010
 4960TIP3    H136515   5.882   0.985   1.170  0.4205 -0.0420 -2.7942
 4960TIP3    H236516   5.773   0.956   1.271  3.1681  0.2573  0.4257
 4961TIP3   OH236517   0.916   3.556   7.396 -0.0694  0.1628 -0.0145
 4961TIP3    H136518   0.926   3.578   7.303 -0.1928  1.7895  0.3274
 4961TIP3    H236519   0.839   3.499   7.398 -0.5420  0.7334 -0.8400
 4962TIP3   OH236520   5.444   0.560   1.907  0.0316  0.6638  0.2135
 4962TIP3    H136521   5.516   0.579   1.967 -0.0877  1.4811  0.1081
 4962TIP3    H236522   5.365   0.583   1.957 -0.0637  1.3980 -0.2613
 4963TIP3   OH236523   1.990   5.173   0.998  0.0270 -0.3395 -0.8362
 4963TIP3    H136524   1.918   5.235   0.982  1.0350  0.4191 -2.7468
 4963TIP3    H236525   2.057   5.226   1.040 -0.5895 -1.1206  1.2360
 4964TIP3   OH236526   0.185   3.617   6.385 -0.1053 -0.0870  0.6360
 4964TIP3    H136527   0.274   3.647   6.368 -0.9780  2.8552  0.5710
 4964TIP3    H236528   0.152   3.589   6.299  1.2774 -3.1833  0.9790
 4965TIP3   OH236529   5.454   0.791   0.040 -0.0127  0.0951  0.8023
 4965TIP3    H136530   5.496   0.829   0.117  0.8994  0.2947  0.2160
 4965TIP3    H236531   5.389   0.855   0.013  0.9561  0.9014  0.3053
 4966TIP3   OH236532   3.951   2.239   7.460 -1.0863 -0.3939  0.2043
 4966TIP3    H136533   3.871   2.188   7.449 -0.5544 -0.8667 -1.9488
 4966TIP3    H236534   4.017   2.175   7.485 -0.9012 -0.3866 -0.2626
 4967TIP3   OH236535   2.992   6.710   1.143  0.0612  0.3490  0.5150
 4967TIP3    H136536   2.897   6.700   1.142  0.0014  0.8994 -0.1007
 4967TIP3    H236537   3.024   6.634   1.095 -0.0044 -0.3212  1.5010
 4968TIP3   OH236538   4.984   6.749   6.868 -0.3705  0.5510 -1.0061
 4968TIP3    H136539   5.044   6.807   6.822  2.4743 -0.9119  0.5705
 4968TIP3    H236540   4.974   6.673   6.810 -0.7689  0.8182 -1.2922
 4969TIP3   OH236541   1.580   5.910   2.278  0.2972  0.3098  0.7960
 4969TIP3    H136542   1.485   5.916   2.266  0.5417  0.9412 -1.4449
 4969TIP3    H236543   1.599   5.817   2.268 -0.0200  0.2870  0.3143
 4970TIP3   OH236544   0.926   3.576   7.090  0.1261 -0.1851 -0.2588
 4970TIP3    H136545   0.845   3.546   7.047 -1.0407 -0.2655  1.8642
 4970TIP3    H236546   0.913   3.669   7.103  1.2250  0.1806 -1.5636
 4971TIP3   OH236547   2.453   0.138   0.249 -0.0747 -0.3604  0.0309
 4971TIP3    H136548   2.394   0.214   0.251  1.9783  1.3351  1.4775
 4971TIP3    H236549   2.448   0.102   0.338  0.0209 -1.0571 -0.2408
 4972TIP3   OH236550   0.971   5.142   8.423  0.0448 -0.6776 -0.1383
 4972TIP3    H136551   1.020   5.214   8.463 -1.4264 -0.8343  2.1000
 4972TIP3    H236552   1.024   5.116   8.348  1.8463  1.1005  0.4286
 4973TIP3   OH236553   6.065   6.164   0.784 -0.1488 -0.0368 -0.1047
 4973TIP3    H136554   6.075   6.256   0.759  0.5519  0.1570  0.8559
 4973TIP3    H236555   5.971   6.154   0.799 -0.4316  0.1380 -1.5911
 4974TIP3   OH236556   5.688   1.105   0.966  0.1373  0.3359 -0.1352
 4974TIP3    H136557   5.711   1.041   1.034 -1.8126 -0.2246  0.0542
 4974TIP3    H236558   5.688   1.189   1.011  1.5324  0.3519 -0.1080
 4975TIP3   OH236559   1.329   1.250   7.171  0.3399 -0.0566  0.1064
 4975TIP3    H136560   1.360   1.328   7.127 -1.3732 -0.2119 -1.4904
 4975TIP3    H236561   1.364   1.257   7.260  3.1398  0.7144 -0.9673
 4976TIP3   OH236562   4.199   0.197   6.808 -0.2260  0.0159 -0.8179
 4976TIP3    H136563   4.169   0.193   6.717  0.3083 -0.4225 -0.9833
 4976TIP3    H236564   4.294   0.192   6.801 -0.1294  1.0713 -0.2885
 4977TIP3   OH236565   2.798   5.897   1.342  0.3315  0.2968 -0.3383
 4977TIP3    H136566   2.863   5.828   1.354 -2.0618 -2.2207 -0.7564
 4977TIP3    H236567   2.772   5.922   1.430  1.1279  0.6004 -0.1842
 4978TIP3   OH236568   1.718   0.402   1.232 -0.5797  0.1804  0.1109
 4978TIP3    H136569   1.751   0.467   1.169  0.4575 -0.4050  0.0357
 4978TIP3    H236570   1.679   0.455   1.302 -2.6324  0.8550 -1.4318
 4979TIP3   OH236571   5.999   4.351   8.408  0.1821 -0.0914  0.2881
 4979TIP3    H136572   6.027   4.308   8.328  0.3573 -1.1502  0.8957
 4979TIP3    H236573   6.049   4.432   8.410  1.1340 -0.6575 -0.0369
 4980TIP3   OH236574   5.418   3.532   7.817  0.1421 -0.1281  0.2729
 4980TIP3    H136575   5.450   3.621   7.830 -2.0910  0.8354 -0.3435
 4980TIP3    H236576   5.497   3.478   7.816  1.6401  1.9517 -0.2781
 4981TIP3   OH236577   0.300   3.500   7.192  0.1840 -0.4907 -0.0930
 4981TIP3    H136578   0.244   3.577   7.179  0.0503 -0.5473  0.1309
 4981TIP3    H236579   0.352   3.521   7.269 -1.7399 -1.6695  1.6473
 4982TIP3   OH236580   4.370   1.921   0.260 -0.5519 -0.1010  0.3268
 4982TIP3    H136581   4.311   1.910   0.185 -0.5034  0.3361  0.2241
 4982TIP3    H236582   4.403   2.010   0.253  0.3632 -0.4357  0.2129
 4983TIP3   OH236583   6.225   1.701   6.475 -0.1626 -0.5215 -0.1646
 4983TIP3    H136584   6.158   1.756   6.436  0.9607 -0.0273 -1.5141
 4983TIP3    H236585   6.307   1.730   6.433  0.6543 -2.2429  0.1459
 4984TIP3   OH236586   6.303   1.195   0.922  0.1991 -0.3066  0.1429
 4984TIP3    H136587   6.364   1.229   0.988 -0.5793  0.9363  0.2577
 4984TIP3    H236588   6.217   1.223   0.953 -0.4018 -1.5756 -0.2962
 4985TIP3   OH236589   3.443   0.151   0.991  0.3125  0.4716 -0.1747
 4985TIP3    H136590   3.532   0.174   0.965  1.4824 -1.2141  2.0261
 4985TIP3    H236591   3.418   0.081   0.931 -0.2177  1.9946 -1.8168
 4986TIP3   OH236592   0.842   4.833   2.368  0.3596  0.3939 -0.3442
 4986TIP3    H136593   0.936   4.842   2.381  0.1406  0.8473  1.1684
 4986TIP3    H236594   0.807   4.922   2.379 -0.2770  0.1864 -0.5987
 4987TIP3   OH236595   3.239   6.291   7.924 -0.0412 -0.0063 -0.1076
 4987TIP3    H136596   3.274   6.204   7.901 -2.0070 -0.6537 -0.8559
 4987TIP3    H236597   3.186   6.275   8.002 -1.2306  0.3031 -0.8336
 4988TIP3   OH236598   0.437   4.662   6.994 -0.1759  0.4926 -0.4648
 4988TIP3    H136599   0.432   4.675   6.900  0.6338 -0.0633 -0.5946
 4988TIP3    H236600   0.470   4.745   7.028  0.9137  0.2212 -0.8313
 4989TIP3   OH236601   5.049   4.601   0.540  0.1595  0.3021 -0.2249
 4989TIP3    H136602   5.102   4.561   0.610  0.7623  2.2223  0.4700
 4989TIP3    H236603   4.970   4.632   0.585 -0.2143  0.0880 -0.7217
 4990TIP3   OH236604   3.583   2.471   0.165  0.2591 -0.0025  0.0204
 4990TIP3    H136605   3.489   2.484   0.155  0.7831  4.2856 -1.2751
 4990TIP3    H236606   3.607   2.412   0.094 -1.1236  1.3861 -1.6974
 4991TIP3   OH236607   0.524   3.139   0.557  0.0525  0.0347  0.1279
 4991TIP3    H136608   0.494   3.173   0.641 -0.9284 -2.6172  0.9579
 4991TIP3    H236609   0.619   3.131   0.567 -0.0497 -0.2332  1.0138
 4992TIP3   OH236610   3.175   0.367   6.658  0.0272 -0.3352 -0.1112
 4992TIP3    H136611   3.081   0.385   6.650  0.0290 -0.2702  0.0131
 4992TIP3    H236612   3.208   0.371   6.568 -0.3263 -1.7085 -0.3127
 4993TIP3   OH236613   4.645   5.552   6.683  0.1926 -0.1345  0.1082
 4993TIP3    H136614   4.588   5.614   6.638  1.6631  1.8003  0.7522
 4993TIP3    H236615   4.687   5.502   6.613 -1.3449 -0.7543 -0.4027
 4994TIP3   OH236616   4.231   2.357   0.181 -0.1902  0.2972 -0.3408
 4994TIP3    H136617   4.229   2.445   0.217 -1.2732  0.9546 -1.8823
 4994TIP3    H236618   4.257   2.370   0.089  0.0428 -1.0297 -0.4787
 4995TIP3   OH236619   4.746   0.815   0.039  0.1086 -0.1306 -0.6298
 4995TIP3    H136620   4.702   0.800   0.123  0.1261  0.9042 -0.4207
 4995TIP3    H236621   4.810   0.884   0.058 -1.3989  1.7337 -1.9611
 4996TIP3   OH236622   1.984   5.025   1.510 -0.2761 -0.3578 -0.1786
 4996TIP3    H136623   1.967   5.087   1.581  0.9479  0.9238 -0.9622
 4996TIP3    H236624   1.928   5.054   1.438 -0.3621 -0.7177 -0.2621
 4997TIP3   OH236625   1.691   1.973   1.011 -0.1632 -0.1225  0.6142
 4997TIP3    H136626   1.677   2.066   1.024  2.8062  0.3342  1.4243
 4997TIP3    H236627   1.717   1.940   1.098 -0.6743 -1.5974  0.2436
 4998TIP3   OH236628   2.885   6.253   7.807 -0.6670  0.0693  0.4792
 4998TIP3    H136629   2.945   6.279   7.737 -0.6763 -0.8756  0.1048
 4998TIP3    H236630   2.934   6.266   7.888 -1.0595  2.2971  0.4060
 4999TIP3   OH236631   0.109   2.778   8.605 -0.1787  0.3576  0.7309
 4999TIP3    H136632   0.047   2.714   8.640 -1.5038  1.7180  1.0079
 4999TIP3    H236633   0.091   2.858   8.654 -0.2712  1.6180 -1.2245
 5000TIP3   OH236634   6.779   5.942   7.006  0.7422 -0.6288 -0.0513
 5000TIP3    H136635   6.833   5.998   7.062  0.7377  0.4021 -1.0343
 5000TIP3    H236636   6.705   5.916   7.061 -0.5046  2.2771 -0.1879
 5001TIP3   OH236637   5.654   0.445   6.978  0.0954  0.5447 -0.8457
 5001TIP3    H136638   5.654   0.533   6.939 -1.6486  1.6623  1.4398
 5001TIP3    H236639   5.585   0.399   6.931 -0.6341  1.2160 -0.4585
 5002TIP3   OH236640   0.772   1.698   7.676 -0.0486 -0.3461 -0.2898
 5002TIP3    H136641   0.773   1.656   7.590  1.2104 -0.2906 -0.3239
 5002TIP3    H236642   0.680   1.704   7.699 -0.3386 -1.5919 -1.0363
 5003TIP3   OH236643   5.522   4.796   6.921 -0.9722  0.3013 -0.0582
 5003TIP3    H136644   5.520   4.707   6.887  1.7509  1.2404 -3.1448
 5003TIP3    H236645   5.500   4.852   6.846  0.8751  2.3443  0.7932
 5004TIP3   OH236646   5.095   2.401   0.715 -0.2584 -0.3248 -0.4674
 5004TIP3    H136647   5.042   2.348   0.775 -1.5254  2.0122  0.6258
 5004TIP3    H236648   5.134   2.468   0.771  1.0463  0.1013 -1.8264
 5005TIP3   OH236649   6.264   5.345   0.896 -0.8968 -0.1281  0.6013
 5005TIP3    H136650   6.193   5.371   0.954 -1.3880  0.6795 -0.3266
 5005TIP3    H236651   6.323   5.294   0.951 -1.2434  0.7811  1.8495
 5006TIP3   OH236652   6.161   2.090   7.004 -0.0961  0.0048  0.1298
 5006TIP3    H136653   6.074   2.069   6.970 -0.7003  2.7060 -0.2173
 5006TIP3    H236654   6.219   2.086   6.927 -0.6272  1.7141 -0.3945
 5007TIP3   OH236655   2.508   2.527   0.334  0.2979  0.4799  0.2044
 5007TIP3    H136656   2.492   2.502   0.243  1.7696 -0.4947  0.1641
 5007TIP3    H236657   2.449   2.472   0.385  1.3927 -0.9874 -0.0507
 5008TIP3   OH236658   4.478   2.692   2.485 -0.0395 -0.6102  0.1920
 5008TIP3    H136659   4.429   2.739   2.552 -1.0495 -2.9852  1.2467
 5008TIP3    H236660   4.419   2.621   2.458  0.8877 -0.5659 -2.2297
 5009TIP3   OH236661   1.192   3.750   8.031 -0.6047  0.1909  0.4636
 5009TIP3    H136662   1.220   3.832   8.074 -0.9788  1.6092 -1.8518
 5009TIP3    H236663   1.269   3.693   8.038  0.5229  1.5944  0.0876
 5010TIP3   OH236664   3.093   3.244   6.806  0.4243  0.1145  0.4004
 5010TIP3    H136665   3.141   3.242   6.724  2.1780  0.8482  1.3445
 5010TIP3    H236666   3.038   3.322   6.800  0.3116 -0.0058 -0.1868
 5011TIP3   OH236667   6.712   3.293   8.285 -0.1179 -0.8292 -0.0349
 5011TIP3    H136668   6.723   3.216   8.230  1.2464 -1.2892  0.8335
 5011TIP3    H236669   6.776   3.356   8.252 -0.5342 -0.4372 -0.1035
 5012TIP3   OH236670   1.904   3.220   1.664 -0.2181  0.3485  0.0665
 5012TIP3    H136671   1.848   3.186   1.595 -1.6649  0.5723  1.0645
 5012TIP3    H236672   1.878   3.312   1.673 -0.4393  0.1877  1.2412
 5013TIP3   OH236673   1.071   2.341   1.208  0.1350 -0.4804 -0.2617
 5013TIP3    H136674   1.121   2.386   1.140  0.8445 -2.0299 -0.8137
 5013TIP3    H236675   0.981   2.344   1.178  0.2858 -0.1676 -0.6878
 5014TIP3   OH236676   3.714   3.951   1.679  0.3141 -0.3549  0.6564
 5014TIP3    H136677   3.728   3.865   1.719  0.5857 -0.3501  0.5724
 5014TIP3    H236678   3.634   3.984   1.721 -0.3320 -1.0533 -0.0060
 5015TIP3   OH236679   0.025   2.107   7.089  0.1455  0.5519 -0.4627
 5015TIP3    H136680  -0.011   2.156   7.014  1.6814 -1.9066 -3.0034
 5015TIP3    H236681   0.065   2.030   7.050  1.9198 -0.4046  2.8745
 5016TIP3   OH236682   5.989   0.889   7.672  0.1151  0.2642 -0.8699
 5016TIP3    H136683   5.981   0.983   7.688  0.4919  0.0789  0.6185
 5016TIP3    H236684   5.900   0.861   7.650 -0.5619  0.5911  1.1637
 5017TIP3   OH236685   4.178   2.696   0.663 -0.4344  0.0104 -0.0758
 5017TIP3    H136686   4.272   2.687   0.646 -0.0294  2.6662  0.3583
 5017TIP3    H236687   4.170   2.692   0.758 -0.5634  1.0775 -0.0319
 5018TIP3   OH236688   6.442   2.382   0.242  0.4868 -0.4169  0.1070
 5018TIP3    H136689   6.443   2.408   0.150  1.5497  0.2178  0.2730
 5018TIP3    H236690   6.504   2.442   0.284  1.1292 -1.6391  0.9650
 5019TIP3   OH236691   4.567   3.083   1.676 -0.0632  0.2692  0.3135
 5019TIP3    H136692   4.612   3.004   1.645  0.9453  0.9514 -0.0197
 5019TIP3    H236693   4.489   3.050   1.720  0.2512 -0.9089  0.0372
 5020TIP3   OH236694   0.725   5.605   6.630 -0.3291  0.2385 -0.0757
 5020TIP3    H136695   0.693   5.550   6.702 -1.3914  0.3063 -0.4725
 5020TIP3    H236696   0.767   5.544   6.570 -0.1249  0.0750  0.2320
 5021TIP3   OH236697   0.454   3.320   7.006 -0.3906  0.2252  0.0662
 5021TIP3    H136698   0.404   3.368   7.072  2.4140 -0.0989  2.6625
 5021TIP3    H236699   0.526   3.379   6.983  0.0380 -0.6415 -0.8772
 5022TIP3   OH236700   1.448   4.790   2.015  0.0722 -0.0237 -0.1778
 5022TIP3    H136701   1.534   4.821   1.986  0.5268  2.0197  2.8899
 5022TIP3    H236702   1.390   4.865   2.003 -0.0541  0.3701  2.4329
 5023TIP3   OH236703   2.699   0.109   7.509  0.4833  0.6423  0.7535
 5023TIP3    H136704   2.704   0.195   7.467 -1.5873  1.1622  1.4510
 5023TIP3    H236705   2.711   0.128   7.602 -2.3263  0.5777  1.2119
 5024TIP3   OH236706   6.047   4.224   1.748 -0.3713 -0.7481  0.6560
 5024TIP3    H136707   6.001   4.158   1.800  0.5070 -0.9614  1.1885
 5024TIP3    H236708   6.059   4.297   1.809  1.0623 -1.1735  0.9207
 5025TIP3   OH236709   0.196   3.533   1.355  0.0587  0.2327  0.0673
 5025TIP3    H136710   0.234   3.594   1.418  1.2317 -1.4933  1.1489
 5025TIP3    H236711   0.101   3.539   1.370  0.2760  0.2966  1.6144
 5026TIP3   OH236712   2.142   0.262   1.972  0.4746  0.6121  0.7028
 5026TIP3    H136713   2.084   0.328   1.934 -0.5433  0.2031  1.4865
 5026TIP3    H236714   2.089   0.221   2.040  1.1882 -0.7906  0.4496
 5027TIP3   OH236715   6.630   5.462   1.473  0.3221 -0.2341 -0.0173
 5027TIP3    H136716   6.577   5.511   1.536  1.2140  0.9148 -0.1090
 5027TIP3    H236717   6.634   5.374   1.508 -0.2191  0.0806  0.8829
 5028TIP3   OH236718   0.862   6.217   7.084 -0.6557 -0.9424  0.1038
 5028TIP3    H136719   0.935   6.232   7.024 -1.7722  1.2560 -0.8348
 5028TIP3    H236720   0.788   6.263   7.044 -1.5881  0.2271  2.9185
 5029TIP3   OH236721   5.398   4.143   7.935  0.8190 -0.4666 -0.0054
 5029TIP3    H136722   5.372   4.108   8.021 -0.5503  0.3401 -0.0563
 5029TIP3    H236723   5.355   4.085   7.872  0.3887 -0.0247 -0.1196
 5030TIP3   OH236724   5.410   4.725   1.185  0.4488 -0.0022 -0.4174
 5030TIP3    H136725   5.317   4.736   1.205  0.3921 -0.7711 -0.2064
 5030TIP3    H236726   5.448   4.694   1.267  1.1003  1.3215 -0.2014
 5031TIP3   OH236727   4.472   2.784   2.229  0.1006  0.4250 -0.1749
 5031TIP3    H136728   4.491   2.774   2.323  1.5521 -0.1106 -0.5010
 5031TIP3    H236729   4.425   2.704   2.205  1.2084 -0.2358 -0.2348
 5032TIP3   OH236730   2.801   0.621   1.385  0.2373  0.9918 -1.1610
 5032TIP3    H136731   2.771   0.688   1.447  0.2361  1.5771 -1.7868
 5032TIP3    H236732   2.897   0.626   1.389  0.2369  1.0558 -1.2423
 5033TIP3   OH236733   5.291   1.087   8.107 -0.4019  0.0715  0.1511
 5033TIP3    H136734   5.344   1.102   8.028  0.1776  2.0713  0.8671
 5033TIP3    H236735   5.330   1.144   8.173 -0.4870 -2.0032  2.1032
 5034TIP3   OH236736   5.220   3.521   8.060  0.4613 -0.2119  0.4631
 5034TIP3    H136737   5.302   3.565   8.040 -0.1731  1.5803  1.5231
 5034TIP3    H236738   5.194   3.480   7.977  0.2750  2.8764 -1.1843
 5035TIP3   OH236739   2.025   0.831   0.371 -0.4882 -0.3479 -0.0214
 5035TIP3    H136740   1.948   0.885   0.390 -0.4121 -0.4800  0.7013
 5035TIP3    H236741   2.050   0.795   0.457  1.0737  0.6076 -0.0436
 5036TIP3   OH236742   6.780   1.994   7.361 -0.0123 -0.6898 -0.0264
 5036TIP3    H136743   6.696   1.987   7.316  0.2556 -0.5835 -0.5621
 5036TIP3    H236744   6.809   2.084   7.343 -0.4841 -0.2220  1.4393
 5037TIP3   OH236745   4.840   1.536   6.798  0.3465  0.7927  0.2688
 5037TIP3    H136746   4.861   1.451   6.837 -0.1872  0.4580 -0.1638
 5037TIP3    H236747   4.917   1.557   6.744  0.0478  0.0864 -0.4533
 5038TIP3   OH236748   4.927   1.305   1.890 -0.4104  0.1169 -0.6350
 5038TIP3    H136749   4.951   1.373   1.827  0.5052  0.1587 -0.2540
 5038TIP3    H236750   5.000   1.301   1.951 -1.6337  0.6538  0.9358
 5039TIP3   OH236751   6.245   0.369   1.481  0.6539  0.3903 -0.2718
 5039TIP3    H136752   6.241   0.371   1.577  1.9663  0.8536 -0.2117
 5039TIP3    H236753   6.159   0.402   1.453 -0.1549 -0.7590  0.7148
 5040TIP3   OH236754   5.539   3.714   7.552  0.8681  0.1806 -0.0200
 5040TIP3    H136755   5.624   3.713   7.596  1.1302  1.5978 -0.4167
 5040TIP3    H236756   5.512   3.806   7.555 -0.6848 -0.2530  0.1385
 5041TIP3   OH236757   4.736   1.837   0.698 -0.0446 -0.0608  0.0327
 5041TIP3    H136758   4.765   1.814   0.786  1.3206  0.2148 -0.3266
 5041TIP3    H236759   4.656   1.889   0.712 -0.4965 -0.9768  1.0355
 5042TIP3   OH236760   3.836   5.749   7.332 -0.1067 -0.2817  0.4824
 5042TIP3    H136761   3.766   5.704   7.378  0.2127  0.1527  1.4019
 5042TIP3    H236762   3.791   5.804   7.267 -0.5616 -0.6878  0.4442
 5043TIP3   OH236763   0.528   0.635   1.529 -0.1995  0.3337 -0.2420
 5043TIP3    H136764   0.569   0.555   1.495 -0.2981  0.8339 -1.5880
 5043TIP3    H236765   0.590   0.667   1.595  0.0318 -0.6300  0.0252
 5044TIP3   OH236766   2.663   2.015   0.771 -0.0343 -0.5414 -0.1408
 5044TIP3    H136767   2.747   2.054   0.794 -0.8977  0.1603  2.0916
 5044TIP3    H236768   2.677   1.975   0.685  1.9977  1.2566 -0.7084
 5045TIP3   OH236769   1.786   1.255   1.545 -0.2250 -0.2667 -1.0365
 5045TIP3    H136770   1.869   1.286   1.508  0.1528 -0.2103 -0.1841
 5045TIP3    H236771   1.801   1.161   1.560  1.1035  0.3197  2.5060
 5046TIP3   OH236772   0.684   3.281   6.052 -0.2834  0.0393 -0.1404
 5046TIP3    H136773   0.760   3.223   6.040  0.3944  1.0672 -0.9371
 5046TIP3    H236774   0.722   3.369   6.057 -1.4934  0.6639 -1.5311
 5047TIP3   OH236775   1.249   4.418   6.949  0.6964 -1.1827 -0.3161
 5047TIP3    H136776   1.255   4.416   7.044 -0.4197 -0.5701 -0.2190
 5047TIP3    H236777   1.333   4.455   6.920 -0.3357  2.3058  0.6456
 5048TIP3   OH236778   0.808   4.031   7.565  0.2582  0.2485  0.1188
 5048TIP3    H136779   0.846   4.115   7.593  4.0267 -0.3439 -2.5079
 5048TIP3    H236780   0.872   3.965   7.591 -0.6602 -1.3322 -1.4122
 5049TIP3   OH236781   6.792   6.561   1.381 -0.0729  0.3290 -0.8613
 5049TIP3    H136782   6.741   6.548   1.301  0.1979  1.0758 -1.1584
 5049TIP3    H236783   6.726   6.573   1.449 -0.3204 -1.1884 -0.7995
 5050TIP3   OH236784   1.654   4.086   1.146 -0.2696 -0.3233 -0.6671
 5050TIP3    H136785   1.581   4.050   1.197 -1.3627  0.0651 -1.8903
 5050TIP3    H236786   1.719   4.112   1.211 -1.6186  0.1714  0.5285
 5051TIP3   OH236787   2.924   4.545   7.172  0.7610 -0.4657 -0.1531
 5051TIP3    H136788   2.911   4.462   7.217  1.0544  0.5624  1.9204
 5051TIP3    H236789   2.837   4.571   7.143  0.2976 -0.4045  1.2281
 5052TIP3   OH236790   5.513   0.813   0.932  0.3362  0.3625  0.3084
 5052TIP3    H136791   5.443   0.872   0.961 -1.3612 -0.2397 -2.2400
 5052TIP3    H236792   5.590   0.870   0.923 -0.3524  1.4662  1.0985
 5053TIP3   OH236793   1.083   2.660   1.220 -0.4587  0.2045  0.2240
 5053TIP3    H136794   1.096   2.598   1.148 -0.8439  0.2120  0.1464
 5053TIP3    H236795   1.077   2.746   1.178 -0.9443  0.1813  0.2368
 5054TIP3   OH236796   0.790   3.802   8.485  0.0833 -0.0405  0.1802
 5054TIP3    H136797   0.732   3.866   8.525 -0.8532 -1.4817  1.2619
 5054TIP3    H236798   0.765   3.802   8.392  1.3336  2.3627 -0.2275
 5055TIP3   OH236799   0.122   3.333   1.683 -0.9049 -0.1987 -0.5461
 5055TIP3    H136800   0.096   3.337   1.591  0.6396 -0.5371 -1.0186
 5055TIP3    H236801   0.202   3.384   1.688  0.4887 -2.3363  0.0514
 5056TIP3   OH236802   2.688   0.664   8.621 -0.2039  0.6015 -0.1791
 5056TIP3    H136803   2.646   0.658   8.535  0.0912  0.5557 -0.3234
 5056TIP3    H236804   2.640   0.733   8.666 -0.4508  0.5297 -0.3311
 5057TIP3   OH236805   6.565   5.381   1.207 -0.2107 -0.0864 -0.0561
 5057TIP3    H136806   6.613   5.400   1.127 -0.4805 -2.3836 -0.8524
 5057TIP3    H236807   6.618   5.418   1.277 -0.2370  2.4443 -1.2641
 5058TIP3   OH236808   3.987   0.049   0.430 -0.6393  0.1289 -0.3384
 5058TIP3    H136809   3.971   0.012   0.344 -1.6796  0.8025 -0.4498
 5058TIP3    H236810   3.911   0.106   0.447  0.0242  0.7778  0.5891
 5059TIP3   OH236811   5.584   3.768   7.847 -0.0563 -0.6719  0.3866
 5059TIP3    H136812   5.663   3.821   7.834  0.1268 -0.8690  0.6965
 5059TIP3    H236813   5.514   3.820   7.807  0.4528 -1.1686 -1.2181
 5060TIP3   OH236814   2.072   2.719   0.406  0.1148  0.1891 -0.3434
 5060TIP3    H136815   2.091   2.626   0.425  1.4447  0.6584  0.8590
 5060TIP3    H236816   2.157   2.756   0.383 -0.5447  0.9571 -1.6459
 5061TIP3   OH236817   5.300   6.128   0.089  0.0518 -0.2679 -0.1632
 5061TIP3    H136818   5.243   6.186   0.040  1.0984 -0.5341 -1.7770
 5061TIP3    H236819   5.247   6.050   0.106 -0.9282  0.6013  0.8456
 5062TIP3   OH236820   2.337   3.767   0.330 -0.0431 -0.4642  0.4739
 5062TIP3    H136821   2.397   3.822   0.380 -1.9537 -0.7545  3.3757
 5062TIP3    H236822   2.387   3.688   0.310  1.4675  0.5948 -0.0328
 5063TIP3   OH236823   0.565   5.171   7.586 -0.2465 -0.5037 -0.0478
 5063TIP3    H136824   0.598   5.217   7.509  2.9583  1.4761  2.2143
 5063TIP3    H236825   0.584   5.079   7.569  1.6297  0.0317 -1.1753
 5064TIP3   OH236826   4.834   3.067   6.140  0.5332  0.3844 -0.0679
 5064TIP3    H136827   4.774   3.044   6.210 -0.8939 -0.2127 -1.4312
 5064TIP3    H236828   4.916   3.024   6.164 -0.4600 -1.3976  0.3105
 5065TIP3   OH236829   6.600   0.536   7.361  0.3052  0.1648 -0.0446
 5065TIP3    H136830   6.514   0.568   7.387  0.5288  0.4742  0.3269
 5065TIP3    H236831   6.645   0.518   7.443  0.4300 -0.4536 -0.2427
 5066TIP3   OH236832   1.899   1.654   0.997 -0.0809  0.1347  0.1953
 5066TIP3    H136833   1.977   1.598   0.998  0.0203  0.2720  0.8260
 5066TIP3    H236834   1.853   1.629   0.917 -0.0258 -0.8337  0.4422
 5067TIP3   OH236835   3.988   2.211   8.123  0.0834  0.0063 -0.5866
 5067TIP3    H136836   4.064   2.268   8.131  0.6277 -0.7909  0.0525
 5067TIP3    H236837   3.996   2.150   8.196 -0.6151 -0.7504 -1.1263
 5068TIP3   OH236838   0.502   0.617   7.354 -0.5656  0.0478 -0.0456
 5068TIP3    H136839   0.534   0.536   7.313  0.4030  0.4271 -0.0522
 5068TIP3    H236840   0.453   0.661   7.285  0.5417  0.3863 -0.6486
 5069TIP3   OH236841   1.792   3.809   2.326  0.1415  0.5298  0.0359
 5069TIP3    H136842   1.722   3.807   2.392  1.7985 -2.8196  1.9150
 5069TIP3    H236843   1.840   3.890   2.345 -1.5605  1.4778  0.4855
 5070TIP3   OH236844   5.791   1.691   8.035 -0.3079 -0.8221 -0.1153
 5070TIP3    H136845   5.754   1.661   8.117 -1.4284 -2.1846 -1.0777
 5070TIP3    H236846   5.730   1.660   7.968  1.6860 -1.6370 -1.6379
 5071TIP3   OH236847   1.910   2.879   0.618  0.0990  0.1660  0.1302
 5071TIP3    H136848   1.940   2.970   0.612  0.5840  0.0042  0.0538
 5071TIP3    H236849   1.971   2.830   0.563 -0.1182 -0.2155  0.2264
 5072TIP3   OH236850   5.109   6.223   8.478 -0.5515  0.5193  0.3386
 5072TIP3    H136851   5.126   6.144   8.529  1.8312  1.4386  1.0761
 5072TIP3    H236852   5.112   6.193   8.387  1.3872 -0.1128  0.5661
 5073TIP3   OH236853   0.853   4.691   1.023  0.0963  0.8849 -0.5216
 5073TIP3    H136854   0.773   4.646   1.049  0.2056  1.2241  0.4371
 5073TIP3    H236855   0.873   4.655   0.937 -2.1339  2.1731 -1.6799
 5074TIP3   OH236856   2.003   0.900   8.602  0.3214  0.2298  0.3506
 5074TIP3    H136857   1.984   0.939   8.517  0.6531  0.8720  0.5644
 5074TIP3    H236858   1.933   0.932   8.659 -0.1057 -0.4893  0.2439
 5075TIP3   OH236859   2.312   5.436   8.249 -0.2874 -0.0969  0.1399
 5075TIP3    H136860   2.387   5.421   8.191 -0.6121  1.3386 -0.6861
 5075TIP3    H236861   2.236   5.439   8.190 -0.5112  2.3542  0.4346
 5076TIP3   OH236862   5.483   4.319   1.529 -0.4476  0.0594  0.1702
 5076TIP3    H136863   5.409   4.272   1.491 -1.0190 -0.2095  1.5435
 5076TIP3    H236864   5.537   4.251   1.570  1.4440  0.0634 -2.1393
 5077TIP3   OH236865   1.694   3.750   7.649 -0.1071 -0.2858 -0.5108
 5077TIP3    H136866   1.782   3.761   7.684 -0.5565  0.9078  0.3399
 5077TIP3    H236867   1.667   3.662   7.675 -0.3981  0.5189  2.2124
 5078TIP3   OH236868   4.429   5.529   7.749  0.3577  0.2947 -0.3013
 5078TIP3    H136869   4.466   5.530   7.838  0.6604  1.6730 -0.4148
 5078TIP3    H236870   4.505   5.535   7.691  0.0929  0.7072 -0.6112
 5079TIP3   OH236871   5.736   1.771   6.157  0.7083  0.1057  0.3276
 5079TIP3    H136872   5.664   1.716   6.188 -0.6425  0.2045 -2.3717
 5079TIP3    H236873   5.752   1.832   6.229 -0.6694 -1.0661  1.7006
 5080TIP3   OH236874   3.307   4.312   8.165  0.0736 -0.0758  0.4468
 5080TIP3    H136875   3.399   4.309   8.194  0.7882  1.5438 -1.4423
 5080TIP3    H236876   3.273   4.394   8.201  0.5177  1.1731 -1.8009
 5081TIP3   OH236877   4.326   6.600   7.381  0.1861  0.9178  0.1559
 5081TIP3    H136878   4.350   6.651   7.459  0.0609  2.8558 -1.0207
 5081TIP3    H236879   4.247   6.552   7.407  1.1099  0.1531  1.7477
 5082TIP3   OH236880   4.061   5.772   1.405  0.0789 -0.4382  0.1735
 5082TIP3    H136881   4.104   5.687   1.410 -0.6123 -0.9300 -1.6854
 5082TIP3    H236882   4.134   5.835   1.404  0.5814 -0.8869  2.4115
 5083TIP3   OH236883   2.424   2.444   8.505  0.2579  0.1623 -0.5982
 5083TIP3    H136884   2.451   2.504   8.436  0.4449  0.1471 -0.5382
 5083TIP3    H236885   2.429   2.357   8.466 -1.0701  0.2586 -1.0334
 5084TIP3   OH236886   5.641   3.294   1.974  0.0696  0.0509 -0.6541
 5084TIP3    H136887   5.594   3.257   2.049 -2.3823  1.5280 -1.3223
 5084TIP3    H236888   5.614   3.240   1.900 -0.1508  0.5713 -0.9597
 5085TIP3   OH236889   4.957   1.350   7.845  0.4394  0.5929 -0.2668
 5085TIP3    H136890   4.995   1.288   7.908  1.0628  0.8755 -0.3601
 5085TIP3    H236891   4.908   1.295   7.784  1.4685  0.1205 -0.6914
 5086TIP3   OH236892   5.550   4.436   1.288  0.0022 -0.2676 -0.0598
 5086TIP3    H136893   5.528   4.389   1.369  2.3842 -3.7623 -1.1633
 5086TIP3    H236894   5.612   4.503   1.315 -2.1636  1.2720  1.3914
 5087TIP3   OH236895   2.356   0.448   2.092 -0.2937 -0.4218 -0.2950
 5087TIP3    H136896   2.379   0.541   2.088 -0.7706 -0.3243 -1.0883
 5087TIP3    H236897   2.426   0.403   2.045 -1.0147 -0.2571 -1.5729
 5088TIP3   OH236898   2.049   1.430   8.414  0.1403 -0.1845  0.0299
 5088TIP3    H136899   2.104   1.508   8.415  0.6589 -0.4680  2.8883
 5088TIP3    H236900   2.106   1.361   8.380  0.2967  0.2888 -0.6740
 5089TIP3   OH236901   6.868   4.351   8.016 -1.0086 -0.1298  0.1334
 5089TIP3    H136902   6.861   4.359   7.920 -3.2934  0.3104  0.2636
 5089TIP3    H236903   6.917   4.429   8.043 -1.4736  0.4396 -0.6026
 5090TIP3   OH236904   6.697   5.798   6.318 -0.3576 -0.5201  0.3356
 5090TIP3    H136905   6.681   5.853   6.394 -1.4532  0.2585 -0.4355
 5090TIP3    H236906   6.622   5.738   6.315  0.0395 -1.0225  0.2752
 5091TIP3   OH236907   1.419   5.558   2.366 -0.4189  0.0938  0.6732
 5091TIP3    H136908   1.422   5.644   2.407 -2.4614  0.0495  1.0451
 5091TIP3    H236909   1.331   5.525   2.386  0.6756 -2.5868  1.5564
 5092TIP3   OH236910   0.108   6.412   1.307 -1.1375 -0.0131 -0.6726
 5092TIP3    H136911   0.026   6.448   1.342 -0.3515  1.4749 -0.2756
 5092TIP3    H236912   0.170   6.420   1.380 -0.1212  0.7612 -1.5931
 5093TIP3   OH236913   6.699   1.867   0.708  0.4271  0.4184  0.5265
 5093TIP3    H136914   6.611   1.904   0.704  0.0956 -0.4058 -0.0794
 5093TIP3    H236915   6.751   1.933   0.755  0.0375  1.9993 -1.1381
 5094TIP3   OH236916   1.962   2.263   8.392 -0.0607 -0.1400  0.5281
 5094TIP3    H136917   1.976   2.174   8.425 -0.0973 -0.0932  0.6734
 5094TIP3    H236918   2.019   2.317   8.447  1.8943 -0.3489 -1.1831
 5095TIP3   OH236919   1.190   5.066   8.663  0.0684  0.9444 -0.1060
 5095TIP3    H136920   1.250   5.039   8.593  0.9113 -2.3722  1.6816
 5095TIP3    H236921   1.209   5.159   8.676  2.4144  0.8115 -1.8787
 5096TIP3   OH236922   4.822   1.426   1.281  0.2782 -0.0919 -0.0798
 5096TIP3    H136923   4.866   1.348   1.245  1.9243  0.7813 -0.0386
 5096TIP3    H236924   4.743   1.435   1.228  0.6520 -1.1265 -0.8535
 5097TIP3   OH236925   6.085   4.777   7.474 -0.2647  0.0588  0.6906
 5097TIP3    H136926   6.124   4.855   7.512  0.9766  0.6752 -1.6617
 5097TIP3    H236927   6.159   4.729   7.436 -1.4426 -0.0183 -1.7090
 5098TIP3   OH236928   4.741   6.794   0.846 -0.2710 -0.1793  0.6663
 5098TIP3    H136929   4.674   6.750   0.794 -0.6443  0.4604  0.5995
 5098TIP3    H236930   4.704   6.880   0.865  0.6449  0.2890  0.3857
 5099TIP3   OH236931   4.713   3.102   8.092  0.5160 -0.1640  0.0687
 5099TIP3    H136932   4.741   3.044   8.163 -1.5461 -0.7334  0.4807
 5099TIP3    H236933   4.674   3.177   8.137  0.5021  0.1479 -0.4640
 5100TIP3   OH236934   1.019   4.264   0.970  0.4613  0.1902  0.4519
 5100TIP3    H136935   1.100   4.216   0.987  0.9091  0.8792  0.2936
 5100TIP3    H236936   0.951   4.196   0.971  1.1096 -0.4883 -0.0453
 5101TIP3   OH236937   2.790   1.455   0.810 -0.1450 -0.0664 -0.3139
 5101TIP3    H136938   2.743   1.535   0.788 -1.6630 -0.1090  2.3020
 5101TIP3    H236939   2.722   1.389   0.820  0.5591 -0.5537  1.9305
 5102TIP3   OH236940   5.757   5.664   0.731 -0.6297 -0.4778 -0.4014
 5102TIP3    H136941   5.728   5.754   0.746  2.4679  0.4560  0.7175
 5102TIP3    H236942   5.847   5.661   0.765 -0.9808 -4.3208  0.6769
 5103TIP3   OH236943   0.131   3.058   7.095  0.1767 -0.3962 -0.1563
 5103TIP3    H136944   0.182   3.005   7.033  0.0336  1.3970 -1.8748
 5103TIP3    H236945   0.188   3.132   7.115 -1.5712  1.5595 -1.9771
 5104TIP3   OH236946   4.762   6.635   8.265  0.4033  0.3868 -0.3607
 5104TIP3    H136947   4.693   6.671   8.209  0.1131 -1.7864 -1.5155
 5104TIP3    H236948   4.839   6.631   8.208  0.2739 -1.2663 -0.4689
 5105TIP3   OH236949   0.845   6.692   1.408 -0.0024  0.0982  0.9485
 5105TIP3    H136950   0.894   6.662   1.332 -0.0393  2.0385  0.1025
 5105TIP3    H236951   0.905   6.749   1.455 -0.7071  0.7449  1.0991
 5106TIP3   OH236952   1.321   5.482   8.100  0.2409 -0.1737 -0.1967
 5106TIP3    H136953   1.329   5.432   8.182 -1.3390 -0.7213 -0.3523
 5106TIP3    H236954   1.232   5.515   8.101  0.8706  1.6322 -0.7102
 5107TIP3   OH236955   2.542   0.108   0.539 -0.5602  0.8605 -0.3041
 5107TIP3    H136956   2.601   0.036   0.559 -1.2461  0.4434  0.2701
 5107TIP3    H236957   2.595   0.169   0.488  0.3610  0.5065  0.2036
 5108TIP3   OH236958   6.620   2.108   6.592  0.0104  0.6432 -0.1583
 5108TIP3    H136959   6.535   2.064   6.593  0.4948 -0.3350  0.0122
 5108TIP3    H236960   6.602   2.195   6.558 -1.5260  1.4474  2.4545
 5109TIP3   OH236961   3.664   1.187   7.771 -0.1947 -0.4810 -0.3587
 5109TIP3    H136962   3.745   1.237   7.777 -0.2899 -0.3502 -0.1465
 5109TIP3    H236963   3.619   1.204   7.854 -0.5882 -0.2918 -0.6085
 5110TIP3   OH236964   4.934   2.611   1.923 -0.5351  0.3166 -0.1380
 5110TIP3    H136965   5.021   2.585   1.952 -0.7329 -1.7396 -1.2665
 5110TIP3    H236966   4.890   2.641   2.003  0.4229 -0.8786  0.8645
 5111TIP3   OH236967   1.306   6.581   1.820 -0.0509  0.1052 -0.4446
 5111TIP3    H136968   1.232   6.521   1.822 -0.9152  1.0768 -1.5121
 5111TIP3    H236969   1.277   6.656   1.873 -0.4884  1.1556 -2.0872
 5112TIP3   OH236970   3.421   3.362   0.481 -0.3136  0.2318  0.4690
 5112TIP3    H136971   3.445   3.454   0.469 -1.3772  0.6039  1.0425
 5112TIP3    H236972   3.503   3.314   0.469  0.0239  1.1291 -1.1378
 5113TIP3   OH236973   0.143   1.075   1.275 -0.3346  0.0471 -0.5655
 5113TIP3    H136974   0.226   1.050   1.233 -0.0637 -1.1363  0.5985
 5113TIP3    H236975   0.082   1.086   1.202  0.8211  0.9207 -1.4465
 5114TIP3   OH236976   1.026   6.093   0.484 -0.4651 -0.6151 -0.0828
 5114TIP3    H136977   1.041   6.085   0.390 -3.9295  0.9558 -0.9257
 5114TIP3    H236978   1.051   6.183   0.505 -3.2398  0.3300 -0.4447
 5115TIP3   OH236979   5.726   4.367   8.484 -0.4617  0.3270  0.9386
 5115TIP3    H136980   5.821   4.377   8.470 -0.2252 -0.3227  1.9406
 5115TIP3    H236981   5.712   4.273   8.490 -0.9057  0.4526  2.3592
 5116TIP3   OH236982   0.882   0.589   8.408  0.0747  0.1651  0.2494
 5116TIP3    H136983   0.866   0.678   8.439  1.0070 -0.0890  1.5342
 5116TIP3    H236984   0.889   0.597   8.313 -0.0742  1.4144  0.3357
 5117TIP3   OH236985   0.660   1.301   8.068  0.2444  0.1531 -0.1923
 5117TIP3    H136986   0.671   1.231   8.132 -1.1176 -1.2588 -1.3932
 5117TIP3    H236987   0.629   1.255   7.989 -0.7448  2.1238 -1.0077
 5118TIP3   OH236988   4.596   2.677   1.100 -0.2045  0.0373 -0.1081
 5118TIP3    H136989   4.511   2.636   1.115 -1.5665  2.8016  0.5514
 5118TIP3    H236990   4.628   2.699   1.188  0.8157 -0.2563 -0.3943
 5119TIP3   OH236991   1.796   1.444   1.774 -0.4737  0.0630 -0.1693
 5119TIP3    H136992   1.782   1.412   1.685  0.4517  1.2469 -0.7773
 5119TIP3    H236993   1.885   1.415   1.796  0.3359  1.9665 -0.6856
 5120TIP3   OH236994   5.089   2.963   6.163 -0.0794  0.3751  0.3068
 5120TIP3    H136995   5.089   3.001   6.251  0.9471 -2.7033  1.7881
 5120TIP3    H236996   5.178   2.976   6.130  0.7427 -1.7580  1.4374
 5121TIP3   OH236997   6.117   6.650   1.269  0.1222  0.2299 -0.1743
 5121TIP3    H136998   6.134   6.741   1.293 -1.4702  0.5054  0.0297
 5121TIP3    H236999   6.119   6.650   1.174  1.2632  0.2162 -0.1693
 5122TIP3   OH237000   2.043   5.742   8.307  0.0397  0.1025 -0.0602
 5122TIP3    H137001   1.994   5.825   8.311  0.9901  0.7225 -0.8603
 5122TIP3    H237002   1.992   5.687   8.247  0.2820  0.7204 -0.8454
 5123TIP3   OH237003   2.281   0.002   1.909  0.4410  0.6312 -0.3502
 5123TIP3    H137004   2.351  -0.003   1.974  1.3107 -0.2894 -1.3234
 5123TIP3    H237005   2.214   0.057   1.950  1.2669  0.6496  1.0299
 5124TIP3   OH237006   2.423   2.335   6.344 -0.5180 -0.2758 -0.4158
 5124TIP3    H137007   2.396   2.246   6.320  0.9552 -1.0558  0.6171
 5124TIP3    H237008   2.343   2.387   6.337 -1.5526 -1.7934 -0.5201
 5125TIP3   OH237009   5.522   5.744   8.039 -1.0071 -0.3381  0.2352
 5125TIP3    H137010   5.519   5.770   7.947 -2.2301  1.7598  0.7975
 5125TIP3    H237011   5.603   5.694   8.047 -0.1008  0.7094 -1.6701
 5126TIP3   OH237012   4.498   6.612   6.626 -0.6063 -0.0876  0.3645
 5126TIP3    H137013   4.506   6.600   6.721 -1.2919  0.1427  0.4597
 5126TIP3    H237014   4.551   6.542   6.588  1.8011  1.3117  0.8911
 5127TIP3   OH237015   4.935   5.016   0.101  0.2187  0.3998  0.0039
 5127TIP3    H137016   4.868   5.012   0.032  1.4306  0.5364 -1.2187
 5127TIP3    H237017   5.009   5.061   0.060  0.9101  0.6566  1.4698
 5128TIP3   OH237018   2.914   1.672   7.590  0.0493  0.5348 -0.3645
 5128TIP3    H137019   2.825   1.654   7.558  1.1283 -2.6443 -2.0447
 5128TIP3    H237020   2.902   1.699   7.681 -2.5404 -3.5363  0.7517
 5129TIP3   OH237021   6.317   3.844   6.643  0.4554 -0.2199  0.3500
 5129TIP3    H137022   6.367   3.877   6.569 -0.5696 -0.4218 -0.4650
 5129TIP3    H237023   6.265   3.772   6.606 -0.2686 -0.1471  1.2040
 5130TIP3   OH237024   0.154   3.370   7.015 -0.1965  0.6227  0.2712
 5130TIP3    H137025   0.107   3.426   6.953 -0.4628  0.2470  0.1238
 5130TIP3    H237026   0.190   3.430   7.080 -0.1301  0.9978 -0.1105
 5131TIP3   OH237027   1.292   0.807   1.406  0.2612  0.1548  0.4466
 5131TIP3    H137028   1.362   0.756   1.367 -0.1638  0.2873 -0.4988
 5131TIP3    H237029   1.257   0.751   1.475  0.2118 -0.5815 -0.1675
 5132TIP3   OH237030   2.152   1.499   1.068 -0.2235 -0.1407  0.1364
 5132TIP3    H137031   2.232   1.547   1.048 -0.5430  0.6889  0.7993
 5132TIP3    H237032   2.169   1.410   1.037  0.9976 -0.0006  0.3563
 5133TIP3   OH237033   3.516   4.027   1.474  0.0764  0.0497 -0.0996
 5133TIP3    H137034   3.561   4.090   1.530  0.1483 -0.3607  0.3074
 5133TIP3    H237035   3.463   4.081   1.415  0.2515  0.4933  0.1476
 5134TIP3   OH237036   5.851   4.322   0.278 -0.5349 -0.1847 -0.3922
 5134TIP3    H137037   5.845   4.334   0.373 -0.3719 -0.6830 -0.3193
 5134TIP3    H237038   5.766   4.354   0.245 -0.4633  0.2997 -0.1147
 5135TIP3   OH237039   2.369   3.322   2.071  0.1423  0.3215 -0.2326
 5135TIP3    H137040   2.444   3.344   2.126  0.9421 -1.0775 -0.7353
 5135TIP3    H237041   2.355   3.228   2.085 -0.6257  0.2717 -1.2261
 5136TIP3   OH237042   4.895   3.491   8.663 -0.0160  0.1042  0.8810
 5136TIP3    H137043   4.832   3.424   8.689 -0.5442  0.4371  0.4669
 5136TIP3    H237044   4.966   3.441   8.622  0.0763 -0.2860  1.4971
 5137TIP3   OH237045   0.604   1.816   1.931 -0.4993 -0.7710 -0.3240
 5137TIP3    H137046   0.597   1.802   2.026  0.7897  1.1988  0.1022
 5137TIP3    H237047   0.517   1.844   1.905 -0.5107  0.0444  0.5403
 5138TIP3   OH237048   3.914   6.874   0.162 -0.2367  0.7837  0.0359
 5138TIP3    H137049   3.835   6.847   0.116 -1.2438  1.5243  1.2767
 5138TIP3    H237050   3.985   6.829   0.116 -1.4171 -0.3370 -0.7540
 5139TIP3   OH237051   3.246   4.265   1.118  0.1499  0.1465  0.1806
 5139TIP3    H137052   3.151   4.274   1.108  0.3022  0.5216 -1.1259
 5139TIP3    H237053   3.280   4.351   1.097  0.8221 -0.1411  0.0719
 5140TIP3   OH237054   2.722   1.859   8.108 -0.1120 -0.2419  0.6682
 5140TIP3    H137055   2.716   1.952   8.086 -4.2375 -0.4164  0.1683
 5140TIP3    H237056   2.723   1.814   8.023 -1.5583 -0.6353  0.8233
 5141TIP3   OH237057   3.625   3.218   8.055  0.0172 -0.2663  0.1294
 5141TIP3    H137058   3.546   3.222   8.109  0.5387  2.2321  0.8530
 5141TIP3    H237059   3.696   3.206   8.118  0.3655 -0.9300 -0.3775
 5142TIP3   OH237060   2.587   5.506   7.583  0.6612 -0.3760  0.1556
 5142TIP3    H137061   2.671   5.511   7.538  0.0918  1.6413 -0.8368
 5142TIP3    H237062   2.531   5.567   7.534 -0.2072  1.4952  3.2256
 5143TIP3   OH237063   1.423   1.579   0.710 -0.0495  0.2360  0.6572
 5143TIP3    H137064   1.367   1.539   0.777 -0.3689 -0.1174  0.1911
 5143TIP3    H237065   1.445   1.665   0.745 -1.9721  0.9241  0.2690
 5144TIP3   OH237066   1.712   0.560   2.059 -0.3368  0.8149 -0.0958
 5144TIP3    H137067   1.628   0.549   2.103 -0.2106 -0.6843 -0.1638
 5144TIP3    H237068   1.773   0.505   2.109  0.5808  1.7742 -0.1232
 5145TIP3   OH237069   4.257   2.717   8.282 -0.1550 -0.6149 -0.1564
 5145TIP3    H137070   4.279   2.624   8.277 -0.4684 -0.6123 -2.3921
 5145TIP3    H237071   4.342   2.762   8.287 -0.0108 -0.9889  1.4904
 5146TIP3   OH237072   5.250   2.974   0.501  0.1864  0.2507 -0.0396
 5146TIP3    H137073   5.318   3.041   0.510  1.6921 -1.3139  0.8574
 5146TIP3    H237074   5.237   2.941   0.590 -1.9553  0.6602 -0.1662
 5147TIP3   OH237075   0.909   5.693   7.874  0.2324 -0.4833  0.0934
 5147TIP3    H137076   0.851   5.769   7.864 -1.8751 -1.9960  0.0586
 5147TIP3    H237077   0.972   5.702   7.803 -0.5126  0.7945 -0.4431
 5148TIP3   OH237078   2.431   6.345   7.496 -0.4977  0.1368 -0.1306
 5148TIP3    H137079   2.421   6.417   7.434 -1.6456  1.1782  1.1784
 5148TIP3    H237080   2.525   6.333   7.504 -0.2763  1.5502 -0.3328
 5149TIP3   OH237081   1.647   4.194   6.974  0.6170 -0.5701 -0.1372
 5149TIP3    H137082   1.597   4.135   6.917  1.2859  0.1410 -1.4884
 5149TIP3    H237083   1.679   4.262   6.916 -1.8654  2.3730  1.6592
 5150TIP3   OH237084   0.219   3.919   0.205 -0.5060 -0.5350  0.5248
 5150TIP3    H137085   0.199   3.928   0.112  2.5473 -2.4464 -0.4741
 5150TIP3    H237086   0.139   3.885   0.244 -2.0577  0.8961 -1.2069
 5151TIP3   OH237087   1.934   0.941   0.634  0.2091 -0.6825 -0.4328
 5151TIP3    H137088   1.862   1.003   0.620 -0.2586 -1.4423 -1.4827
 5151TIP3    H237089   2.013   0.993   0.619 -0.1957 -0.4786 -2.0329
 5152TIP3   OH237090   2.256   2.601   1.672  0.2038 -0.4379 -0.2572
 5152TIP3    H137091   2.300   2.637   1.595  0.2677 -1.5654 -0.7625
 5152TIP3    H237092   2.312   2.628   1.746  0.1663  0.6100 -0.5856
 5153TIP3   OH237093   1.176   5.026   1.133 -0.4180 -0.4539  0.4404
 5153TIP3    H137094   1.123   5.019   1.213  0.5489 -0.4822  1.1060
 5153TIP3    H237095   1.123   5.079   1.073 -0.4689  1.0083  1.7168
 5154TIP3   OH237096   3.955   1.002   0.432  0.3810 -0.0664  0.4290
 5154TIP3    H137097   3.880   0.951   0.401  1.4509 -0.1766 -2.2181
 5154TIP3    H237098   3.919   1.089   0.448 -0.4569 -0.2852 -0.1882
 5155TIP3   OH237099   5.241   0.067   0.217 -0.1403 -0.4444 -0.1118
 5155TIP3    H137100   5.303   0.124   0.262  0.9031 -2.2950  0.9271
 5155TIP3    H237101   5.296   0.006   0.168 -1.2331  0.6961 -2.9920
 5156TIP3   OH237102   4.420   2.813   0.820  0.0226  0.4899  0.5308
 5156TIP3    H137103   4.447   2.734   0.772  0.9936  1.0036  0.2078
 5156TIP3    H237104   4.502   2.855   0.845 -0.4637  1.9218 -0.1616
 5157TIP3   OH237105   3.644   6.608   8.307  0.5844 -0.0994 -0.8660
 5157TIP3    H137106   3.666   6.700   8.293 -2.1690  0.7994  0.0943
 5157TIP3    H237107   3.560   6.596   8.264  0.2576 -1.8195  0.1417
 5158TIP3   OH237108   6.780   2.880   8.377  0.4500  0.0284 -0.4722
 5158TIP3    H137109   6.817   2.794   8.399 -1.3471 -1.0352 -1.3968
 5158TIP3    H237110   6.718   2.862   8.306 -2.3265  1.5655  1.3913
 5159TIP3   OH237111   3.905   4.271   8.355 -0.0052  0.0056  0.7105
 5159TIP3    H137112   3.930   4.342   8.296  1.6884  0.9338  2.4371
 5159TIP3    H237113   3.828   4.231   8.313  2.1620 -0.6648 -3.1011
 5160TIP3   OH237114   5.974   1.123   0.110  0.3135  0.1070 -0.0470
 5160TIP3    H137115   6.050   1.109   0.054  0.9352  1.3940  0.4517
 5160TIP3    H237116   6.009   1.166   0.188 -1.0440  1.6752 -0.2439
 5161TIP3   OH237117   2.146   6.072   8.661  0.2908 -0.3250 -0.2629
 5161TIP3    H137118   2.079   6.005   8.648 -0.8164  0.9828 -1.6587
 5161TIP3    H237119   2.228   6.023   8.665 -0.5206 -1.8043 -0.8052
 5162TIP3   OH237120   1.200   4.339   0.569  0.1518  0.1891 -0.0181
 5162TIP3    H137121   1.181   4.388   0.649 -0.5685 -1.8621  1.1190
 5162TIP3    H237122   1.296   4.342   0.561  0.2652  0.0492  1.1717
 5163TIP3   OH237123   3.529   3.917   7.632  0.2626  0.0719  0.3319
 5163TIP3    H137124   3.562   3.881   7.714  0.3779  0.5972  0.5188
 5163TIP3    H237125   3.513   4.009   7.651 -1.0109 -0.0938  0.1492
 5164TIP3   OH237126   1.407   6.140   1.568 -0.1116 -0.2958  0.4443
 5164TIP3    H137127   1.403   6.140   1.473 -0.2629 -0.4504  0.4497
 5164TIP3    H237128   1.320   6.169   1.595  0.7425  2.4225  0.5099
 5165TIP3   OH237129   1.037   0.709   7.253 -0.2323  0.0772 -0.6680
 5165TIP3    H137130   1.055   0.639   7.315 -1.5592 -0.5655 -0.9710
 5165TIP3    H237131   0.992   0.776   7.305 -1.0746 -0.3310 -0.8580
 5166TIP3   OH237132   0.900   6.096   8.316  0.0285 -0.3352 -0.4629
 5166TIP3    H137133   0.821   6.121   8.363  0.0209 -1.4176  0.1488
 5166TIP3    H237134   0.941   6.031   8.373  1.7169  0.6938 -0.4378
 5167TIP3   OH237135   1.327   4.552   1.041 -0.2108 -0.4050  0.1049
 5167TIP3    H137136   1.318   4.642   1.074 -1.0115  0.6554 -2.7302
 5167TIP3    H237137   1.247   4.508   1.068  0.6885 -0.7248  2.5333
 5168TIP3   OH237138   0.596   2.716   8.061  0.1053 -0.0022  0.3376
 5168TIP3    H137139   0.533   2.788   8.060 -0.0395 -0.1114  0.9310
 5168TIP3    H237140   0.565   2.659   8.132  0.0407 -0.8048 -0.3191
 5169TIP3   OH237141   5.672   2.153   7.690  0.1068  0.7737  0.0656
 5169TIP3    H137142   5.605   2.199   7.639  0.7158  0.5820 -0.9373
 5169TIP3    H237143   5.633   2.143   7.777 -0.8138  1.4368 -0.2476
 5170TIP3   OH237144   2.753   2.360   7.302  0.6265  0.2810  0.2361
 5170TIP3    H137145   2.687   2.372   7.234 -0.4188  0.2725  1.2312
 5170TIP3    H237146   2.730   2.276   7.343  2.0070 -0.3540 -0.2116
 5171TIP3   OH237147   5.057   4.659   1.113  0.0599  0.2544  0.2586
 5171TIP3    H137148   5.082   4.719   1.183  0.1731 -0.4763  0.8462
 5171TIP3    H237149   4.964   4.641   1.129  0.4236 -0.9904  1.0329
 5172TIP3   OH237150   5.221   1.334   7.599  0.8702 -0.1471  0.2644
 5172TIP3    H137151   5.181   1.249   7.619 -0.6218 -0.1359 -2.2394
 5172TIP3    H237152   5.239   1.331   7.505  3.1221  1.4300  0.5506
 5173TIP3   OH237153   3.473   4.323   2.041  0.0154 -0.3631 -0.1497
 5173TIP3    H137154   3.547   4.384   2.029  0.2612 -0.7712 -0.7795
 5173TIP3    H237155   3.396   4.373   2.013  0.3494 -0.6755 -1.7133
 5174TIP3   OH237156   4.237   6.711   8.583 -0.6013 -0.4628  0.4182
 5174TIP3    H137157   4.144   6.705   8.565 -1.2152  3.0164  1.5315
 5174TIP3    H237158   4.280   6.683   8.502 -2.5248 -2.6771  0.0880
 5175TIP3   OH237159   2.622   4.582   0.133  0.1783  0.1929  0.5440
 5175TIP3    H137160   2.595   4.642   0.203  0.6659  1.2659 -0.1546
 5175TIP3    H237161   2.546   4.577   0.075  0.9743  2.2751 -0.7936
 5176TIP3   OH237162   6.112   4.400   6.323  0.1261 -0.0694  0.1705
 5176TIP3    H137163   6.068   4.485   6.325  1.3959  0.6129  0.6074
 5176TIP3    H237164   6.114   4.371   6.414  1.4316  0.3998  0.3191
 5177TIP3   OH237165   3.254   0.472   2.162  0.2870 -0.0083 -0.1362
 5177TIP3    H137166   3.297   0.412   2.222  1.7210  1.2183  0.1423
 5177TIP3    H237167   3.210   0.416   2.098 -0.5208 -1.3309  1.5047
 5178TIP3   OH237168   4.389   0.648   7.898  0.2730  0.2293  0.4674
 5178TIP3    H137169   4.468   0.684   7.939  1.3815 -1.8539  0.3279
 5178TIP3    H237170   4.422   0.596   7.824 -0.9311 -2.7170  1.8311
 5179TIP3   OH237171   1.219   5.888   7.054  0.2601 -0.0424 -0.2982
 5179TIP3    H137172   1.127   5.910   7.040 -0.0458 -1.9826 -1.6663
 5179TIP3    H237173   1.266   5.940   6.990 -0.1766 -1.0668 -1.4881
 5180TIP3   OH237174   6.088   2.462   6.778 -0.0774 -0.0965 -0.0322
 5180TIP3    H137175   6.116   2.457   6.687  1.6022 -1.3093  0.4997
 5180TIP3    H237176   6.126   2.543   6.810  0.6361 -0.4290 -0.0191
 5181TIP3   OH237177   1.724   4.362   2.310 -0.0374  0.1496 -0.4231
 5181TIP3    H137178   1.709   4.421   2.384 -1.0684  0.7943 -1.1174
 5181TIP3    H237179   1.818   4.366   2.295  0.0590  0.7259  0.2697
 5182TIP3   OH237180   4.365   1.769   2.079 -0.8535  0.4632  0.3679
 5182TIP3    H137181   4.378   1.851   2.127 -0.0253 -0.4269  1.7103
 5182TIP3    H237182   4.304   1.793   2.009 -0.6244  2.2299  0.7031
 5183TIP3   OH237183   5.802   0.978   0.755 -0.0402 -0.1742 -0.1828
 5183TIP3    H137184   5.764   1.019   0.832  1.7428 -1.8654  1.7024
 5183TIP3    H237185   5.896   0.993   0.764  0.2541 -0.8509 -1.7803
 5184TIP3   OH237186   6.427   2.749   5.989 -0.0018  0.1818  0.3283
 5184TIP3    H137187   6.383   2.665   5.977 -0.5144  0.6168 -1.0679
 5184TIP3    H237188   6.357   2.814   5.981  0.5211  0.7733  0.5220
 5185TIP3   OH237189   2.564   5.136   6.467  0.3846 -0.2585 -0.7210
 5185TIP3    H137190   2.637   5.127   6.528 -2.4320  0.1251  3.0401
 5185TIP3    H237191   2.581   5.070   6.399  3.1187 -1.6087  1.1311
 5186TIP3   OH237192   4.566   1.450   1.159 -0.2703 -0.0741 -0.6067
 5186TIP3    H137193   4.526   1.535   1.178  0.2502  0.3659 -1.4695
 5186TIP3    H237194   4.492   1.394   1.136 -0.5280  0.3657 -0.8621
 5187TIP3   OH237195   3.609   3.770   1.966 -0.4278  0.0109  0.0817
 5187TIP3    H137196   3.574   3.723   2.041 -1.3138 -0.4845 -0.6362
 5187TIP3    H237197   3.622   3.860   1.998  0.8488 -0.5730  1.3204
 5188TIP3   OH237198   6.106   0.401   7.459 -0.4845  0.4005 -0.5405
 5188TIP3    H137199   6.065   0.430   7.540 -0.8465  1.6733 -1.1554
 5188TIP3    H237200   6.139   0.314   7.479 -3.0209 -0.4760  0.1355
 5189TIP3   OH237201   1.000   6.735   6.918  0.4536 -0.5478 -0.4515
 5189TIP3    H137202   0.937   6.804   6.901  1.8259  0.5045 -1.4861
 5189TIP3    H237203   0.955   6.654   6.892 -0.0127  0.3113 -2.4696
 5190TIP3   OH237204   6.674   5.215   1.604 -0.0900 -0.1579  0.2018
 5190TIP3    H137205   6.727   5.137   1.586 -0.9527 -0.2613 -2.3890
 5190TIP3    H237206   6.591   5.181   1.637  0.2311 -0.1835  1.0139
 5191TIP3   OH237207   5.595   6.612   7.350 -0.4897 -0.2379 -0.1494
 5191TIP3    H137208   5.561   6.524   7.334  0.3287 -0.4140 -1.0410
 5191TIP3    H237209   5.690   6.598   7.361 -0.3537  0.5343 -0.3287
 5192TIP3   OH237210   0.282   4.444   7.522 -0.3411 -0.4155  1.0304
 5192TIP3    H137211   0.264   4.474   7.433  0.9334 -0.9674  0.5529
 5192TIP3    H237212   0.219   4.373   7.537 -1.9455  1.0080  1.3818
 5193TIP3   OH237213   0.140   2.296   6.465 -0.0851  0.3047  0.4189
 5193TIP3    H137214   0.117   2.255   6.548  0.9365 -0.9124  0.1463
 5193TIP3    H237215   0.119   2.388   6.476 -1.7645 -0.1637  1.3327
 5194TIP3   OH237216   6.325   0.933   0.490 -0.4130 -0.0414  0.4423
 5194TIP3    H137217   6.249   0.908   0.437  0.0163  0.3849 -0.4072
 5194TIP3    H237218   6.399   0.893   0.445  0.0550  1.0591  0.2060
 5195TIP3   OH237219   6.776   0.008   7.621 -0.1420 -0.1302  0.4454
 5195TIP3    H137220   6.693   0.056   7.613  0.4331  0.6969 -0.7858
 5195TIP3    H237221   6.822   0.025   7.539  1.0303 -1.0169  0.8911
 5196TIP3   OH237222   2.900   5.463   7.158 -0.2848  0.1444 -0.4001
 5196TIP3    H137223   2.990   5.473   7.188 -0.6010  2.2832 -0.0118
 5196TIP3    H237224   2.892   5.526   7.086 -1.4513 -0.0629 -0.4701
 5197TIP3   OH237225   1.050   3.642   1.110  0.1606  0.4740  0.0621
 5197TIP3    H137226   0.995   3.573   1.148 -0.0836  0.2439 -0.7004
 5197TIP3    H237227   1.038   3.716   1.169 -0.7940  0.3569  0.0362
 5198TIP3   OH237228   1.737   0.496   7.158  0.2212  0.0247  0.0544
 5198TIP3    H137229   1.650   0.525   7.187  0.7419  1.4486  0.2619
 5198TIP3    H237230   1.745   0.407   7.192 -2.1909 -1.1846 -2.1720
 5199TIP3   OH237231   2.501   5.797   6.638 -0.2454 -0.1186 -1.3937
 5199TIP3    H137232   2.507   5.887   6.671  1.2878 -0.3339 -0.9988
 5199TIP3    H237233   2.409   5.774   6.650 -0.0973  0.3508  1.3781
 5200TIP3   OH237234   5.799   2.733   0.224 -0.2093  0.2705 -0.1576
 5200TIP3    H137235   5.784   2.827   0.236  0.5694  0.3017  0.6660
 5200TIP3    H237236   5.712   2.697   0.207 -0.5754  1.0860 -0.0675
 5201TIP3   OH237237   6.022   4.911   6.935  0.2169  0.8093  0.7038
 5201TIP3    H137238   5.991   4.919   6.845  1.8683  1.1503  0.1410
 5201TIP3    H237239   5.942   4.916   6.988 -0.6143  2.6425 -0.6186
 5202TIP3   OH237240   0.353   5.000   1.532 -0.4053  0.4321  0.8888
 5202TIP3    H137241   0.273   5.032   1.491 -0.4278  1.2759  1.5763
 5202TIP3    H237242   0.420   5.064   1.508  0.0535 -0.2139  0.4001
 5203TIP3   OH237243   6.146   2.750   1.148 -0.0819  0.2198  0.4688
 5203TIP3    H137244   6.234   2.778   1.173 -0.2236  1.8871 -0.7325
 5203TIP3    H237245   6.095   2.756   1.228  1.1059 -1.8600  1.4535
 5204TIP3   OH237246   1.139   4.571   7.413 -0.1893 -0.1143 -0.1584
 5204TIP3    H137247   1.047   4.554   7.391 -0.0226 -0.7422 -0.4091
 5204TIP3    H237248   1.135   4.625   7.492 -0.7727 -1.2892  0.6439
 5205TIP3   OH237249   0.849   4.631   1.835 -0.3658  0.7039 -0.2860
 5205TIP3    H137250   0.893   4.647   1.918  0.8641 -0.5436 -0.6573
 5205TIP3    H237251   0.780   4.568   1.855 -0.5944  1.0144 -0.0840
 5206TIP3   OH237252   6.757   5.817   0.856 -0.1885 -0.0179 -0.0383
 5206TIP3    H137253   6.812   5.837   0.781  0.5380  1.9993  0.9566
 5206TIP3    H237254   6.810   5.760   0.912 -0.6253 -1.2841 -0.8818
 5207TIP3   OH237255   5.900   2.326   6.940  0.1085 -0.4585  0.0692
 5207TIP3    H137256   5.909   2.362   7.029 -0.4159  2.2688 -0.8945
 5207TIP3    H237257   5.977   2.359   6.894 -0.6537 -0.1692 -1.0093
 5208TIP3   OH237258   6.439   2.001   8.403  0.0495 -0.3580 -0.0790
 5208TIP3    H137259   6.529   2.031   8.395  0.6733 -1.4588  1.9995
 5208TIP3    H237260   6.440   1.912   8.369 -0.2394 -0.3952  0.0045
 5209TIP3   OH237261   2.544   6.543   6.785  0.3576 -0.1988 -0.0016
 5209TIP3    H137262   2.532   6.637   6.772 -0.1414 -0.3884 -1.0082
 5209TIP3    H237263   2.629   6.536   6.829  0.9736  0.6686 -0.9932
 5210TIP3   OH237264   2.604   3.734   7.627 -0.4519 -0.0329  0.4109
 5210TIP3    H137265   2.678   3.785   7.660  0.0592  0.0885 -0.9015
 5210TIP3    H237266   2.527   3.774   7.668  0.0922  0.7020  0.7213
 5211TIP3   OH237267   6.283   4.135   1.634 -0.1080  0.7919 -0.1455
 5211TIP3    H137268   6.313   4.073   1.701 -0.3110  2.1550  1.2687
 5211TIP3    H237269   6.197   4.164   1.667  0.1978  2.1660 -0.5236
 5212TIP3   OH237270   2.160   3.978   8.567 -0.7879  0.0516 -0.3983
 5212TIP3    H137271   2.218   3.982   8.491 -2.0949 -0.2899 -1.4605
 5212TIP3    H237272   2.135   4.069   8.584  0.4481  0.2628  0.4120
 5213TIP3   OH237273   0.811   2.682   1.168 -0.2455 -0.3701  0.1379
 5213TIP3    H137274   0.786   2.694   1.260  0.8395 -2.6750  0.8118
 5213TIP3    H237275   0.897   2.724   1.161  0.0785 -0.9815  0.4222
 5214TIP3   OH237276   6.773   5.620   1.268 -0.2669 -0.0553 -0.2488
 5214TIP3    H137277   6.759   5.610   1.362 -1.0361 -1.7163 -0.5178
 5214TIP3    H237278   6.730   5.703   1.246 -1.0172 -0.1920  0.6780
 5215TIP3   OH237279   5.833   0.355   8.310 -0.1558 -0.5129  0.4680
 5215TIP3    H137280   5.812   0.300   8.234  0.1559  0.2728 -0.2097
 5215TIP3    H237281   5.806   0.303   8.385  2.5734 -2.7710  0.0645
 5216TIP3   OH237282   6.795   6.642   7.540  0.5078  0.2520  0.1688
 5216TIP3    H137283   6.785   6.737   7.541  1.8958  0.4126  0.6494
 5216TIP3    H237284   6.734   6.611   7.607 -1.4664  0.5865 -1.3607
 5217TIP3   OH237285   6.618   1.465   7.926 -0.4765  0.1442 -0.7915
 5217TIP3    H137286   6.593   1.392   7.983  0.3816  0.9543  0.6929
 5217TIP3    H237287   6.555   1.463   7.854 -2.0204 -0.5322  0.5192
 5218TIP3   OH237288   5.667   4.714   1.841  0.0927 -0.1960  0.0693
 5218TIP3    H137289   5.622   4.675   1.916  1.0155 -0.7790  0.3236
 5218TIP3    H237290   5.759   4.692   1.853 -0.0079 -2.8110 -2.7029
 5219TIP3   OH237291   6.155   0.424   0.258  0.0206 -0.1262  0.1251
 5219TIP3    H137292   6.227   0.397   0.201 -0.4334  2.4486 -1.8684
 5219TIP3    H237293   6.076   0.411   0.206 -0.5940  0.4581  0.8894
 5220TIP3   OH237294   6.051   1.642   1.027 -0.1763 -0.0090  0.1569
 5220TIP3    H137295   6.063   1.662   1.120  0.7556 -0.0474  0.0613
 5220TIP3    H237296   5.959   1.618   1.019 -0.0589 -0.9144  1.2396
 5221TIP3   OH237297   5.474   0.852   7.180  0.1079 -0.5203  0.8055
 5221TIP3    H137298   5.514   0.779   7.227  2.7894 -2.1560 -3.3850
 5221TIP3    H237299   5.410   0.810   7.122 -0.9055  0.9446  0.8201
 5222TIP3   OH237300   3.014   0.734   8.051  0.3286 -0.6579 -0.4173
 5222TIP3    H137301   2.978   0.650   8.025  1.1515 -1.7406  1.7411
 5222TIP3    H237302   3.106   0.730   8.024  0.8334 -1.2350  1.2630
 5223TIP3   OH237303   1.675   4.122   2.505  0.1597 -0.1252 -0.5671
 5223TIP3    H137304   1.739   4.066   2.461 -2.2801 -1.7582 -2.3019
 5223TIP3    H237305   1.692   4.209   2.470  1.2104 -0.5669 -1.2292
 5224TIP3   OH237306   0.373   1.978   7.827 -0.3503  0.0734  0.3455
 5224TIP3    H137307   0.350   1.994   7.735 -0.7651  0.6175  0.5347
 5224TIP3    H237308   0.435   2.048   7.848 -2.1316  1.4923  1.1677
 5225TIP3   OH237309   1.104   5.578   6.987 -0.3993  0.5109 -0.0679
 5225TIP3    H137310   1.076   5.638   6.917 -2.0784 -1.1298 -0.8876
 5225TIP3    H237311   1.083   5.491   6.953 -0.0757 -0.4178  1.9945
 5226TIP3   OH237312   0.089   6.162   0.239 -0.7709 -0.0312 -0.6127
 5226TIP3    H137313   0.010   6.114   0.265 -2.0033  2.6562  1.1244
 5226TIP3    H237314   0.058   6.224   0.173 -0.1313  0.9932  0.0210
 5227TIP3   OH237315   0.257   5.369   7.902  0.4911  0.0377  0.9383
 5227TIP3    H137316   0.299   5.401   7.822 -0.5872  0.6762  0.6165
 5227TIP3    H237317   0.319   5.389   7.972  0.1353  2.3332  0.6810
 5228TIP3   OH237318   0.219   6.588   0.673 -0.0025 -0.7355 -0.4836
 5228TIP3    H137319   0.289   6.534   0.710 -0.6175 -0.3873  1.2782
 5228TIP3    H237320   0.150   6.586   0.738 -1.3971 -0.5448 -1.9081
 5229TIP3   OH237321   3.261   5.529   1.755 -0.0465 -0.5903 -0.6089
 5229TIP3    H137322   3.340   5.544   1.806  0.5824 -1.5258 -1.2846
 5229TIP3    H237323   3.225   5.447   1.789 -1.3682  0.3913  0.4621
 5230TIP3   OH237324   4.988   6.852   1.326 -0.0989 -0.2708 -0.7642
 5230TIP3    H137325   4.934   6.832   1.249  0.4491 -0.8013 -1.0177
 5230TIP3    H237326   4.947   6.804   1.398 -1.0856  0.8618 -0.5368
 5231TIP3   OH237327   3.225   6.859   6.692 -0.2423  0.0894 -0.2676
 5231TIP3    H137328   3.211   6.765   6.680  1.0974 -0.2730  0.7217
 5231TIP3    H237329   3.142   6.899   6.668 -1.0346 -1.3990 -0.1340
 5232TIP3   OH237330   3.466   4.972   0.956  0.2835  0.3680  0.3416
 5232TIP3    H137331   3.545   5.026   0.961  1.2612 -0.9184 -0.5161
 5232TIP3    H237332   3.467   4.936   0.867 -0.4902 -0.8308  0.7920
 5233TIP3   OH237333   2.840   2.939   8.395  0.7654  0.6332 -0.0879
 5233TIP3    H137334   2.755   2.949   8.438  0.4361 -1.3908 -0.1548
 5233TIP3    H237335   2.821   2.889   8.315  1.8771  1.0929 -0.6603
 5234TIP3   OH237336   4.126   2.086   1.726  0.5602 -0.0582  0.3474
 5234TIP3    H137337   4.221   2.097   1.737  0.9008 -1.5819 -0.7105
 5234TIP3    H237338   4.114   2.082   1.631 -0.8272  1.8429  0.3844
 5235TIP3   OH237339   3.136   5.530   8.107  0.3038 -0.0711  0.1538
 5235TIP3    H137340   3.070   5.512   8.174  1.4115 -1.2260  0.9728
 5235TIP3    H237341   3.217   5.542   8.156  0.9982 -0.1587 -0.9378
 5236TIP3   OH237342   6.027   2.781   7.360 -0.1396  0.1178  0.1301
 5236TIP3    H137343   5.986   2.744   7.439 -0.1239 -0.1614  0.0098
 5236TIP3    H237344   6.042   2.873   7.381 -0.5005  0.1355  0.3076
 5237TIP3   OH237345   5.137   0.348   7.177  0.0137 -0.2365  0.2189
 5237TIP3    H137346   5.224   0.386   7.170 -0.0232 -0.3442 -1.0528
 5237TIP3    H237347   5.133   0.284   7.106 -0.8384 -0.7665  0.7275
 5238TIP3   OH237348   2.062   2.298   0.241  0.2015 -0.0783  0.5895
 5238TIP3    H137349   2.065   2.211   0.281 -0.4471 -0.3652  0.0255
 5238TIP3    H237350   1.986   2.295   0.183  0.3862  0.7512  0.2983
 5239TIP3   OH237351   3.471   5.848   1.013 -0.1220 -0.4360 -0.2007
 5239TIP3    H137352   3.376   5.858   1.016 -0.1401 -0.3531 -0.9431
 5239TIP3    H237353   3.490   5.774   1.072 -0.6639 -0.6107 -0.2462
 5240TIP3   OH237354   2.601   6.605   6.373 -0.2858  0.4961 -0.3528
 5240TIP3    H137355   2.589   6.528   6.429 -2.4940  1.5289  0.6863
 5240TIP3    H237356   2.657   6.663   6.425 -1.1136  0.8366  0.1701
 5241TIP3   OH237357   6.420   2.780   1.198 -0.1205 -0.2557 -0.1130
 5241TIP3    H137358   6.437   2.829   1.117  0.5693  1.2181  0.8626
 5241TIP3    H237359   6.494   2.720   1.206 -0.2838 -0.5319 -0.6594
 5242TIP3   OH237360   6.242   5.933   0.651 -0.1995 -0.1296  0.5425
 5242TIP3    H137361   6.325   5.886   0.643 -0.5413 -0.7126  0.3621
 5242TIP3    H237362   6.260   6.001   0.716  0.4802 -0.1092  0.3442
 5243TIP3   OH237363   0.857   4.040   1.214  0.1803 -0.0547  0.2704
 5243TIP3    H137364   0.917   3.972   1.244 -0.3232 -0.7804 -0.3526
 5243TIP3    H237365   0.858   4.105   1.284 -0.2821 -1.2852  1.4561
 5244TIP3   OH237366   1.869   5.782   0.183  0.0825 -0.3645 -0.0195
 5244TIP3    H137367   1.858   5.812   0.274  0.2723 -0.7096  0.1178
 5244TIP3    H237368   1.832   5.694   0.183 -2.4816  0.6227 -0.9176
 5245TIP3   OH237369   3.944   1.607   8.673  0.3303  0.7090  0.4642
 5245TIP3    H137370   3.871   1.648   8.626 -0.0489  0.6500  1.0003
 5245TIP3    H237371   4.003   1.577   8.604 -0.4453  0.2121  0.0174
 5246TIP3   OH237372   6.207   2.716   8.477 -0.0515  0.5789 -0.3504
 5246TIP3    H137373   6.127   2.767   8.485 -0.0742  0.7529 -1.5241
 5246TIP3    H237374   6.178   2.627   8.460 -0.0664  1.0434 -3.2689
 5247TIP3   OH237375   4.435   1.220   1.162  0.4035  0.0783  0.3778
 5247TIP3    H137376   4.491   1.228   1.239  1.7275 -0.0789 -0.5309
 5247TIP3    H237377   4.456   1.134   1.125 -0.8939 -0.2482  0.3393
 5248TIP3   OH237378   5.748   1.264   8.626 -0.6590  0.2619 -0.0898
 5248TIP3    H137379   5.823   1.252   8.684 -1.0112 -1.6208  0.0390
 5248TIP3    H237380   5.693   1.329   8.671  0.8922  1.7446 -0.2370
 5249TIP3   OH237381   1.884   2.846   8.068  0.4960 -0.1565  0.8176
 5249TIP3    H137382   1.827   2.863   7.992  0.1686  0.7545  1.2581
 5249TIP3    H237383   1.853   2.762   8.102  0.3549 -0.3582  0.2061
 5250TIP3   OH237384   6.769   0.371   1.640 -0.1234  0.1500  0.5877
 5250TIP3    H137385   6.793   0.428   1.714 -0.0208 -0.4656  1.0400
 5250TIP3    H237386   6.697   0.417   1.597  1.3360  1.6689 -0.3507
 5251TIP3   OH237387   6.120   0.982   1.445 -0.4115 -0.4263 -0.5667
 5251TIP3    H137388   6.079   1.068   1.453 -0.7558 -0.4641 -1.7175
 5251TIP3    H237389   6.183   0.992   1.374  2.2081 -0.1707  1.6380
 5252TIP3   OH237390   0.296   2.376   7.561 -0.1135 -0.4068 -0.4715
 5252TIP3    H137391   0.356   2.445   7.590  2.0490 -1.4560 -2.1571
 5252TIP3    H237392   0.296   2.382   7.466 -0.6675 -2.0504 -0.6177
 5253TIP3   OH237393   2.643   6.840   1.451  0.1363  0.1342  0.1172
 5253TIP3    H137394   2.572   6.871   1.508  2.2215  1.4940  2.1338
 5253TIP3    H237395   2.651   6.747   1.472  0.4587  0.4792  1.6610
 5254TIP3   OH237396   5.027   2.572   0.136  0.0760  0.0123 -0.3738
 5254TIP3    H137397   5.037   2.482   0.105 -0.9075  0.1814 -1.2097
 5254TIP3    H237398   5.009   2.563   0.230  1.2516 -0.5819 -0.1785
 5255TIP3   OH237399   5.051   1.136   7.642 -0.4383  0.5025 -0.8866
 5255TIP3    H137400   4.986   1.094   7.585 -1.2274  0.5894 -0.0858
 5255TIP3    H237401   5.053   1.081   7.720 -1.6060  1.9780  0.2589
 5256TIP3   OH237402   2.999   0.944   6.491  0.4657 -0.2916  0.1789
 5256TIP3    H137403   3.045   1.022   6.461  0.3668  0.5312  2.0409
 5256TIP3    H237404   2.909   0.957   6.461  0.7201 -0.3319 -0.6349
 5257TIP3   OH237405   2.199   0.516   0.231  0.0544 -0.0296  0.4108
 5257TIP3    H137406   2.282   0.490   0.191 -0.4731 -0.2072 -0.6033
 5257TIP3    H237407   2.175   0.597   0.186 -0.4951 -0.1673  0.4500
 5258TIP3   OH237408   6.490   4.032   7.910 -0.0110  0.3413 -0.0173
 5258TIP3    H137409   6.569   4.032   7.964 -0.4112 -1.7893  0.6656
 5258TIP3    H237410   6.418   4.034   7.973 -0.5004 -2.9053 -0.2948
 5259TIP3   OH237411   0.600   3.583   8.633 -0.2112  0.1961 -0.6522
 5259TIP3    H137412   0.694   3.580   8.655  0.4252  0.7853 -2.9558
 5259TIP3    H237413   0.562   3.644   8.696  0.6002 -1.1907  1.3057
 5260TIP3   OH237414   5.859   0.815   0.100 -0.4274  0.1304  0.4100
 5260TIP3    H137415   5.859   0.830   0.194 -0.6824  0.7341  0.3186
 5260TIP3    H237416   5.827   0.897   0.062 -0.8031 -0.2706 -0.1712
 5261TIP3   OH237417   4.708   3.552   8.450 -0.0260  0.1717 -0.1893
 5261TIP3    H137418   4.758   3.512   8.521 -0.3673  0.6417  0.3278
 5261TIP3    H237419   4.619   3.562   8.485 -0.1297  0.6767 -0.5738
 5262TIP3   OH237420   0.094   3.216   0.503 -0.6435  0.5758  0.1264
 5262TIP3    H137421   0.139   3.266   0.571 -1.6265  0.9231  0.5548
 5262TIP3    H237422   0.154   3.215   0.429 -0.7050  2.6754 -0.0079
 5263TIP3   OH237423   6.078   1.389   7.435 -0.3515 -0.3062 -0.1475
 5263TIP3    H137424   6.147   1.453   7.451  0.6572 -0.7147 -2.4992
 5263TIP3    H237425   6.061   1.350   7.521 -0.0836  2.1509  1.1003
 5264TIP3   OH237426   3.399   2.340   2.440  0.2712  0.0948 -0.0267
 5264TIP3    H137427   3.395   2.319   2.533 -1.3784  1.3710  0.2344
 5264TIP3    H237428   3.487   2.377   2.427  1.3367 -2.0828  0.5144
 5265TIP3   OH237429   5.692   2.989   7.269 -0.1217 -0.3611 -0.5863
 5265TIP3    H137430   5.673   2.901   7.235 -2.2361  0.2252 -1.0614
 5265TIP3    H237431   5.627   3.045   7.228 -0.0643  1.1122  1.2071
 5266TIP3   OH237432   4.723   1.159   0.204 -0.0075 -0.2623 -0.5209
 5266TIP3    H137433   4.644   1.151   0.152 -0.4108 -0.6609  0.1309
 5266TIP3    H237434   4.700   1.221   0.273 -0.1697 -1.3041  0.3943
 5267TIP3   OH237435   5.518   1.628   7.516 -1.0844  0.0527  0.0165
 5267TIP3    H137436   5.535   1.559   7.580  0.1765 -0.7798 -1.1723
 5267TIP3    H237437   5.509   1.708   7.568 -0.1956 -0.6161  1.2278
 5268TIP3   OH237438   1.286   1.296   8.327 -0.0853  0.1025  0.1855
 5268TIP3    H137439   1.363   1.312   8.272 -0.1353 -1.2856 -0.3408
 5268TIP3    H237440   1.223   1.255   8.268 -0.0364 -1.6880  1.3023
 5269TIP3   OH237441   4.629   2.507   7.659 -0.2706  0.1098 -0.3165
 5269TIP3    H137442   4.679   2.425   7.664 -1.1285 -0.3720  0.7195
 5269TIP3    H237443   4.547   2.488   7.704  0.3772  2.1483  1.9437
 5270TIP3   OH237444   5.746   6.025   0.196  0.1563 -0.5756 -0.2535
 5270TIP3    H137445   5.748   5.948   0.252 -1.7050 -1.0756 -0.8115
 5270TIP3    H237446   5.700   5.996   0.117 -1.9872  1.4508  0.1401
 5271TIP3   OH237447   3.562   5.836   7.932 -0.2641  0.4583  0.3413
 5271TIP3    H137448   3.611   5.824   8.013 -0.2159 -0.5272  0.1794
 5271TIP3    H237449   3.572   5.753   7.885 -0.9825  0.7173 -0.2968
 5272TIP3   OH237450   3.160   5.127   1.640  0.4380 -0.0587 -0.0522
 5272TIP3    H137451   3.086   5.065   1.643 -1.5305  2.1627  1.3912
 5272TIP3    H237452   3.224   5.090   1.701 -0.2197 -1.2063 -0.0267
 5273TIP3   OH237453   6.247   0.694   1.346 -0.3642 -0.0762  0.0239
 5273TIP3    H137454   6.165   0.685   1.298 -0.0406 -0.1345 -0.5297
 5273TIP3    H237455   6.245   0.625   1.411 -2.4143  2.0989  2.5068
 5274TIP3   OH237456   1.189   4.991   7.451 -0.2344 -0.4254 -0.4637
 5274TIP3    H137457   1.110   4.938   7.452 -0.4983 -0.0309 -0.6149
 5274TIP3    H237458   1.169   5.066   7.395 -0.3617  0.5857  0.8764
 5275TIP3   OH237459   1.048   2.493   7.262  0.1255 -0.5261 -0.1955
 5275TIP3    H137460   1.112   2.482   7.192 -1.5389 -2.3745 -1.5530
 5275TIP3    H237461   1.100   2.499   7.342  1.9850 -1.5713 -1.2578
 5276TIP3   OH237462   0.595   0.079   6.455 -0.2511 -0.3834  0.4788
 5276TIP3    H137463   0.586  -0.012   6.426  1.6668 -0.8042  1.0429
 5276TIP3    H237464   0.681   0.106   6.423 -0.2304  0.7835  1.4432
 5277TIP3   OH237465   4.518   2.646   0.066  0.1084  0.1744 -0.2066
 5277TIP3    H137466   4.484   2.735   0.072  0.4783  0.2151  1.9560
 5277TIP3    H237467   4.605   2.657   0.026 -0.4441  0.5888 -1.3338
 5278TIP3   OH237468   0.602   6.469   7.463  0.3569 -0.1382  0.2068
 5278TIP3    H137469   0.683   6.431   7.430 -1.0481 -1.2998 -2.2197
 5278TIP3    H237470   0.564   6.401   7.519 -0.3103 -0.8165 -1.0348
 5279TIP3   OH237471   0.470   6.293   0.478 -0.6672 -0.0869  0.7746
 5279TIP3    H137472   0.471   6.330   0.566  0.4697  2.7558 -0.2937
 5279TIP3    H237473   0.382   6.313   0.445  0.1189  2.6107 -0.0153
 5280TIP3   OH237474   4.302   4.377   0.718  0.1003  0.3211  0.0729
 5280TIP3    H137475   4.227   4.320   0.730  0.8652 -0.3714  2.0951
 5280TIP3    H237476   4.375   4.318   0.699  0.1601  0.9938 -2.0638
 5281TIP3   OH237477   6.081   0.006   1.377 -0.2197 -0.3050  0.6882
 5281TIP3    H137478   6.023  -0.019   1.449  0.8921  1.6763  2.3507
 5281TIP3    H237479   6.026   0.060   1.320 -0.5996 -0.2787  1.0721
 5282TIP3   OH237480   4.275   5.106   1.298  0.1109 -0.5456  0.4416
 5282TIP3    H137481   4.368   5.102   1.319  0.0482  0.4646  0.9739
 5282TIP3    H237482   4.237   5.160   1.368 -0.6466  0.1718 -0.4998
 5283TIP3   OH237483   1.478   0.970   2.361  0.1717 -0.1706  0.3126
 5283TIP3    H137484   1.485   1.044   2.421  0.0703  0.9873 -1.0600
 5283TIP3    H237485   1.565   0.964   2.321 -0.2894  0.2899 -0.7944
 5284TIP3   OH237486   4.515   0.457   2.266  0.1270 -0.3108 -0.1127
 5284TIP3    H137487   4.456   0.390   2.302 -0.0213  0.0905  0.4016
 5284TIP3    H237488   4.492   0.461   2.173  0.9961 -1.8651 -0.4334
 5285TIP3   OH237489   6.081   6.719   8.549 -0.4887  0.3840 -0.0906
 5285TIP3    H137490   5.994   6.757   8.561 -0.6350 -0.0692  0.3778
 5285TIP3    H237491   6.113   6.704   8.638 -0.2003 -0.0437 -0.2604
 5286TIP3   OH237492   1.544   1.426   1.940  0.2176 -0.3326  0.1106
 5286TIP3    H137493   1.602   1.425   1.864 -1.2306 -0.6034 -1.0238
 5286TIP3    H237494   1.529   1.519   1.958  0.6886 -0.2672  0.1786
 5287TIP3   OH237495   6.117   5.961   1.124 -0.1500 -0.9453 -0.2047
 5287TIP3    H137496   6.090   5.959   1.216  1.0450 -0.1773  0.1826
 5287TIP3    H237497   6.095   6.049   1.094 -1.0217 -1.3571 -0.8328
 5288TIP3   OH237498   2.601   6.302   1.196 -0.0154  0.0495 -0.3383
 5288TIP3    H137499   2.521   6.283   1.245 -0.0869  0.9239 -0.1069
 5288TIP3    H237500   2.616   6.224   1.143 -1.5561  0.2442 -1.1087
 5289TIP3   OH237501   4.872   4.591   1.283 -0.1011 -0.1872  0.4869
 5289TIP3    H137502   4.912   4.600   1.369 -1.9589  0.3385  1.3672
 5289TIP3    H237503   4.814   4.515   1.292 -1.7827  1.0184  0.3843
 5290TIP3   OH237504   4.763   3.550   0.625  0.8877 -0.4473  0.4448
 5290TIP3    H137505   4.776   3.541   0.719 -0.5163 -1.1886  0.5929
 5290TIP3    H237506   4.766   3.645   0.609  0.1140 -0.2495  1.4036
 5291TIP3   OH237507   5.415   1.381   0.255  0.1974  0.2407  0.0103
 5291TIP3    H137508   5.357   1.418   0.188 -0.4786  1.6134  1.2923
 5291TIP3    H237509   5.395   1.288   0.254 -3.2857  0.7974  1.4434
 5292TIP3   OH237510   3.143   5.315   1.865  0.2888 -0.2953 -1.0942
 5292TIP3    H137511   3.050   5.307   1.887  0.4345 -1.2569 -0.8223
 5292TIP3    H237512   3.151   5.271   1.780  0.6097 -0.7317 -0.8360
 5293TIP3   OH237513   4.072   1.809   0.325 -0.0906  0.0435 -0.0631
 5293TIP3    H137514   4.132   1.871   0.284  1.0823 -0.1216  1.3574
 5293TIP3    H237515   4.065   1.737   0.262  1.3005  0.0123 -0.2035
 5294TIP3   OH237516   3.421   5.359   0.894  0.0354 -0.0566 -1.0626
 5294TIP3    H137517   3.458   5.299   0.830 -0.6727 -1.0607 -0.5606
 5294TIP3    H237518   3.476   5.437   0.889  1.9476 -1.3033 -0.6471
 5295TIP3   OH237519   6.175   5.620   0.559  0.0069 -0.9255  0.0639
 5295TIP3    H137520   6.261   5.652   0.587  0.0315 -0.1904 -0.8059
 5295TIP3    H237521   6.116   5.644   0.630 -0.1087  1.7268 -0.8445
 5296TIP3   OH237522   4.224   4.611   0.892  0.1239 -0.2979 -0.3143
 5296TIP3    H137523   4.134   4.582   0.901 -0.2661  0.2024 -2.1648
 5296TIP3    H237524   4.252   4.631   0.982 -1.9424  0.5605  0.2053
 5297TIP3   OH237525   1.255   5.316   0.700  0.0947  0.1557 -0.2121
 5297TIP3    H137526   1.302   5.314   0.784 -0.9267  0.2977  0.3774
 5297TIP3    H237527   1.172   5.272   0.718  0.2933 -0.7852 -1.4403
 5298TIP3   OH237528   0.045   6.069   7.572  0.3522 -0.5952  0.1595
 5298TIP3    H137529   0.052   5.980   7.607  0.9449 -0.2372  0.9714
 5298TIP3    H237530  -0.040   6.070   7.527 -0.5870 -0.9687  1.8612
 5299TIP3   OH237531   3.436   1.812   7.788 -0.1301  0.1905  0.4075
 5299TIP3    H137532   3.517   1.763   7.802  0.4462  1.0427  0.1219
 5299TIP3    H237533   3.376   1.748   7.748  0.7043 -0.2050 -0.2448
 5300TIP3   OH237534   4.720   1.812   6.576 -0.5514  0.1285  0.0244
 5300TIP3    H137535   4.746   1.791   6.486  1.3218 -0.6393  0.6787
 5300TIP3    H237536   4.729   1.907   6.582  1.0439  0.0319 -0.1765
 5301TIP3   OH237537   4.199   3.943   1.579  0.6426  0.0692  0.2735
 5301TIP3    H137538   4.164   3.936   1.668 -3.3293  0.3738 -1.0504
 5301TIP3    H237539   4.154   3.875   1.530  2.3087  0.2744 -1.6819
 5302TIP3   OH237540   4.066   4.780   1.623  0.2319  0.1967  0.2458
 5302TIP3    H137541   4.087   4.788   1.716 -0.8319  1.3251  0.4108
 5302TIP3    H237542   4.010   4.855   1.605  0.6776  0.1662 -1.3879
 5303TIP3   OH237543   6.558   4.013   1.452 -0.1947 -0.3531 -0.2097
 5303TIP3    H137544   6.509   3.939   1.486 -0.9223 -0.0489 -0.5839
 5303TIP3    H237545   6.513   4.038   1.371 -0.8051  1.3459  0.5979
 5304TIP3   OH237546   1.184   2.017   8.232  0.1884 -0.2363 -0.1258
 5304TIP3    H137547   1.233   2.097   8.251  0.7288 -0.5400 -0.2072
 5304TIP3    H237548   1.236   1.972   8.166 -1.0840  0.2460 -1.4997
 5305TIP3   OH237549   4.026   6.832   8.334 -0.2393 -0.2889 -0.4821
 5305TIP3    H137550   4.115   6.861   8.313 -0.1883 -0.7652 -0.9246
 5305TIP3    H237551   3.972   6.909   8.315  0.0060 -0.1803 -0.7661
 5306TIP3   OH237552   0.546   3.342   0.743 -0.0709  0.0578 -0.1672
 5306TIP3    H137553   0.477   3.405   0.761 -0.6361 -0.6319  0.1154
 5306TIP3    H237554   0.627   3.393   0.746 -0.4688  0.6554  0.6723
 5307TIP3   OH237555   4.488   2.580   0.701  0.0377 -0.2803 -0.5198
 5307TIP3    H137556   4.482   2.550   0.792 -0.3028 -1.0501 -0.7854
 5307TIP3    H237557   4.462   2.504   0.649  0.7278 -0.0105 -1.2849
 5308TIP3   OH237558   4.252   5.287   8.382 -0.1951  0.4283  0.1605
 5308TIP3    H137559   4.333   5.236   8.387 -1.3058 -1.4140  0.4048
 5308TIP3    H237560   4.275   5.372   8.419  1.0675 -0.7998  2.4305
 5309TIP3   OH237561   2.247   1.292   8.050  0.5656 -0.4301 -0.2978
 5309TIP3    H137562   2.334   1.332   8.047  1.1574 -1.5283  1.2038
 5309TIP3    H237563   2.203   1.324   7.971  1.9931  0.8846 -0.5988
 5310TIP3   OH237564   3.072   2.858   7.633  0.7172 -0.0534  0.1943
 5310TIP3    H137565   3.076   2.906   7.550 -1.0051  0.8678  0.5998
 5310TIP3    H237566   3.090   2.767   7.609  3.2871  0.6066 -0.7075
 5311TIP3   OH237567   1.814   1.112   0.302  0.2631  0.1472  0.1013
 5311TIP3    H137568   1.821   1.059   0.223 -0.4648  1.2636 -0.7509
 5311TIP3    H237569   1.794   1.200   0.270  2.8732  1.3308  1.3438
 5312TIP3   OH237570   3.979   1.519   7.221 -0.4487 -0.3208  0.3009
 5312TIP3    H137571   3.993   1.495   7.129  0.9896 -1.6700  0.8356
 5312TIP3    H237572   3.976   1.436   7.268  0.5325  0.3991  1.6940
 5313TIP3   OH237573   1.860   4.012   7.510  0.3572 -0.5054  0.1876
 5313TIP3    H137574   1.956   4.012   7.512  0.3696 -1.6524 -0.0499
 5313TIP3    H237575   1.837   3.955   7.437 -0.5132  2.2585 -1.8380
 5314TIP3   OH237576   6.450   4.417   8.420  0.3658 -0.2701 -0.4023
 5314TIP3    H137577   6.392   4.482   8.380 -1.5116 -0.9353  1.1216
 5314TIP3    H237578   6.489   4.462   8.495  1.6885  0.0852 -1.2566
 5315TIP3   OH237579   1.227   6.378   8.394 -0.5462  0.3435  0.3171
 5315TIP3    H137580   1.144   6.346   8.428 -0.9364 -1.6438 -2.2203
 5315TIP3    H237581   1.289   6.362   8.465 -1.8504 -0.6146  1.2932
 5316TIP3   OH237582   1.676   1.027   7.094 -0.8422  0.5218 -0.3108
 5316TIP3    H137583   1.608   1.052   7.031 -1.9650  0.1231  0.7045
 5316TIP3    H237584   1.685   0.932   7.083 -1.5508  0.3392  0.5943
 5317TIP3   OH237585   3.880   4.620   0.375  1.1895  0.2166  0.1627
 5317TIP3    H137586   3.922   4.701   0.346  1.2523  0.0668 -0.1647
 5317TIP3    H237587   3.919   4.552   0.321  0.9125  0.0054  0.2265
 5318TIP3   OH237588   0.348   4.164   0.871  0.0493 -0.2618 -0.3664
 5318TIP3    H137589   0.360   4.229   0.802 -0.7445 -0.6343 -0.8872
 5318TIP3    H237590   0.377   4.082   0.831  0.9739 -0.2466  0.2585
 5319TIP3   OH237591   5.451   6.648   1.670 -0.4904  0.4085  0.0459
 5319TIP3    H137592   5.523   6.705   1.644  0.4126 -0.5402  0.4126
 5319TIP3    H237593   5.454   6.647   1.765 -0.9223  0.2700  0.0603
 5320TIP3   OH237594   3.143   6.077   0.144 -0.5902  0.1817  0.0359
 5320TIP3    H137595   3.206   6.089   0.215 -0.4497 -1.7435  0.3061
 5320TIP3    H237596   3.197   6.071   0.065 -0.4816 -0.6825  0.1679
 5321TIP3   OH237597   2.356   0.732   7.709 -0.3065  0.3139  0.0685
 5321TIP3    H137598   2.396   0.811   7.672  0.8422  0.7014  1.9712
 5321TIP3    H237599   2.431   0.680   7.738 -1.0998  0.2636  2.2007
 5322TIP3   OH237600   0.206   3.239   0.938 -0.3035 -0.2855 -0.0938
 5322TIP3    H137601   0.261   3.173   0.980  0.1665 -0.6944 -1.3093
 5322TIP3    H237602   0.193   3.305   1.006 -0.8947 -1.6693  1.1885
 5323TIP3   OH237603   3.998   6.158   6.900  0.3273 -0.2445 -0.0110
 5323TIP3    H137604   4.084   6.197   6.882 -0.4601  1.3032 -0.5946
 5323TIP3    H237605   3.983   6.099   6.826  0.9351 -0.6454  0.1740
 5324TIP3   OH237606   2.053   4.287   0.430  0.2036 -0.2606  0.2369
 5324TIP3    H137607   1.993   4.227   0.387 -0.6631 -1.0517  2.3847
 5324TIP3    H237608   2.009   4.372   0.425  0.8051 -0.0250 -1.6420
 5325TIP3   OH237609   5.195   0.669   7.397 -0.1883 -0.4055  0.1457
 5325TIP3    H137610   5.159   0.702   7.315 -0.4058 -2.1896 -0.5216
 5325TIP3    H237611   5.281   0.709   7.404 -0.5830  0.5776 -0.4070
 5326TIP3   OH237612   5.631   4.090   2.029 -0.2837 -0.5589  0.1046
 5326TIP3    H137613   5.577   4.085   2.108 -2.0188  0.6819 -0.9196
 5326TIP3    H237614   5.587   4.033   1.966  1.2519 -1.7710  0.0691
 5327TIP3   OH237615   4.979   0.859   6.610 -0.3016  0.3437 -0.3670
 5327TIP3    H137616   4.974   0.818   6.524 -0.1337  0.9080 -0.6439
 5327TIP3    H237617   5.071   0.884   6.619 -0.4199  0.7189 -0.2179
 5328TIP3   OH237618   4.341   0.850   0.170  0.0743 -0.3090  0.0151
 5328TIP3    H137619   4.316   0.941   0.185 -1.7574 -1.0568  2.0808
 5328TIP3    H237620   4.322   0.835   0.078 -0.7854  1.0611 -0.0572
 5329TIP3   OH237621   5.642   0.305   0.854 -0.0962 -0.4521  0.0730
 5329TIP3    H137622   5.715   0.316   0.792 -0.4837 -0.9361 -0.4845
 5329TIP3    H237623   5.654   0.375   0.918  0.0252  0.3865 -0.8418
 5330TIP3   OH237624   2.590   3.324   1.313  0.4073 -0.0956  0.4356
 5330TIP3    H137625   2.616   3.416   1.309  1.0975 -0.3311 -1.2624
 5330TIP3    H237626   2.573   3.308   1.406  1.4348  1.4287  0.9226
 5331TIP3   OH237627   5.202   6.680   7.386 -0.1394  0.0711  0.1247
 5331TIP3    H137628   5.272   6.629   7.427 -0.0365 -0.2580 -0.4491
 5331TIP3    H237629   5.167   6.623   7.318  0.2409  0.9043 -0.7959
 5332TIP3   OH237630   4.657   4.200   8.506 -0.0051  0.1337  0.6482
 5332TIP3    H137631   4.573   4.184   8.463  0.0101  1.5691  0.0517
 5332TIP3    H237632   4.675   4.118   8.553 -2.3510  0.2080  1.8424
 5333TIP3   OH237633   4.596   5.741   7.055  0.2735 -0.7989  0.0913
 5333TIP3    H137634   4.680   5.746   7.010  0.4088  0.3796  0.4216
 5333TIP3    H237635   4.536   5.789   6.998  0.1996 -0.2426  0.6278
 5334TIP3   OH237636   0.955   4.698   2.121  0.0693 -0.0012  0.0692
 5334TIP3    H137637   1.028   4.700   2.183 -0.2330  2.2465  0.4638
 5334TIP3    H237638   0.877   4.694   2.177 -0.2014  1.9229 -0.1077
 5335TIP3   OH237639   5.050   2.689   6.113  0.1378  0.1396 -0.6247
 5335TIP3    H137640   5.133   2.671   6.157 -1.3207 -1.5817  1.6640
 5335TIP3    H237641   5.043   2.784   6.113  1.3108  0.2615  0.7767
 5336TIP3   OH237642   2.424   6.045   0.234 -0.0138 -0.0179 -0.5288
 5336TIP3    H137643   2.355   6.018   0.173 -1.4063  1.0148  0.5437
 5336TIP3    H237644   2.437   6.138   0.216  0.4015  0.0254 -0.0289
 5337TIP3   OH237645   3.789   0.520   1.138  0.1335  0.2308 -0.1949
 5337TIP3    H137646   3.879   0.528   1.168  0.4793 -1.7660 -0.5724
 5337TIP3    H237647   3.796   0.504   1.044 -0.4246 -2.2372  0.1143
 5338TIP3   OH237648   2.227   2.153   1.490 -0.8127  0.0968 -0.0143
 5338TIP3    H137649   2.251   2.071   1.534 -0.0419  0.9897  1.2682
 5338TIP3    H237650   2.280   2.220   1.532 -1.8023  1.3543 -0.7008
 5339TIP3   OH237651   6.700   4.307   6.263  0.2533  0.2735  0.5553
 5339TIP3    H137652   6.658   4.221   6.269 -1.2326  0.9982  0.9301
 5339TIP3    H237653   6.789   4.287   6.235 -0.9281 -1.2316 -2.8360
 5340TIP3   OH237654   5.275   2.425   0.058  0.4315 -0.2470 -0.2683
 5340TIP3    H137655   5.292   2.352   0.118  2.0334 -0.0719 -0.4545
 5340TIP3    H237656   5.335   2.494   0.087  0.6184  0.1484 -1.5321
 5341TIP3   OH237657   0.965   2.836   6.694 -0.1049 -0.2880 -0.6342
 5341TIP3    H137658   0.895   2.832   6.759  0.3236 -1.5222 -0.2172
 5341TIP3    H237659   1.041   2.868   6.743  0.2022 -1.1620 -0.5122
 5342TIP3   OH237660   3.386   1.218   7.909 -0.5598  0.0265 -0.1896
 5342TIP3    H137661   3.370   1.300   7.863  0.6775  0.1251 -0.4651
 5342TIP3    H237662   3.370   1.238   8.001 -0.5643  0.4879 -0.2907
 5343TIP3   OH237663   0.757   2.726   8.508  0.0057 -0.1835  0.4301
 5343TIP3    H137664   0.678   2.733   8.561 -1.4708 -0.2257 -1.6524
 5343TIP3    H237665   0.733   2.762   8.423  1.8759 -1.2634 -0.6331
 5344TIP3   OH237666   6.587   2.386   0.556 -0.2903  0.3458  0.1435
 5344TIP3    H137667   6.499   2.421   0.541  0.7522  2.3606 -1.9344
 5344TIP3    H237668   6.581   2.342   0.641 -3.0708  1.1115  0.4575
 5345TIP3   OH237669   3.297   0.887   0.383 -0.2938 -0.6209  0.0316
 5345TIP3    H137670   3.354   0.959   0.357  0.2975 -1.2985 -0.6076
 5345TIP3    H237671   3.241   0.924   0.452  0.4023  0.2714  0.1411
 5346TIP3   OH237672   5.483   4.418   7.851 -0.8908 -0.1273  0.1385
 5346TIP3    H137673   5.434   4.337   7.866  0.8349 -1.7107 -2.0509
 5346TIP3    H237674   5.555   4.415   7.914  0.1412 -1.2268 -1.0430
 5347TIP3   OH237675   1.742   0.589   1.459  0.0280 -0.4764 -0.0891
 5347TIP3    H137676   1.797   0.516   1.488  1.3857  1.0366  1.3273
 5347TIP3    H237677   1.712   0.631   1.539 -0.3050  0.8199 -0.8511
 5348TIP3   OH237678   3.663   5.888   8.479 -0.5189 -0.5659  0.0252
 5348TIP3    H137679   3.631   5.913   8.566  0.3016  0.6265  0.0089
 5348TIP3    H237680   3.610   5.812   8.455 -1.6902 -0.0920  0.9958
 5349TIP3   OH237681   2.124   3.127   7.644 -0.2220  0.2708 -0.3318
 5349TIP3    H137682   2.081   3.081   7.716 -2.1571  1.9688 -0.3289
 5349TIP3    H237683   2.188   3.184   7.686  0.2876 -0.4348 -0.1442
 5350TIP3   OH237684   1.828   0.204   7.878  0.8032 -0.0072 -0.6824
 5350TIP3    H137685   1.873   0.120   7.867 -0.3713 -1.3411  3.1231
 5350TIP3    H237686   1.744   0.193   7.834  0.9193 -0.5664 -0.7648
 5351TIP3   OH237687   4.617   2.818   7.181 -0.3432  0.1056 -0.2522
 5351TIP3    H137688   4.594   2.754   7.114 -0.2118  0.5129 -0.6865
 5351TIP3    H237689   4.712   2.815   7.186 -0.3589 -0.0289  0.0258
 5352TIP3   OH237690   2.774   2.249   8.239  0.3132  0.2977  0.4198
 5352TIP3    H137691   2.718   2.263   8.162  0.1260  0.0444  0.5073
 5352TIP3    H237692   2.860   2.280   8.212  0.6723 -1.3757 -0.4988
 5353TIP3   OH237693   3.506   6.327   0.429 -0.2551  0.0151  0.0699
 5353TIP3    H137694   3.505   6.254   0.490 -0.7864 -0.2893 -0.2924
 5353TIP3    H237695   3.594   6.327   0.392  0.3794  0.7725  1.4994
 5354TIP3   OH237696   5.698   4.598   0.019  0.3329 -0.1205  0.2408
 5354TIP3    H137697   5.771   4.582  -0.042 -0.5007 -1.3158 -0.4961
 5354TIP3    H237698   5.686   4.514   0.063 -1.0130 -0.1457 -0.1350
 5355TIP3   OH237699   4.712   1.446   7.955  0.0106  0.1094 -0.3572
 5355TIP3    H137700   4.800   1.411   7.938 -0.0678 -0.4348  0.3445
 5355TIP3    H237701   4.724   1.541   7.956  0.2391  0.1535 -2.2195
 5356TIP3   OH237702   1.566   2.704   7.290 -0.3912 -0.5022  0.5410
 5356TIP3    H137703   1.483   2.705   7.339  0.7759 -0.3574  2.6121
 5356TIP3    H237704   1.622   2.643   7.338  0.4775 -1.2428 -1.3084
 5357TIP3   OH237705   3.058   4.582   2.396 -0.6703 -0.3920 -0.2038
 5357TIP3    H137706   3.105   4.665   2.392 -0.4595 -0.5502 -3.3008
 5357TIP3    H237707   3.014   4.584   2.482 -0.0310  2.5211  0.1796
 5358TIP3   OH237708   2.360   2.145   0.198 -0.0075 -1.0961  0.3241
 5358TIP3    H137709   2.390   2.232   0.226 -0.9146 -0.9999  1.0401
 5358TIP3    H237710   2.393   2.086   0.265 -1.6920 -0.9415  1.3253
 5359TIP3   OH237711   6.834   5.351   1.800  0.1763 -0.3423  0.1923
 5359TIP3    H137712   6.789   5.318   1.722  0.2617  2.3586 -1.1314
 5359TIP3    H237713   6.773   5.336   1.872 -0.8961 -0.8476 -0.7990
 5360TIP3   OH237714   4.632   0.366   1.986 -0.6329 -0.1412  0.7032
 5360TIP3    H137715   4.581   0.303   1.935 -0.3359 -0.1043  0.3491
 5360TIP3    H237716   4.687   0.312   2.043  0.3412 -0.2479 -0.2994
 5361TIP3   OH237717   1.609   4.646   0.322  0.3656  0.2513 -0.5178
 5361TIP3    H137718   1.586   4.553   0.315 -1.2267  0.7360 -2.6414
 5361TIP3    H237719   1.599   4.680   0.234 -0.0928  2.6665  0.3912
 5362TIP3   OH237720   4.749   2.981   8.634  0.8964  0.6369  0.0643
 5362TIP3    H137721   4.665   2.949   8.668  0.8561  0.1477 -0.4884
 5362TIP3    H237722   4.808   2.906   8.639  1.7548  1.3788  1.8820
 5363TIP3   OH237723   5.889   3.745   0.459  0.0114 -0.4761 -0.0834
 5363TIP3    H137724   5.973   3.726   0.418  0.2111 -0.1475  0.1639
 5363TIP3    H237725   5.824   3.731   0.390  0.2989 -0.3926 -0.3736
 5364TIP3   OH237726   2.958   0.932   8.287  0.2091  0.3398  0.2490
 5364TIP3    H137727   2.996   1.016   8.314  1.4949 -0.2285  0.2788
 5364TIP3    H237728   3.008   0.907   8.210 -1.1190  0.2646 -0.6194
 5365TIP3   OH237729   5.631   3.754   8.481 -0.0052  0.0176  0.3969
 5365TIP3    H137730   5.642   3.760   8.386 -1.2402  0.3011  0.2617
 5365TIP3    H237731   5.565   3.819   8.502  1.9353  1.6701  1.7972
 5366TIP3   OH237732   6.576   2.880   2.125 -0.3861  0.4516 -0.5279
 5366TIP3    H137733   6.565   2.966   2.166 -0.3439  0.3793 -0.3620
 5366TIP3    H237734   6.562   2.818   2.196  0.7904  0.3473 -0.3649
 5367TIP3   OH237735   3.350   4.249   1.375  0.8042  0.3541  0.4810
 5367TIP3    H137736   3.324   4.229   1.285  2.7965 -0.8240  0.1295
 5367TIP3    H237737   3.272   4.229   1.427 -0.3889  1.0746 -0.9461
 5368TIP3   OH237738   2.051   3.051   7.050  0.0338  0.0596  1.0316
 5368TIP3    H137739   1.961   3.042   7.080 -0.5035  2.7019  0.3871
 5368TIP3    H237740   2.100   3.079   7.127  0.5036 -1.9256  1.5288
 5369TIP3   OH237741   3.776   3.732   6.755 -0.6138 -0.3175 -0.6153
 5369TIP3    H137742   3.811   3.648   6.725  1.1296  0.0018  0.3663
 5369TIP3    H237743   3.743   3.774   6.676 -1.6889 -1.9763 -1.1061
 5370TIP3   OH237744   3.392   1.042   1.226  0.5141  0.2417 -0.2444
 5370TIP3    H137745   3.432   0.972   1.174  1.6209 -0.3759  1.3507
 5370TIP3    H237746   3.359   0.997   1.304  1.8899  1.5499  1.1520
 5371TIP3   OH237747   4.394   0.880   6.161  0.6027 -0.1102 -0.0712
 5371TIP3    H137748   4.487   0.878   6.137  0.8770 -1.0724  1.0183
 5371TIP3    H237749   4.353   0.815   6.103  0.8899 -0.8472  0.5423
 5372TIP3   OH237750   0.182   2.362   0.088  0.0491 -0.1297 -0.0225
 5372TIP3    H137751   0.257   2.305   0.103  0.3289  0.1369 -0.3942
 5372TIP3    H237752   0.132   2.358   0.170 -0.9590 -2.3808 -0.6712
 5373TIP3   OH237753   0.247   2.190   2.276  0.0027  0.1393  0.5270
 5373TIP3    H137754   0.258   2.280   2.245 -0.3551 -0.1396 -0.4433
 5373TIP3    H237755   0.325   2.174   2.329  1.1131  0.3473 -0.9577
 5374TIP3   OH237756   2.283   1.199   1.306 -0.7773 -0.4162  0.7010
 5374TIP3    H137757   2.318   1.166   1.389 -1.0872  0.8268  1.3618
 5374TIP3    H237758   2.332   1.279   1.289  0.0307 -1.2116 -0.9102
 5375TIP3   OH237759   1.299   5.868   7.810  0.5523 -0.2530 -0.2038
 5375TIP3    H137760   1.244   5.866   7.731 -0.9455  0.5074  0.7792
 5375TIP3    H237761   1.321   5.776   7.825 -1.4252 -0.7560 -0.0055
 5376TIP3   OH237762   0.738   4.495   0.435 -0.0297 -0.1179 -0.1957
 5376TIP3    H137763   0.826   4.461   0.420  0.6405  0.2061  2.4868
 5376TIP3    H237764   0.702   4.438   0.503 -0.8600  1.3407  0.6302
 5377TIP3   OH237765   2.292   1.340   7.748 -0.5076  0.1134  0.2194
 5377TIP3    H137766   2.229   1.396   7.703 -1.6568 -1.5451 -0.3470
 5377TIP3    H237767   2.287   1.257   7.701  1.7461 -0.2360  0.5035
 5378TIP3   OH237768   5.617   3.698   1.128  0.2733  0.5907  0.2719
 5378TIP3    H137769   5.644   3.681   1.218  0.9204  0.4651  0.0533
 5378TIP3    H237770   5.668   3.638   1.075  1.1502  1.8225 -0.3348
 5379TIP3   OH237771   3.773   5.154   8.193  0.1449  0.1439  0.8703
 5379TIP3    H137772   3.765   5.193   8.281 -1.0470  0.8750  0.4602
 5379TIP3    H237773   3.790   5.229   8.136  0.3696 -0.2629  0.3979
 5380TIP3   OH237774   5.134   1.970   1.183  0.1426 -0.1891 -0.5090
 5380TIP3    H137775   5.153   1.879   1.208 -0.2830 -0.6362 -1.7658
 5380TIP3    H237776   5.218   2.015   1.191  0.3592 -0.6835  0.1261
 5381TIP3   OH237777   1.681   3.578   7.167  0.3445 -0.2908  0.3077
 5381TIP3    H137778   1.754   3.519   7.148  0.8628  0.0164  1.2570
 5381TIP3    H237779   1.653   3.554   7.255  1.3188  1.5971  1.2019
 5382TIP3   OH237780   3.302   3.496   1.404 -0.5542 -0.2103  0.0533
 5382TIP3    H137781   3.369   3.550   1.363 -0.2635  1.4011  2.4179
 5382TIP3    H237782   3.342   3.410   1.414  0.4010  0.1778 -0.3591
 5383TIP3   OH237783   5.951   1.965   8.477 -0.8914  1.0230 -0.8350
 5383TIP3    H137784   5.909   2.048   8.454 -2.9224  0.0854 -0.7320
 5383TIP3    H237785   5.982   1.931   8.393  0.2456  1.9813 -0.8425
 5384TIP3   OH237786   2.266   2.617   6.825 -0.0082 -0.5409  0.8107
 5384TIP3    H137787   2.184   2.614   6.777 -0.0853  0.0378  0.8996
 5384TIP3    H237788   2.251   2.681   6.894  1.1157  0.9724 -0.3053
 5385TIP3   OH237789   3.736   4.485   2.124 -0.0743  0.0514 -0.1415
 5385TIP3    H137790   3.793   4.410   2.142 -0.9998 -0.0941  2.6334
 5385TIP3    H237791   3.759   4.549   2.191 -0.5941  1.5327 -1.3226
 5386TIP3   OH237792   0.002   4.095   6.958  0.1217 -0.7389  0.3528
 5386TIP3    H137793   0.052   4.037   6.901 -0.3073 -1.0479  0.2862
 5386TIP3    H237794  -0.023   4.040   7.032  0.4354 -0.4130  0.7028
 5387TIP3   OH237795   1.598   4.011   7.634 -0.3404 -0.3556 -0.6781
 5387TIP3    H137796   1.606   3.916   7.633  0.4173 -0.3448  1.1409
 5387TIP3    H237797   1.684   4.042   7.607 -0.9872 -0.1237 -2.6875
 5388TIP3   OH237798   3.878   2.065   7.201  0.1911  0.5167 -0.1412
 5388TIP3    H137799   3.871   2.047   7.295 -2.6343 -0.7174 -0.4945
 5388TIP3    H237800   3.932   1.994   7.166 -0.8294 -0.4585  0.2212
 5389TIP3   OH237801   3.341   2.596   0.222 -0.3321 -0.0167  0.2852
 5389TIP3    H137802   3.259   2.579   0.268 -0.0387  0.1228  0.8693
 5389TIP3    H237803   3.392   2.649   0.283 -0.8868  2.2877 -1.1361
 5390TIP3   OH237804   4.349   4.884   1.107 -0.1507  0.0036 -0.5264
 5390TIP3    H137805   4.366   4.953   1.172  1.3676  0.0528 -0.9169
 5390TIP3    H237806   4.432   4.878   1.058 -1.3964  0.3364 -2.8132
 5391TIP3   OH237807   2.306   1.624   1.649 -0.3934 -0.2927 -0.3899
 5391TIP3    H137808   2.266   1.623   1.562 -1.4277 -2.9253  0.0117
 5391TIP3    H237809   2.398   1.647   1.633 -1.1245  1.8307 -1.8166
 5392TIP3   OH237810   5.945   5.850   7.087 -1.0260  0.4058 -0.2601
 5392TIP3    H137811   5.859   5.808   7.091 -0.6159 -0.5129 -0.7025
 5392TIP3    H237812   5.985   5.829   7.171 -0.9881  0.2815 -0.3091
 5393TIP3   OH237813   1.967   2.472   7.253 -0.0199 -0.2552  0.2226
 5393TIP3    H137814   1.895   2.507   7.200  0.5733  0.0628 -0.3813
 5393TIP3    H237815   2.019   2.421   7.192  1.6319  1.4905  0.0783
 5394TIP3   OH237816   4.470   3.164   0.360  0.3701  0.4102 -0.0606
 5394TIP3    H137817   4.389   3.215   0.361  0.8068  1.2456 -2.0939
 5394TIP3    H237818   4.539   3.228   0.375  0.7019 -0.3729  2.1956
 5395TIP3   OH237819   6.394   0.583   8.056  0.6727 -0.0516 -0.7480
 5395TIP3    H137820   6.481   0.621   8.047  0.6030  0.1516 -0.5743
 5395TIP3    H237821   6.409   0.489   8.057  0.7952 -0.0579 -1.7608
 5396TIP3   OH237822   3.143   5.620   6.962 -0.3686 -0.5078 -0.1209
 5396TIP3    H137823   3.174   5.706   6.933 -0.7733  0.1977  1.4460
 5396TIP3    H237824   3.049   5.633   6.978 -0.3419 -1.1289  0.5566
 5397TIP3   OH237825   6.133   3.435   0.320 -0.2477 -0.1778 -0.2366
 5397TIP3    H137826   6.073   3.453   0.248  0.4244  1.1576 -0.4901
 5397TIP3    H237827   6.077   3.406   0.392 -1.2309  1.3497 -0.3625
 5398TIP3   OH237828   5.212   6.275   1.900  0.6057  0.0262  0.5812
 5398TIP3    H137829   5.156   6.200   1.919  0.3419  0.3354  1.0208
 5398TIP3    H237830   5.289   6.261   1.955  1.2139 -0.6741 -0.4099
 5399TIP3   OH237831   3.828   0.827   1.232  0.0715  0.7639  0.1081
 5399TIP3    H137832   3.837   0.919   1.257 -1.7887  0.4016  2.4784
 5399TIP3    H237833   3.911   0.787   1.257  0.6762  1.6688 -0.4017
 5400TIP3   OH237834   3.408   5.854   0.582  0.0937  0.5682  0.2339
 5400TIP3    H137835   3.323   5.872   0.542 -0.3786  1.2403  1.5044
 5400TIP3    H237836   3.403   5.762   0.607  1.1936 -0.5378 -3.0672
 5401TIP3   OH237837   3.856   3.376   6.992  0.9104  0.1137  0.5275
 5401TIP3    H137838   3.917   3.429   6.941  1.2165  1.2159  1.9637
 5401TIP3    H237839   3.793   3.343   6.928  2.5440 -0.4293 -0.8871
 5402TIP3   OH237840   2.952   0.637   8.397  0.0789 -0.2224  0.3232
 5402TIP3    H137841   2.962   0.647   8.492  1.3581 -0.5727  0.2449
 5402TIP3    H237842   2.954   0.726   8.363  1.8302 -0.1809  0.4569
 5403TIP3   OH237843   6.769   3.592   7.245  0.4267 -0.2255  0.4982
 5403TIP3    H137844   6.804   3.655   7.307 -0.6326  0.4912  0.3951
 5403TIP3    H237845   6.691   3.635   7.209  1.5149 -0.2008 -2.0241
 5404TIP3   OH237846   1.792   3.973   2.034  0.8402  0.2636  0.0821
 5404TIP3    H137847   1.805   3.878   2.033  2.1235  0.4132  0.2798
 5404TIP3    H237848   1.881   4.009   2.037  0.3444  1.4567  1.0584
 5405TIP3   OH237849   6.854   5.120   1.190 -0.4562 -0.0788 -0.2315
 5405TIP3    H137850   6.825   5.204   1.154  0.8877  1.1584  1.3940
 5405TIP3    H237851   6.934   5.100   1.143 -1.4789 -1.1956 -1.5706
 5406TIP3   OH237852   1.965   0.241   1.724 -0.1875 -0.3204  0.1715
 5406TIP3    H137853   2.014   0.209   1.649  0.4028 -2.1333  1.2432
 5406TIP3    H237854   1.873   0.227   1.700 -0.0368 -0.1679 -0.5021
 5407TIP3   OH237855   2.084   3.417   7.385  0.0648 -0.5193  0.2422
 5407TIP3    H137856   2.132   3.499   7.391 -2.3035  0.9840 -0.1552
 5407TIP3    H237857   1.995   3.438   7.415 -1.3969 -2.2075 -2.4441
 5408TIP3   OH237858   5.785   3.241   1.614  0.6348  0.7682  0.3869
 5408TIP3    H137859   5.828   3.291   1.683 -0.7594  0.8184  1.2515
 5408TIP3    H237860   5.809   3.287   1.533  2.2032  0.7629  0.8203
 5409TIP3   OH237861   6.694   6.108   0.786  0.2981  0.5235  0.5787
 5409TIP3    H137862   6.626   6.063   0.835 -0.0349  0.3492 -0.0233
 5409TIP3    H237863   6.776   6.067   0.815  0.1073  0.4285  0.9842
 5410TIP3   OH237864   1.803   1.049   8.464 -0.1414  0.0809 -0.1375
 5410TIP3    H137865   1.812   1.142   8.442 -0.9322  0.5693  1.5122
 5410TIP3    H237866   1.710   1.037   8.481 -0.3573 -1.4601 -2.0837
 5411TIP3   OH237867   1.287   3.204   1.172  0.3703 -0.8060  0.2723
 5411TIP3    H137868   1.329   3.129   1.214  0.3875 -1.0670 -0.2162
 5411TIP3    H237869   1.195   3.199   1.201  0.6517 -0.2388  1.3344
 5412TIP3   OH237870   2.041   5.043   0.365  0.2057  0.1625  0.5926
 5412TIP3    H137871   2.048   5.011   0.275 -0.0774 -0.6981  0.8607
 5412TIP3    H237872   1.991   4.975   0.410 -2.4751  2.0447  0.6799
 5413TIP3   OH237873   6.236   1.725   0.591 -0.0540 -0.2204  0.3390
 5413TIP3    H137874   6.169   1.742   0.524 -0.8277 -0.4130  1.0531
 5413TIP3    H237875   6.311   1.692   0.542 -0.9591 -1.3380 -0.3417
 5414TIP3   OH237876   3.317   4.973   1.406 -0.5508 -0.5912  0.3872
 5414TIP3    H137877   3.291   5.000   1.494 -1.1238  0.3554 -0.0587
 5414TIP3    H237878   3.413   4.969   1.410 -0.6041 -1.6070  1.3330
 5415TIP3   OH237879   0.663   4.537   1.173 -0.6121  0.0202  0.4173
 5415TIP3    H137880   0.676   4.608   1.236 -0.8266  1.8766 -1.5128
 5415TIP3    H237881   0.569   4.525   1.169 -0.6770  0.6968 -0.3349
 5416TIP3   OH237882   5.664   0.452   6.239  0.9747  0.4528  0.2375
 5416TIP3    H137883   5.586   0.504   6.223  0.5791  0.2548  1.4254
 5416TIP3    H237884   5.736   0.507   6.207  0.6538  2.1219  2.1515
 5417TIP3   OH237885   2.914   2.047   7.485  0.5518  0.2221 -0.3883
 5417TIP3    H137886   2.935   2.006   7.569 -2.3428  0.5365  0.6148
 5417TIP3    H237887   2.973   2.123   7.480  0.8949  0.1205  1.3131
 5418TIP3   OH237888   6.669   6.162   1.902 -0.1319  0.1386  0.3601
 5418TIP3    H137889   6.601   6.146   1.969 -2.0801 -1.4804 -1.8324
 5418TIP3    H237890   6.672   6.080   1.852  3.2091  0.3110  0.0420
 5419TIP3   OH237891   6.645   6.377   1.740  0.0954 -0.2786 -0.1312
 5419TIP3    H137892   6.695   6.443   1.789  1.3618 -2.4696  1.7147
 5419TIP3    H237893   6.628   6.308   1.803 -2.1323 -1.2885 -1.7166
 5420TIP3   OH237894   2.612   3.073   2.028 -0.5944  0.2897 -0.3746
 5420TIP3    H137895   2.612   3.115   2.113  0.8924 -0.4095 -0.0046
 5420TIP3    H237896   2.669   3.127   1.974  0.2847 -0.5133 -0.2644
 5421TIP3   OH237897   1.397   4.654   7.840 -0.1508  0.0909  0.0318
 5421TIP3    H137898   1.391   4.559   7.840  0.8488  0.0108  0.5610
 5421TIP3    H237899   1.390   4.679   7.748  0.5212 -0.5604 -0.2027
 5422TIP3   OH237900   1.097   1.265   7.798 -0.0428  0.0043  0.0720
 5422TIP3    H137901   1.075   1.333   7.863 -1.5277  0.5959 -0.9927
 5422TIP3    H237902   1.043   1.287   7.722  1.3750 -0.9068 -1.2344
 5423TIP3   OH237903   2.374   1.315   0.358  0.0986 -0.4064  0.0031
 5423TIP3    H137904   2.408   1.343   0.273 -1.2992 -1.5155 -0.9741
 5423TIP3    H237905   2.284   1.288   0.340 -0.2228 -0.6850  1.8450
 5424TIP3   OH237906   3.682   3.276   1.984 -0.0252 -0.4653  0.3609
 5424TIP3    H137907   3.740   3.328   2.039  2.6456 -3.0836  0.2801
 5424TIP3    H237908   3.683   3.320   1.899  2.5665 -0.8056  0.1443
 5425TIP3   OH237909   0.830   1.819   0.517  0.4635 -0.1221 -0.4462
 5425TIP3    H137910   0.777   1.768   0.455  0.6412 -0.0300 -0.6771
 5425TIP3    H237911   0.847   1.759   0.589  0.3017 -0.2507 -0.5140
 5426TIP3   OH237912   3.677   0.806   8.178  0.1955 -0.5680  0.7561
 5426TIP3    H137913   3.588   0.834   8.156  0.3097 -0.0352  0.9714
 5426TIP3    H237914   3.703   0.750   8.104  0.7159  1.4810 -0.7223
 5427TIP3   OH237915   5.705   3.540   0.600  0.4635 -0.3837 -0.3415
 5427TIP3    H137916   5.715   3.583   0.685  2.6754 -1.6459  0.1229
 5427TIP3    H237917   5.712   3.611   0.536 -0.7517  0.5193  0.5006
 5428TIP3   OH237918   0.622   4.466   1.890 -0.2313  0.0140 -0.0795
 5428TIP3    H137919   0.548   4.526   1.881  0.1725  0.4842 -0.3506
 5428TIP3    H237920   0.584   4.379   1.881 -0.5744  0.2857 -1.4722
 5429TIP3   OH237921   1.792   5.008   0.692 -0.3709  0.1262 -0.1873
 5429TIP3    H137922   1.826   5.091   0.659 -0.7845  0.1381 -0.5956
 5429TIP3    H237923   1.698   5.021   0.698 -0.4045 -0.2131  0.0420
 5430TIP3   OH237924   0.606   0.338   1.758  0.1626 -0.4963 -0.1517
 5430TIP3    H137925   0.660   0.263   1.783 -1.4030 -1.7880 -0.4724
 5430TIP3    H237926   0.668   0.411   1.752  1.5357 -1.4714  1.3845
 5431TIP3   OH237927   2.539   5.343   7.243 -0.2083  0.1958 -0.1674
 5431TIP3    H137928   2.570   5.372   7.157 -0.5968  0.1604 -0.3223
 5431TIP3    H237929   2.553   5.248   7.243 -1.8456 -0.1009 -0.9092
 5432TIP3   OH237930   5.438   2.531   1.086 -0.0327 -0.3703  0.5419
 5432TIP3    H137931   5.526   2.561   1.065 -0.6105  0.3727 -0.9432
 5432TIP3    H237932   5.411   2.583   1.161 -0.1893  1.3511 -0.6529
 5433TIP3   OH237933   1.097   2.100   6.523  0.1011  0.3316  0.4089
 5433TIP3    H137934   1.034   2.075   6.455 -1.8257  2.0964  1.4397
 5433TIP3    H237935   1.126   2.017   6.560  0.3550 -0.6291 -1.7731
 5434TIP3   OH237936   2.016   2.648   1.346  0.3192 -0.2072  0.4170
 5434TIP3    H137937   2.097   2.599   1.340  0.0115 -0.6128 -0.8299
 5434TIP3    H237938   2.033   2.717   1.411  1.4021 -0.7264  0.6957
 5435TIP3   OH237939   2.499   0.987   0.628 -0.4168  0.2003  0.0817
 5435TIP3    H137940   2.448   1.053   0.675  1.3198 -0.1748  2.7294
 5435TIP3    H237941   2.512   0.917   0.693  2.5086 -0.1863 -0.7871
 5436TIP3   OH237942   3.704   2.621   1.401  0.1820 -0.5818  0.3246
 5436TIP3    H137943   3.615   2.603   1.433  0.0338 -0.8794 -0.2420
 5436TIP3    H237944   3.736   2.536   1.371 -0.3945 -0.0453 -2.0689
 5437TIP3   OH237945   2.810   3.202   6.938 -0.3913 -0.1563  0.1472
 5437TIP3    H137946   2.849   3.258   6.871 -2.0183  2.9450  1.5815
 5437TIP3    H237947   2.822   3.250   7.020 -2.6158 -1.4875  1.3644
 5438TIP3   OH237948   0.132   2.009   1.156 -0.1714  0.4796 -0.2105
 5438TIP3    H137949   0.210   2.051   1.121 -1.3546  2.4737 -0.6020
 5438TIP3    H237950   0.134   1.921   1.119  2.7062 -0.1303  1.1246
 5439TIP3   OH237951   4.422   5.269   0.557 -0.4033  0.0676  0.1190
 5439TIP3    H137952   4.420   5.296   0.466 -0.1418  0.0407  0.1037
 5439TIP3    H237953   4.374   5.186   0.559  0.0000 -0.1767 -0.0800
 5440TIP3   OH237954   6.755   3.524   7.618  0.2980 -0.7396 -0.0814
 5440TIP3    H137955   6.730   3.539   7.527  1.5654 -3.2429 -0.9385
 5440TIP3    H237956   6.673   3.502   7.662 -0.5802  1.9904 -0.1667
 5441TIP3   OH237957   5.052   4.378   1.111 -0.0735  0.0675 -0.4580
 5441TIP3    H137958   5.116   4.389   1.041  0.4879  0.2456  0.0667
 5441TIP3    H237959   5.050   4.464   1.154  0.4732 -0.3698  0.4704
 5442TIP3   OH237960   6.622   5.823   7.219 -0.1648  0.0453 -0.2524
 5442TIP3    H137961   6.670   5.751   7.260 -2.6074 -0.4158  2.0633
 5442TIP3    H237962   6.634   5.896   7.279 -0.6723  0.5198 -0.7237
 5443TIP3   OH237963   3.831   1.489   0.957  0.8302  0.6155  0.0442
 5443TIP3    H137964   3.879   1.564   0.923  1.6463 -0.4953 -1.3862
 5443TIP3    H237965   3.740   1.503   0.930  0.6967  1.7196  0.9790
 5444TIP3   OH237966   0.641   1.351   7.544  0.0180 -0.6457 -0.2312
 5444TIP3    H137967   0.584   1.295   7.492 -0.3302 -0.1531 -0.3866
 5444TIP3    H237968   0.585   1.383   7.615  0.1745 -0.3946 -0.2170
 5445TIP3   OH237969   3.802   2.636   0.246 -0.0341 -0.3409 -0.8105
 5445TIP3    H137970   3.750   2.704   0.288  1.1746 -1.3644  2.6914
 5445TIP3    H237971   3.738   2.581   0.201 -1.5178  0.6735 -0.0229
 5446TIP3   OH237972   3.244   1.100   1.812 -0.2121  0.3214 -0.1007
 5446TIP3    H137973   3.316   1.147   1.853  1.4055  1.3376 -3.6506
 5446TIP3    H237974   3.181   1.168   1.788 -0.0914  0.0931 -1.1149
 5447TIP3   OH237975   5.844   5.909   2.096  0.0209  0.1528 -0.2599
 5447TIP3    H137976   5.913   5.967   2.129  0.7630 -0.6169 -0.4237
 5447TIP3    H237977   5.861   5.825   2.139 -0.6755 -0.1052 -0.4848
 5448TIP3   OH237978   1.756   1.137   8.043 -0.1247  0.0725  0.0313
 5448TIP3    H137979   1.807   1.057   8.055  0.2126  0.2647 -0.1180
 5448TIP3    H237980   1.688   1.133   8.111 -1.8271 -1.6987 -1.6603
 5449TIP3   OH237981   4.608   1.929   1.929  0.7271  0.3769 -0.0987
 5449TIP3    H137982   4.669   1.997   1.899  1.8701 -0.1209  1.0198
 5449TIP3    H237983   4.622   1.924   2.023  0.2365 -0.9980 -0.0779
 5450TIP3   OH237984   2.889   1.687   1.576  0.7289  0.1587 -0.3765
 5450TIP3    H137985   2.824   1.650   1.637  1.6840 -1.9784 -0.5433
 5450TIP3    H237986   2.920   1.766   1.620  0.6205 -0.7483  1.4290
 5451TIP3   OH237987   4.684   1.221   2.001  0.4988 -0.2743  0.5215
 5451TIP3    H137988   4.723   1.146   2.045  0.4629 -1.3196 -1.1451
 5451TIP3    H237989   4.759   1.273   1.971  0.6754 -1.5855 -1.5025
 5452TIP3   OH237990   0.123   3.315   8.051 -0.1218  0.6321 -0.1008
 5452TIP3    H137991   0.074   3.261   7.990 -1.2763  0.2454  1.1067
 5452TIP3    H237992   0.208   3.327   8.010 -0.8389  0.3606 -1.7428
 5453TIP3   OH237993   1.975   0.314   7.529 -0.2870 -0.3972  0.0786
 5453TIP3    H137994   1.915   0.364   7.474  1.0332 -0.0021 -1.0575
 5453TIP3    H237995   2.000   0.374   7.599  0.1708  0.0441 -0.4622
 5454TIP3   OH237996   5.275   4.771   7.814 -0.4994  0.4067 -0.0405
 5454TIP3    H137997   5.203   4.834   7.801 -1.1646 -0.3487 -0.0847
 5454TIP3    H237998   5.269   4.712   7.739 -1.9515 -1.6694  1.5730
 5455TIP3   OH237999   3.009   3.708   8.583  0.0098  0.4358 -0.6797
 5455TIP3    H138000   3.001   3.640   8.650 -0.8931  1.6109  0.4399
 5455TIP3    H238001   3.080   3.677   8.526 -0.2332 -1.3215 -0.0803
 5456TIP3   OH238002   1.006   4.296   7.592 -0.1721  0.3619 -0.5007
 5456TIP3    H138003   1.068   4.369   7.604 -1.2536  0.9428  2.1754
 5456TIP3    H238004   0.920   4.339   7.587 -0.7529 -0.6673  0.3569
 5457TIP3   OH238005   4.701   4.821   2.189  0.1102 -0.3463 -0.1834
 5457TIP3    H138006   4.689   4.910   2.223  0.6407 -0.2930 -0.1256
 5457TIP3    H238007   4.794   4.803   2.203 -0.0655 -1.0325  0.0890
 5458TIP3   OH238008   2.646   4.047   7.020  1.0880 -0.1407 -0.0759
 5458TIP3    H138009   2.622   4.115   7.082 -0.5767  0.2917 -1.1315
 5458TIP3    H238010   2.629   3.964   7.066  0.1562  0.1700  0.1502
 5459TIP3   OH238011   3.986   5.144   7.907 -0.1539  0.1934  0.7272
 5459TIP3    H138012   3.930   5.207   7.953 -0.9997  0.0992 -0.1347
 5459TIP3    H238013   3.962   5.155   7.815 -1.9616 -2.9026  0.7111
 5460TIP3   OH238014   4.331   6.182   7.885  0.1584 -0.0178 -0.1612
 5460TIP3    H138015   4.377   6.263   7.865 -1.4383  0.9970  0.0833
 5460TIP3    H238016   4.277   6.203   7.962  0.0557 -1.4478  0.1920
 5461TIP3   OH238017   4.410   2.404   8.637 -0.1091  0.1550 -0.1619
 5461TIP3    H138018   4.476   2.344   8.601  1.5990  0.1072  2.7234
 5461TIP3    H238019   4.460   2.481   8.663 -1.6512  1.1975 -0.2162
 5462TIP3   OH238020   4.668   6.523   6.153 -0.0039 -0.3225 -0.9358
 5462TIP3    H138021   4.598   6.459   6.164  1.6405 -2.2448 -1.2723
 5462TIP3    H238022   4.657   6.554   6.063 -0.5975 -0.3596 -0.8835
 5463TIP3   OH238023   3.281   1.455   2.363  0.2013 -0.4354  0.1629
 5463TIP3    H138024   3.328   1.480   2.442  2.8367 -1.6378 -0.9109
 5463TIP3    H238025   3.212   1.397   2.394 -0.5944  1.2822  1.7860
 5464TIP3   OH238026   2.448   2.932   1.051  0.3056  0.5728 -0.5307
 5464TIP3    H138027   2.535   2.972   1.059 -0.2588  1.7458 -0.1097
 5464TIP3    H238028   2.387   3.005   1.060 -0.7136 -0.0254 -2.2288
 5465TIP3   OH238029   4.232   5.243   1.545 -0.5098 -0.0404  1.1882
 5465TIP3    H138030   4.300   5.311   1.543  0.0187 -0.5503  1.4430
 5465TIP3    H238031   4.211   5.233   1.638 -2.1874  1.3148  1.0088
 5466TIP3   OH238032   3.425   1.519   1.255  0.4942  0.0998 -0.0141
 5466TIP3    H138033   3.365   1.562   1.315  0.4914 -0.0091  0.0605
 5466TIP3    H238034   3.388   1.432   1.241  0.9332 -0.1708  0.4764
 5467TIP3   OH238035   2.171   3.259   1.528  0.0472 -0.2154 -0.3043
 5467TIP3    H138036   2.109   3.238   1.598  0.7797  1.3024  0.8840
 5467TIP3    H238037   2.120   3.309   1.465 -0.4308 -0.8656 -0.4428
 5468TIP3   OH238038   2.494   2.716   7.681 -0.3272  0.3951  0.5005
 5468TIP3    H138039   2.590   2.720   7.686 -0.0793  0.0977 -2.3105
 5468TIP3    H238040   2.473   2.754   7.596 -2.6490 -0.4570  0.6239
 5469TIP3   OH238041   6.884   1.373   7.944  0.4420  0.1546 -0.0209
 5469TIP3    H138042   6.934   1.450   7.971  1.4428 -0.6138  0.3609
 5469TIP3    H238043   6.795   1.406   7.933  1.0573  1.6159 -0.9973
 5470TIP3   OH238044   6.412   0.176   7.832 -0.1638 -0.4920 -0.2238
 5470TIP3    H138045   6.437   0.225   7.910 -1.8055 -1.5244  1.0258
 5470TIP3    H238046   6.325   0.208   7.810 -0.4875 -1.5279 -0.5111
 5471TIP3   OH238047   3.077   3.902   1.399 -0.0067 -0.3533 -0.1362
 5471TIP3    H138048   3.041   3.865   1.318  0.4604 -0.5172 -0.2709
 5471TIP3    H238049   3.001   3.914   1.455 -0.3699 -0.0124 -0.6904
 5472TIP3   OH238050   1.049   0.369   1.525  0.6130  0.1665  0.1446
 5472TIP3    H138051   0.987   0.393   1.594  0.7017  1.3499 -0.1582
 5472TIP3    H238052   1.105   0.446   1.515  0.8252 -0.1166 -1.0049
 5473TIP3   OH238053   2.439   4.534   7.772  0.1421 -0.1064  0.4939
 5473TIP3    H138054   2.425   4.605   7.835  0.8994 -0.7164  1.3762
 5473TIP3    H238055   2.530   4.508   7.785 -0.4860 -2.1496  1.1538
 5474TIP3   OH238056   3.686   5.142   0.915  0.1283 -0.4043 -0.3762
 5474TIP3    H138057   3.671   5.190   0.833 -1.5966 -0.4640 -0.1251
 5474TIP3    H238058   3.740   5.201   0.968  1.2448 -0.3577 -1.5193
 5475TIP3   OH238059   0.904   4.743   8.115  0.4317 -0.3338 -1.1638
 5475TIP3    H138060   0.953   4.816   8.076  1.4211 -0.9608 -1.1047
 5475TIP3    H238061   0.946   4.665   8.081  0.6212 -0.9032  0.3140
 5476TIP3   OH238062   5.020   0.845   0.439 -0.0997 -0.2043 -0.1574
 5476TIP3    H138063   5.053   0.896   0.365 -0.9788  0.8131  0.1288
 5476TIP3    H238064   4.963   0.779   0.400 -0.0413 -0.0909 -0.4321
 5477TIP3   OH238065   3.751   3.689   7.426  0.0005  0.3271  0.0617
 5477TIP3    H138066   3.716   3.641   7.352 -0.6653 -0.8216  1.0891
 5477TIP3    H238067   3.679   3.746   7.454  0.7132  1.8144 -1.0165
 5478TIP3   OH238068   6.549   4.538   8.083  0.1806 -0.1067  0.5112
 5478TIP3    H138069   6.494   4.462   8.100  0.6997 -0.4101  0.8501
 5478TIP3    H238070   6.592   4.518   8.000 -0.3315  0.2020  0.1631
 5479TIP3   OH238071   5.684   0.723   1.671 -0.3926 -0.2820  0.2102
 5479TIP3    H138072   5.765   0.763   1.704 -0.6777  0.2887  0.2180
 5479TIP3    H238073   5.691   0.631   1.697 -0.0455 -0.1002  0.7912
 5480TIP3   OH238074   4.235   0.144   0.045  0.4302  0.3363  0.3352
 5480TIP3    H138075   4.167   0.200   0.083 -0.0535 -1.4689  2.3070
 5480TIP3    H238076   4.188   0.087  -0.015  1.0069  2.2655 -2.1532
 5481TIP3   OH238077   4.009   3.967   0.822  0.0405 -0.3301 -0.7119
 5481TIP3    H138078   4.008   4.020   0.901  0.4824  0.6432 -1.3451
 5481TIP3    H238079   3.937   3.905   0.834  0.8285 -0.9808  0.9593
 5482TIP3   OH238080   6.528   2.171   8.008  0.2417 -0.4240  0.0566
 5482TIP3    H138081   6.546   2.088   8.051 -0.0656 -1.4527 -1.6776
 5482TIP3    H238082   6.446   2.201   8.046  0.1718 -1.1022  0.4554
 5483TIP3   OH238083   4.820   2.425   6.679  0.1920  0.1687  0.6566
 5483TIP3    H138084   4.864   2.396   6.599 -2.2910 -1.0933 -0.3662
 5483TIP3    H238085   4.791   2.344   6.720  1.6023  0.7826  3.0325
 5484TIP3   OH238086   5.777   3.047   8.061  0.0395 -0.5779 -0.1898
 5484TIP3    H138087   5.843   3.093   8.112 -0.2225  0.4826 -0.7934
 5484TIP3    H238088   5.741   2.981   8.122 -1.2628  1.5506  1.5027
 5485TIP3   OH238089   4.378   1.020   7.096 -0.1730 -0.0134 -0.1805
 5485TIP3    H138090   4.452   0.961   7.107  1.0687  1.4982 -0.0120
 5485TIP3    H238091   4.352   1.010   7.005  0.0507 -0.7710 -0.1620
 5486TIP3   OH238092   5.028   0.792   7.594  0.5390  0.7096  0.6277
 5486TIP3    H138093   5.005   0.857   7.528 -1.4188 -2.0760 -1.6635
 5486TIP3    H238094   5.095   0.738   7.553 -1.4559 -1.7179  0.3350
 5487TIP3   OH238095   0.886   4.281   1.981 -0.1780 -0.4738 -0.0497
 5487TIP3    H138096   0.973   4.305   1.949 -0.4904 -0.7904 -1.1835
 5487TIP3    H238097   0.826   4.336   1.930 -0.6516 -0.4118  0.5735
 5488TIP3   OH238098   1.672   2.895   6.557 -0.5093  0.5824 -0.0354
 5488TIP3    H138099   1.747   2.930   6.605  0.7205 -1.3097 -0.4620
 5488TIP3    H238100   1.642   2.967   6.502  1.5399  1.1732 -0.4584
 5489TIP3   OH238101   0.723   1.046   8.253  0.2242  0.6778 -0.0277
 5489TIP3    H138102   0.814   1.070   8.271  0.4538  0.0664 -0.3564
 5489TIP3    H238103   0.676   1.068   8.334  0.8546 -0.0073  0.5331
 5490TIP3   OH238104   4.828   4.619   8.001  0.6158 -0.2535 -0.3458
 5490TIP3    H138105   4.907   4.566   8.008  0.7931  0.0162 -0.2870
 5490TIP3    H238106   4.816   4.633   7.907  0.3655 -0.6970 -0.3843
 5491TIP3   OH238107   0.661   2.037   7.671 -0.0682  0.5532 -0.1683
 5491TIP3    H138108   0.681   2.040   7.578  0.0421 -0.1118 -0.1777
 5491TIP3    H238109   0.746   2.030   7.714 -0.0152  2.3744  0.0895
 5492TIP3   OH238110   3.599   4.931   8.134 -0.1799 -0.0689 -0.8330
 5492TIP3    H138111   3.638   5.018   8.120 -0.3615  1.0484  3.8711
 5492TIP3    H238112   3.662   4.886   8.191 -1.8255 -1.5426 -0.0814
 5493TIP3   OH238113   0.782   4.019   0.972  0.2288 -0.5555 -0.2390
 5493TIP3    H138114   0.815   4.014   1.061 -0.3308 -0.4421 -0.0208
 5493TIP3    H238115   0.686   4.020   0.981  0.1684  0.0823 -0.8036
 5494TIP3   OH238116   4.139   0.667   2.353 -0.2376  0.4070 -0.1742
 5494TIP3    H138117   4.141   0.571   2.358 -1.2215  0.3357 -0.9262
 5494TIP3    H238118   4.048   0.690   2.372  0.3440  1.3334  1.8610
 5495TIP3   OH238119   3.100   2.236   7.457  0.8038  0.1281  0.3470
 5495TIP3    H138120   3.147   2.269   7.534  0.3626  1.9201 -0.1043
 5495TIP3    H238121   3.105   2.308   7.394  1.8586 -1.5884 -1.6407
 5496TIP3   OH238122   3.592   5.584   7.789  0.0038  0.1756 -0.0364
 5496TIP3    H138123   3.505   5.549   7.811  0.0224 -0.5245 -1.0110
 5496TIP3    H238124   3.652   5.516   7.819  0.2864  0.9290  1.2047
 5497TIP3   OH238125   4.513   1.959   7.221  0.0757  0.3235  0.2372
 5497TIP3    H138126   4.422   1.983   7.238 -0.1650  0.2832 -0.8985
 5497TIP3    H238127   4.520   1.868   7.252  0.4590  1.1366  2.7190
 5498TIP3   OH238128   3.082   6.239   0.916  0.6005 -0.8595  0.5085
 5498TIP3    H138129   3.053   6.204   1.001 -0.5025 -1.3089 -0.0287
 5498TIP3    H238130   3.002   6.274   0.877  1.2184 -0.1119 -0.0952
 5499TIP3   OH238131   6.547   4.451   1.886  0.2679 -0.0407  0.0011
 5499TIP3    H138132   6.626   4.479   1.933  1.1095 -0.9454 -0.8450
 5499TIP3    H238133   6.477   4.503   1.926  1.1755  0.3194  1.2131
 5500TIP3   OH238134   2.090   6.276   7.519  0.0486 -0.6399 -0.3210
 5500TIP3    H138135   2.131   6.362   7.528  2.5782 -1.7181 -0.7316
 5500TIP3    H238136   2.029   6.286   7.446  0.0976  0.8621 -0.1847
 5501TIP3   OH238137   0.266   0.197   7.725 -0.0889 -0.1002  0.1591
 5501TIP3    H138138   0.349   0.240   7.746  0.3769 -0.1214 -1.4708
 5501TIP3    H238139   0.221   0.189   7.809  0.4867  2.1339  0.7453
 5502TIP3   OH238140   3.421   5.600   8.118  0.0658  0.4278 -0.7288
 5502TIP3    H138141   3.495   5.547   8.148  1.1409  2.0521 -0.3940
 5502TIP3    H238142   3.392   5.557   8.038 -0.7709 -2.1176  0.7863
 5503TIP3   OH238143   0.085   5.281   0.380  0.2606 -0.0217  0.2168
 5503TIP3    H138144  -0.008   5.265   0.395 -0.0765 -0.1187 -1.7698
 5503TIP3    H238145   0.119   5.198   0.346  0.6931  0.4949 -0.6465
 5504TIP3   OH238146   3.087   3.999   0.400 -0.3341  0.3740  0.3574
 5504TIP3    H138147   3.012   3.947   0.374  0.6068 -0.8446 -0.0160
 5504TIP3    H238148   3.105   4.055   0.324  0.2076 -0.6067 -0.2549
 5505TIP3   OH238149   2.062   0.938   7.471  0.1287 -0.3010  0.0414
 5505TIP3    H138150   2.059   0.866   7.535 -0.3498  0.2383  0.6285
 5505TIP3    H238151   1.971   0.952   7.446  0.1639  0.4686  0.3405
 5506TIP3   OH238152   0.689   5.683   0.299 -0.1629  0.4307 -0.1125
 5506TIP3    H138153   0.688   5.710   0.207  1.2930  0.1529 -0.2265
 5506TIP3    H238154   0.755   5.615   0.303 -1.8327 -1.2321  0.7230
 5507TIP3   OH238155   0.326   2.418   1.594 -0.8247 -0.9555 -0.3002
 5507TIP3    H138156   0.306   2.327   1.615  0.1642 -1.2481 -0.5518
 5507TIP3    H238157   0.394   2.442   1.657 -3.1075  0.5842  1.7612
 5508TIP3   OH238158   2.032   4.969   0.079  0.4797 -0.3677 -0.2318
 5508TIP3    H138159   1.996   4.881   0.067 -0.8342  0.1129  0.0387
 5508TIP3    H238160   2.016   5.013  -0.005  2.9333 -0.9542 -1.0949
 5509TIP3   OH238161   3.492   1.846   0.819 -0.7112 -0.2476  0.1809
 5509TIP3    H138162   3.485   1.903   0.896  0.0480 -0.6437  0.5563
 5509TIP3    H238163   3.517   1.761   0.855  2.4265  0.1765 -0.6382
 5510TIP3   OH238164   2.670   6.332   1.574  0.2492  0.6660  0.3377
 5510TIP3    H138165   2.661   6.258   1.514 -1.1993  0.7635  0.4032
 5510TIP3    H238166   2.590   6.331   1.627  0.6207  1.7316  0.9621
 5511TIP3   OH238167   6.859   2.461   8.253 -0.2818 -0.3941 -0.0107
 5511TIP3    H138168   6.878   2.450   8.160 -2.5781 -0.2255 -0.5790
 5511TIP3    H238169   6.920   2.528   8.283  0.1161 -0.0372 -1.5564
 5512TIP3   OH238170   4.850   4.713   1.552  0.0084 -0.1729 -0.2774
 5512TIP3    H138171   4.850   4.617   1.556  0.5139 -0.2014  3.5512
 5512TIP3    H238172   4.836   4.740   1.643 -0.3315  3.4334 -1.2444
 5513TIP3   OH238173   1.865   4.472   0.067  0.5159  0.3952  0.1160
 5513TIP3    H138174   1.781   4.430   0.083  0.4468  0.1854 -0.7351
 5513TIP3    H238175   1.891   4.508   0.152  0.2678 -0.8016  0.7275
 5514TIP3   OH238176   0.402   0.025   1.192  0.1785  0.4031 -0.5646
 5514TIP3    H138177   0.387   0.065   1.278  0.4118  0.7905 -0.7028
 5514TIP3    H238178   0.366   0.087   1.129  0.2889  0.2665 -0.7657
 5515TIP3   OH238179   4.953   3.208   0.479  0.3741  0.3110 -0.5216
 5515TIP3    H138180   4.956   3.181   0.387 -1.1466  1.6745 -1.0185
 5515TIP3    H238181   4.904   3.138   0.523  0.0167  0.2579 -0.9963
 5516TIP3   OH238182   6.625   2.676   6.914 -0.3942  0.0347  0.2959
 5516TIP3    H138183   6.704   2.633   6.881  0.3920  0.6835  1.2607
 5516TIP3    H238184   6.625   2.762   6.874  0.4861  0.7703  1.7949
 5517TIP3   OH238185   0.349   4.119   1.635 -0.0652 -0.6194  0.0796
 5517TIP3    H138186   0.391   4.038   1.664  1.6484 -0.2607 -1.2015
 5517TIP3    H238187   0.368   4.182   1.704  2.9353 -0.0827 -1.0786
 5518TIP3   OH238188   4.361   4.057   0.375 -0.2691 -0.0029  0.2830
 5518TIP3    H138189   4.286   4.018   0.420  0.3003 -0.4920  0.8192
 5518TIP3    H238190   4.431   3.993   0.385  0.1500  0.3261 -0.4513
 5519TIP3   OH238191   4.159   0.705   7.646 -0.1145  0.4848 -0.7037
 5519TIP3    H138192   4.127   0.709   7.556 -0.7628  2.8167 -0.4558
 5519TIP3    H238193   4.200   0.791   7.660  1.0887 -0.2953  0.8525
 5520TIP3   OH238194   1.346   0.986   1.177  0.0537 -1.0257 -0.4874
 5520TIP3    H138195   1.345   0.937   1.259 -0.5722  1.0502  0.8242
 5520TIP3    H238196   1.439   0.996   1.156  0.2969 -0.3542  0.7908
 5521TIP3   OH238197   0.558   2.460   1.282 -0.4386  0.2359 -0.0151
 5521TIP3    H138198   0.528   2.370   1.291  0.1778  0.0709  0.4747
 5521TIP3    H238199   0.553   2.478   1.188 -0.7325 -0.2487 -0.0918
 5522TIP3   OH238200   6.030   2.779   7.700 -0.7067 -0.3119  0.7876
 5522TIP3    H138201   6.101   2.798   7.639 -0.8159  0.3383  0.8617
 5522TIP3    H238202   6.013   2.862   7.745 -1.5242 -0.4583  0.7630
 5523TIP3   OH238203   2.365   5.552   7.881  0.4306 -0.1906  0.2922
 5523TIP3    H138204   2.339   5.631   7.835  1.6147  0.1366  0.1485
 5523TIP3    H238205   2.367   5.484   7.814  0.7676 -0.0337  0.1447
 5524TIP3   OH238206   1.658   0.699   8.180 -0.0076  0.2864  0.4627
 5524TIP3    H138207   1.724   0.724   8.245  0.4055  1.9943 -0.5610
 5524TIP3    H238208   1.672   0.606   8.167  2.3997  0.6378  0.1008
 5525TIP3   OH238209   3.391   5.088   0.087  0.2638  0.3971 -0.3903
 5525TIP3    H138210   3.445   5.068   0.010  2.0897 -2.4727  1.4778
 5525TIP3    H238211   3.390   5.007   0.138 -0.7597  2.1954  2.7072
 5526TIP3   OH238212   4.905   0.943   6.842 -0.3683  0.3828  0.0465
 5526TIP3    H138213   4.944   0.908   6.762  3.2314  0.3800  1.5915
 5526TIP3    H238214   4.830   0.994   6.812  0.7045  0.2557 -3.3043
 5527TIP3   OH238215   3.950   5.280   7.301 -0.2620  0.3793 -0.1694
 5527TIP3    H138216   3.996   5.364   7.301 -0.5445  0.5829  1.4893
 5527TIP3    H238217   4.018   5.215   7.288  0.4212  0.7329  1.3585
 5528TIP3   OH238218   0.990   2.385   0.609  0.3793 -0.2149 -0.9184
 5528TIP3    H138219   0.936   2.440   0.552  1.4468  0.8434 -0.9662
 5528TIP3    H238220   0.957   2.297   0.597  0.5164 -0.0158 -3.1453
 5529TIP3   OH238221   1.242   2.791   0.885 -0.0189  0.1462  0.5078
 5529TIP3    H138222   1.170   2.733   0.860 -1.4022  1.5785  1.0259
 5529TIP3    H238223   1.284   2.814   0.803 -1.2746  0.6816 -0.0133
 5530TIP3   OH238224   5.772   6.865   7.285  0.3113  0.2671  0.1227
 5530TIP3    H138225   5.770   6.955   7.319 -1.1949  2.0998 -4.1275
 5530TIP3    H238226   5.826   6.871   7.206 -0.5663 -2.3615 -0.7732
 5531TIP3   OH238227   3.449   3.712   1.315  0.4415 -0.0239  0.1580
 5531TIP3    H138228   3.411   3.751   1.394 -1.4496  0.5043 -0.9455
 5531TIP3    H238229   3.515   3.776   1.286 -0.2375  0.7389  0.2450
 5532TIP3   OH238230   6.676   0.098   8.218 -0.1982 -0.6401  0.3240
 5532TIP3    H138231   6.762   0.132   8.242 -0.2821 -0.5922  0.5642
 5532TIP3    H238232   6.695   0.015   8.174  0.0008 -0.3212 -0.1951
 5533TIP3   OH238233   4.587   5.588   0.296  0.0243  0.2892  0.0606
 5533TIP3    H138234   4.641   5.666   0.280  0.7802 -0.1348  0.5231
 5533TIP3    H238235   4.525   5.616   0.363  0.3828  0.4544  0.3275
 5534TIP3   OH238236   0.636   5.800   7.248  0.6430  0.4599  0.4787
 5534TIP3    H138237   0.696   5.856   7.198 -1.5527  0.5602 -2.3100
 5534TIP3    H238238   0.568   5.860   7.277 -0.0852 -0.2341  0.2303
 5535TIP3   OH238239   4.434   5.639   0.514  0.2289  0.1728 -0.0423
 5535TIP3    H138240   4.483   5.696   0.574  1.3939 -0.3226 -0.4852
 5535TIP3    H238241   4.405   5.566   0.569  1.6691 -0.5035 -0.1313
 5536TIP3   OH238242   1.359   6.636   7.840 -0.0182 -0.5480 -0.1028
 5536TIP3    H138243   1.361   6.728   7.864 -1.2136 -0.6923  0.6277
 5536TIP3    H238244   1.269   6.620   7.811 -0.0311 -1.6354  0.4832
 5537TIP3   OH238245   5.686   0.828   8.378 -0.7044  0.0993 -0.2291
 5537TIP3    H138246   5.729   0.767   8.437  0.5402 -0.9479 -2.1270
 5537TIP3    H238247   5.592   0.808   8.388 -0.4606 -0.6695  0.7021
 5538TIP3   OH238248   4.079   1.128   6.308 -0.2265 -0.9491  0.0022
 5538TIP3    H138249   4.087   1.036   6.281  1.5115 -1.2422  1.3993
 5538TIP3    H238250   4.165   1.166   6.291 -0.9196  0.4734 -0.5570
 5539TIP3   OH238251   2.833   0.523   7.784 -0.1777  0.1246  0.3406
 5539TIP3    H138252   2.831   0.599   7.726 -0.0793 -0.2034 -0.0982
 5539TIP3    H238253   2.925   0.502   7.793 -0.2877 -1.5139 -1.6490
 5540TIP3   OH238254   0.039   2.782   1.774  0.1848  0.1679  0.2855
 5540TIP3    H138255  -0.051   2.814   1.781 -0.3286 -0.6354 -1.7407
 5540TIP3    H238256   0.093   2.854   1.807 -1.0419  2.1532 -1.7562
 5541TIP3   OH238257   3.736   1.764   0.541 -0.4331 -0.9047 -0.1004
 5541TIP3    H138258   3.764   1.709   0.468 -0.3982 -0.8783 -0.1071
 5541TIP3    H238259   3.763   1.853   0.516  0.0443 -0.9685  0.1786
 5542TIP3   OH238260   4.596   5.910   1.976  0.5824 -0.3395  0.0994
 5542TIP3    H138261   4.586   5.837   2.037  0.6016 -0.7460 -0.3754
 5542TIP3    H238262   4.535   5.889   1.905  0.7625 -0.0101 -0.1513
 5543TIP3   OH238263   5.492   0.954   0.250  0.4590 -0.0220  0.6106
 5543TIP3    H138264   5.443   0.897   0.310 -1.8492 -0.3740 -1.4311
 5543TIP3    H238265   5.425   1.013   0.213  1.9848  0.9614 -0.7394
 5544TIP3   OH238266   1.923   0.042   0.897  0.2402 -0.2035  0.3244
 5544TIP3    H138267   2.000   0.074   0.944  1.1895 -0.5086 -0.9894
 5544TIP3    H238268   1.949   0.039   0.805 -1.3519 -0.2917 -0.1598
 5545TIP3   OH238269   0.703   4.498   6.640 -0.5013 -0.0324  0.2025
 5545TIP3    H138270   0.642   4.529   6.573  0.8504 -0.8530 -1.4897
 5545TIP3    H238271   0.782   4.550   6.627 -0.9735  1.5395  2.8523
 5546TIP3   OH238272   3.128   1.184   8.265 -0.5956  0.2504 -0.3993
 5546TIP3    H138273   3.103   1.229   8.346 -0.1570  0.5210 -0.4135
 5546TIP3    H238274   3.198   1.238   8.228  0.0299 -0.5131 -0.3447
 5547TIP3   OH238275   5.549   2.764   8.639  0.0481 -0.1074 -0.1914
 5547TIP3    H138276   5.504   2.848   8.641 -0.1132 -0.0486 -2.6480
 5547TIP3    H238277   5.531   2.724   8.724 -0.2337  2.1239  0.8630
 5548TIP3   OH238278   0.548   6.255   7.161  0.2616 -0.1544  0.3265
 5548TIP3    H138279   0.579   6.323   7.101 -0.1844 -0.6238 -0.4532
 5548TIP3    H238280   0.536   6.178   7.105 -1.7495 -0.1526  0.6833
 5549TIP3   OH238281   4.896   0.866   8.159 -0.5315 -0.3433 -0.1154
 5549TIP3    H138282   4.857   0.791   8.203 -0.8057  0.5176  1.1568
 5549TIP3    H238283   4.990   0.856   8.173 -0.3073 -1.7700 -2.1471
 5550TIP3   OH238284   0.286   4.490   7.252  0.3430  0.0374  0.4581
 5550TIP3    H138285   0.217   4.459   7.195 -0.4701 -1.7070  2.2572
 5550TIP3    H238286   0.365   4.444   7.223  0.4579  0.8982 -0.6468
 5551TIP3   OH238287   4.545   2.039   0.714  0.4415 -0.1285 -0.7459
 5551TIP3    H138288   4.453   2.015   0.724  0.1601  1.1810 -0.0078
 5551TIP3    H238289   4.558   2.042   0.619 -0.3213 -0.1619 -0.8574
 5552TIP3   OH238290   4.722   1.512   0.088 -0.2541  1.1476 -0.1218
 5552TIP3    H138291   4.674   1.542   0.165  2.7481  0.0566  2.3717
 5552TIP3    H238292   4.681   1.430   0.064  1.6115 -1.1219  3.5579
 5553TIP3   OH238293   0.826   6.630   7.718  0.0157 -0.4835  0.4184
 5553TIP3    H138294   0.784   6.711   7.687  0.0924  0.3409  2.3601
 5553TIP3    H238295   0.753   6.573   7.742 -0.0329 -0.9171 -0.7012
 5554TIP3   OH238296   0.270   3.647   0.722 -0.4208 -0.1740 -0.6661
 5554TIP3    H138297   0.366   3.651   0.723 -0.4104 -0.1277  0.8181
 5554TIP3    H238298   0.247   3.646   0.629  0.8854  2.9983 -1.1677
 5555TIP3   OH238299   1.088   6.409   0.909  0.3284  0.0514  0.2651
 5555TIP3    H138300   1.036   6.329   0.914  0.0971  0.1662 -0.2489
 5555TIP3    H238301   1.139   6.400   0.829  0.2236  0.4637  0.1490
 5556TIP3   OH238302   6.440   6.494   1.599 -0.5385  0.1746  0.0670
 5556TIP3    H138303   6.438   6.559   1.669 -0.5034  0.2102  0.0358
 5556TIP3    H238304   6.504   6.429   1.628 -2.1505 -1.0085  1.0960
 5557TIP3   OH238305   0.100   2.495   1.750 -0.2055  0.4854  0.1441
 5557TIP3    H138306   0.179   2.478   1.698 -0.6542  1.0453 -0.7483
 5557TIP3    H238307   0.093   2.591   1.752 -0.4320  0.4538  0.8802
 5558TIP3   OH238308   5.671   2.665   0.973  0.8221  0.2403 -0.1887
 5558TIP3    H138309   5.695   2.591   0.916 -0.1216 -1.0413  0.9910
 5558TIP3    H238310   5.743   2.672   1.036 -0.1610 -1.3093  1.1874
 5559TIP3   OH238311   1.036   5.295   6.630 -0.1209  0.4810  0.3607
 5559TIP3    H138312   0.941   5.289   6.626 -0.0137 -1.3056 -0.4582
 5559TIP3    H238313   1.066   5.272   6.542  1.0526  2.7802  0.0642
 5560TIP3   OH238314   5.384   2.733   7.478 -0.5006  0.1848  0.6021
 5560TIP3    H138315   5.416   2.746   7.388 -4.4029 -0.0225 -1.0451
 5560TIP3    H238316   5.371   2.822   7.511  0.1734  0.2627  0.6786
 5561TIP3   OH238317   4.099   3.186   1.271  0.1212 -0.5203  0.4213
 5561TIP3    H138318   4.076   3.206   1.180  0.4160 -0.0227  0.4568
 5561TIP3    H238319   4.101   3.090   1.274 -3.2352 -0.7069  0.7262
 5562TIP3   OH238320   2.959   0.471   2.117  0.7625  0.4207  1.0516
 5562TIP3    H138321   3.021   0.539   2.145  1.2577  0.1345  0.6696
 5562TIP3    H238322   2.911   0.448   2.196  1.4431  0.3410  1.4480
 5563TIP3   OH238323   0.212   5.686   2.161 -0.9951 -0.4670  0.5518
 5563TIP3    H138324   0.202   5.627   2.086 -2.4812 -0.4190  0.6945
 5563TIP3    H238325   0.124   5.697   2.196 -0.7071  1.6087  0.7325
 5564TIP3   OH238326   0.328   4.635   8.270  0.2496 -0.4063 -0.3408
 5564TIP3    H138327   0.254   4.579   8.246 -1.3009  1.2371  0.3218
 5564TIP3    H238328   0.335   4.697   8.197  0.0111  0.3449  0.2638
 5565TIP3   OH238329   1.209   6.027   1.381 -0.3978  0.0648 -0.7341
 5565TIP3    H138330   1.146   6.006   1.312 -1.6993  0.3565  0.3222
 5565TIP3    H238331   1.191   5.964   1.450 -0.1463  0.7430 -0.0411
 5566TIP3   OH238332   2.444   1.632   1.082  0.1001 -0.4733 -0.3837
 5566TIP3    H138333   2.480   1.672   1.004 -0.2338  1.6617  0.4958
 5566TIP3    H238334   2.464   1.693   1.153 -0.5744 -1.7968  1.0283
 5567TIP3   OH238335   4.586   3.539   0.092 -0.0313 -0.2177  0.1350
 5567TIP3    H138336   4.515   3.522   0.030  0.5565 -0.4572 -0.4737
 5567TIP3    H238337   4.593   3.458   0.143 -0.3955 -0.0829  0.4098
 5568TIP3   OH238338   4.106   2.586   6.938 -0.4065  0.2703  0.0134
 5568TIP3    H138339   4.123   2.492   6.945 -0.0557  0.4103  1.3611
 5568TIP3    H238340   4.131   2.608   6.849  0.5111 -0.7252  0.0015
 5569TIP3   OH238341   0.082   6.623   8.235  0.1237  0.2510 -0.0739
 5569TIP3    H138342   0.166   6.669   8.242 -0.5575  1.3869  1.2153
 5569TIP3    H238343   0.049   6.620   8.325 -2.1953  1.7733 -0.7771
 5570TIP3   OH238344   4.363   2.548   1.172  0.2016 -0.5793 -0.2630
 5570TIP3    H138345   4.289   2.590   1.215 -0.0915 -0.4690 -0.8721
 5570TIP3    H238346   4.325   2.503   1.096  0.9206  0.5521 -1.3271
 5571TIP3   OH238347   3.430   1.566   0.331  0.6452 -0.2738 -0.7867
 5571TIP3    H138348   3.427   1.616   0.412 -0.2445 -1.7536  0.1352
 5571TIP3    H238349   3.339   1.561   0.302  0.7200 -1.2571 -0.8981
 5572TIP3   OH238350   6.477   2.545   8.383  0.0535  0.5654  0.4566
 5572TIP3    H138351   6.382   2.538   8.387 -0.1713  2.4274 -0.4390
 5572TIP3    H238352   6.499   2.518   8.294  0.3018  0.7356  0.4651
 5573TIP3   OH238353   0.044   6.682   6.260  0.9463 -0.5242 -0.3527
 5573TIP3    H138354   0.001   6.765   6.239  2.2455  0.2112 -0.2135
 5573TIP3    H238355   0.129   6.688   6.216  0.5840 -2.3358 -1.4220
 5574TIP3   OH238356   3.312   3.170   7.019 -0.3751 -0.2283 -0.2662
 5574TIP3    H138357   3.303   3.223   7.098  0.1162  2.2579 -1.7598
 5574TIP3    H238358   3.228   3.180   6.974 -0.0512 -0.1829 -0.8687
 5575TIP3   OH238359   0.691   2.599   1.484 -0.3949  0.9259 -0.1875
 5575TIP3    H138360   0.683   2.540   1.410  0.2908  0.4063  0.1397
 5575TIP3    H238361   0.783   2.593   1.509 -0.6313  1.0446  0.7429
 5576TIP3   OH238362   6.689   4.643   0.610 -0.3964 -0.0906 -0.1736
 5576TIP3    H138363   6.723   4.621   0.697 -3.2665 -0.5212  0.9514
 5576TIP3    H238364   6.679   4.559   0.565  0.1214  0.0393 -0.5361
 5577TIP3   OH238365   0.358   5.351   0.435 -0.4512 -0.1421  0.3961
 5577TIP3    H138366   0.378   5.260   0.418 -1.8792  0.0042 -2.8777
 5577TIP3    H238367   0.264   5.351   0.456 -0.0340  0.4348  2.5194
 5578TIP3   OH238368   3.838   3.657   6.455  0.1636  0.7128 -0.2082
 5578TIP3    H138369   3.824   3.575   6.502 -1.0653  1.5936  1.0126
 5578TIP3    H238370   3.872   3.629   6.369 -0.4358 -1.0724  0.0922
 5579TIP3   OH238371   3.396   6.648   8.181 -0.2356  0.3526 -0.3778
 5579TIP3    H138372   3.311   6.687   8.200  0.1377  0.6606  0.7406
 5579TIP3    H238373   3.398   6.640   8.086 -1.1584  1.1585 -0.4795
 5580TIP3   OH238374   3.868   6.730   8.004  0.3809 -0.5459  0.4960
 5580TIP3    H138375   3.827   6.706   8.087  1.1289 -2.5785  0.3186
 5580TIP3    H238376   3.805   6.704   7.937  1.2545 -2.3206  0.2978
 5581TIP3   OH238377   5.760   2.811   6.748  0.1329 -0.4395 -0.1321
 5581TIP3    H138378   5.791   2.819   6.839  2.4025  2.6867 -1.0229
 5581TIP3    H238379   5.826   2.756   6.706 -0.5767 -1.3605 -0.0638
 5582TIP3   OH238380   6.527   0.665   0.861  0.2663  0.5136 -0.5717
 5582TIP3    H138381   6.610   0.644   0.906  0.9537  3.8180 -0.0567
 5582TIP3    H238382   6.520   0.760   0.867 -3.0276  0.4576 -1.6792
 5583TIP3   OH238383   5.314   5.391   0.748 -0.3779 -0.1841 -0.3526
 5583TIP3    H138384   5.347   5.456   0.686  1.7174 -1.6097 -0.8189
 5583TIP3    H238385   5.392   5.350   0.785 -1.6087 -2.1723  0.2247
 5584TIP3   OH238386   6.694   3.556   8.675 -0.8713 -0.8042  0.1815
 5584TIP3    H138387   6.745   3.491   8.626 -2.2943 -0.6514 -1.6256
 5584TIP3    H238388   6.603   3.537   8.652 -1.4422  0.6662  1.0988
 5585TIP3   OH238389   3.862   3.699   1.738 -0.1610 -0.2684 -0.2214
 5585TIP3    H138390   3.903   3.626   1.692  0.5103 -1.1460  1.6353
 5585TIP3    H238391   3.934   3.760   1.756 -0.0887 -0.6562  0.9187
 5586TIP3   OH238392   4.329   2.430   1.503 -0.2539 -0.7343 -0.1139
 5586TIP3    H138393   4.351   2.338   1.519 -0.1543 -0.5316  1.0046
 5586TIP3    H238394   4.372   2.451   1.420  3.0618 -0.6177  1.4595
 5587TIP3   OH238395   5.334   4.533   7.010  0.0026 -0.2450  0.4994
 5587TIP3    H138396   5.242   4.537   6.984  0.3755  2.1669 -0.6689
 5587TIP3    H238397   5.370   4.459   6.961 -0.6761  0.5710 -1.2955
 5588TIP3   OH238398   6.435   2.033   1.164  0.1471  0.7252 -0.9817
 5588TIP3    H138399   6.405   2.067   1.249 -0.8258  1.2308 -1.5069
 5588TIP3    H238400   6.386   2.084   1.100 -0.3138 -0.7345 -1.8260
 5589TIP3   OH238401   1.108   6.378   7.347  0.3624  0.0373 -0.4712
 5589TIP3    H138402   1.172   6.442   7.378  0.9772 -1.1266  0.7881
 5589TIP3    H238403   1.108   6.310   7.415 -1.0305 -0.7833 -1.2495
 5590TIP3   OH238404   1.198   0.951   8.398  0.4192  0.0981 -0.1244
 5590TIP3    H138405   1.226   0.910   8.316 -0.7699 -1.5512  0.2245
 5590TIP3    H238406   1.279   0.964   8.448  1.1921  1.4310 -1.6587
 5591TIP3   OH238407   1.337   0.554   0.471  0.0559  0.0199 -0.1161
 5591TIP3    H138408   1.409   0.524   0.415  0.7047 -0.3029  0.8692
 5591TIP3    H238409   1.345   0.650   0.470  0.0131  0.0214 -0.6318
 5592TIP3   OH238410   3.888   1.771   7.989  0.2085 -0.0496 -0.2716
 5592TIP3    H138411   3.962   1.713   8.007  0.5280  0.0833 -1.1346
 5592TIP3    H238412   3.829   1.757   8.063  2.2895  1.8215  1.9241
 5593TIP3   OH238413   4.180   5.183   0.703 -0.2631 -0.1705  0.2172
 5593TIP3    H138414   4.132   5.137   0.634 -0.8621  0.0917  0.4482
 5593TIP3    H238415   4.146   5.273   0.700 -1.3501 -0.4845  1.7682
 5594TIP3   OH238416   3.528   1.889   7.365 -0.2883 -0.2003 -0.4669
 5594TIP3    H138417   3.559   1.815   7.416 -1.0603  0.0839  0.4459
 5594TIP3    H238418   3.433   1.891   7.379 -0.6709 -0.6121 -2.5948
 5595TIP3   OH238419   4.753   0.569   0.822  0.5389 -1.1431  0.0033
 5595TIP3    H138420   4.759   0.548   0.729  2.9688 -0.4509 -0.0626
 5595TIP3    H238421   4.676   0.626   0.829  1.4432  0.4448 -1.9634
 5596TIP3   OH238422   4.789   3.858   7.306 -0.0386  0.2210 -0.2013
 5596TIP3    H138423   4.810   3.856   7.400 -1.5876  1.1285  0.2049
 5596TIP3    H238424   4.848   3.794   7.267 -0.7418 -1.7102  1.6770
 5597TIP3   OH238425   6.765   2.539   0.423 -0.7768 -0.0351 -0.2820
 5597TIP3    H138426   6.699   2.509   0.486  0.4692 -2.4497  0.0084
 5597TIP3    H238427   6.764   2.471   0.355  1.1880  0.0085 -0.3942
 5598TIP3   OH238428   6.378   2.480   6.747  0.3569 -0.3388 -0.3672
 5598TIP3    H138429   6.471   2.472   6.769  0.1156 -2.2223  0.0705
 5598TIP3    H238430   6.370   2.569   6.712  2.1414  0.1870  0.4216
 5599TIP3   OH238431   5.196   4.451   8.257 -0.0473  0.4321 -0.6372
 5599TIP3    H138432   5.143   4.472   8.181 -1.3973 -1.8657 -0.4186
 5599TIP3    H238433   5.281   4.426   8.221 -1.4565 -3.3308 -1.7869
 5600TIP3   OH238434   1.765   2.746   1.248 -0.4142 -0.0448 -0.5910
 5600TIP3    H138435   1.834   2.692   1.286 -0.2754 -0.0539 -0.8568
 5600TIP3    H238436   1.799   2.773   1.163 -0.4595  0.5104 -0.4340
 5601TIP3   OH238437   1.876   0.503   0.595  0.1369  0.3533  0.3388
 5601TIP3    H138438   1.826   0.540   0.522 -0.8622 -1.2785  0.1523
 5601TIP3    H238439   1.967   0.525   0.575 -0.1152 -0.0288 -1.3965
 5602TIP3   OH238440   3.199   6.794   0.872 -0.4041 -0.7819  0.2916
 5602TIP3    H138441   3.276   6.738   0.880 -0.8396 -1.7081 -1.4610
 5602TIP3    H238442   3.199   6.847   0.952  2.6290  0.0185 -0.1135
 5603TIP3   OH238443   3.961   4.690   0.729 -0.0994  0.0036  0.2096
 5603TIP3    H138444   3.894   4.622   0.727  0.9025 -1.0754  1.3929
 5603TIP3    H238445   3.927   4.756   0.789 -1.3274  0.8666 -1.3721
 5604TIP3   OH238446   1.809   0.748   7.055  0.3599 -0.3213  0.1023
 5604TIP3    H138447   1.790   0.667   7.102  1.3075 -0.6610 -0.0920
 5604TIP3    H238448   1.831   0.719   6.966  0.2825  0.1883 -0.0872
 5605TIP3   OH238449   3.102   5.970   1.262  0.0429 -0.0437  0.2938
 5605TIP3    H138450   3.172   6.025   1.296  1.0734 -1.1253 -0.0201
 5605TIP3    H238451   3.065   5.928   1.340 -0.3538  0.6064  0.4700
 5606TIP3   OH238452   2.106   0.899   6.638  0.0090 -0.7719  0.4002
 5606TIP3    H138453   2.070   0.823   6.591  2.0282 -1.1957 -0.5719
 5606TIP3    H238454   2.175   0.932   6.580 -0.3455  1.4000  1.1430
 5607TIP3   OH238455   0.135   2.540   0.465  0.0720 -0.0426  0.1676
 5607TIP3    H138456   0.142   2.455   0.507  0.2908  0.4781  1.2124
 5607TIP3    H238457   0.041   2.548   0.444 -0.0803 -0.2180  0.7552
 5608TIP3   OH238458   5.653   1.474   0.106 -0.1244  0.2202 -0.1513
 5608TIP3    H138459   5.609   1.541   0.054 -0.0132  1.7290  1.5876
 5608TIP3    H238460   5.584   1.440   0.164  0.0880 -0.3643 -0.2354
 5609TIP3   OH238461   4.939   6.104   7.290  0.2667 -0.2497  0.4354
 5609TIP3    H138462   4.889   6.074   7.367  0.4827 -0.3043  0.5551
 5609TIP3    H238463   4.991   6.177   7.322  0.4821 -0.3777  0.3824
 5610TIP3   OH238464   1.098   6.713   8.121  0.3667  0.2647  0.4861
 5610TIP3    H138465   1.003   6.699   8.127  0.1306  1.7237  0.5010
 5610TIP3    H238466   1.117   6.708   8.028 -0.0057  1.5311  0.3261
 5611TIP3   OH238467   1.920   2.601   7.531  0.2223  0.4904 -0.2851
 5611TIP3    H138468   1.927   2.509   7.507 -0.4357  0.6851 -1.2866
 5611TIP3    H238469   1.852   2.603   7.598  0.6763  0.1737  0.1859
 5612TIP3   OH238470   1.842   2.026   0.446  0.5617 -0.3866  0.4526
 5612TIP3    H138471   1.784   1.969   0.396  0.0383 -1.6422  2.3498
 5612TIP3    H238472   1.783   2.079   0.500  1.1098  0.2172  0.4662
 5613TIP3   OH238473   3.887   0.857   2.121 -0.3203  0.5651  0.0662
 5613TIP3    H138474   3.831   0.930   2.093 -1.4933  0.3162  1.6298
 5613TIP3    H238475   3.934   0.890   2.198  0.1743  0.1051 -0.0326
 5614TIP3   OH238476   0.737   2.201   8.674 -0.0134  0.1338  0.5628
 5614TIP3    H138477   0.810   2.184   8.614 -0.8686 -1.0326 -0.1894
 5614TIP3    H238478   0.732   2.297   8.678  2.9635  0.3443  2.4403
 5615TIP3   OH238479   5.771   3.843   7.623 -0.0799 -0.3211 -0.2393
 5615TIP3    H138480   5.828   3.771   7.649 -0.5901 -0.4745  0.4858
 5615TIP3    H238481   5.830   3.911   7.590  0.5473 -0.2972  0.9085
 5616TIP3   OH238482   5.329   5.412   1.097  0.2335 -0.3079  0.6815
 5616TIP3    H138483   5.306   5.322   1.074  1.3382 -0.4420  0.0929
 5616TIP3    H238484   5.410   5.404   1.147  0.3803  0.3707  0.5564
 5617TIP3   OH238485   2.802   0.647   7.177 -0.2149 -0.0324  0.0056
 5617TIP3    H138486   2.766   0.559   7.182 -2.4082  0.8438  1.2011
 5617TIP3    H238487   2.896   0.634   7.164  0.3578 -2.6797  4.5984
 5618TIP3   OH238488   5.358   3.441   0.661 -0.6913  0.2613 -0.1296
 5618TIP3    H138489   5.431   3.483   0.705 -0.0365 -0.3761 -0.5909
 5618TIP3    H238490   5.347   3.357   0.707 -0.5484 -0.0363 -0.6254
 5619TIP3   OH238491   3.350   3.982   6.537  0.0623  0.1461  0.3761
 5619TIP3    H138492   3.378   4.010   6.450  1.6030 -0.5572  0.6221
 5619TIP3    H238493   3.295   3.906   6.522 -1.9778  1.6143 -0.1198
 5620TIP3   OH238494   6.096   2.481   2.331  0.0139  0.0969  0.1670
 5620TIP3    H138495   6.179   2.483   2.284 -0.7371 -0.8629 -1.2715
 5620TIP3    H238496   6.059   2.395   2.311 -0.5849 -0.1746  2.1651
 5621TIP3   OH238497   1.141   4.389   8.289 -0.4139  0.4094 -0.5862
 5621TIP3    H138498   1.081   4.415   8.218 -0.8261 -1.2327 -0.8746
 5621TIP3    H238499   1.083   4.351   8.356  0.1490  0.4465 -0.0694
 5622TIP3   OH238500   0.513   4.215   1.899  0.3823 -0.3374 -0.0407
 5622TIP3    H138501   0.417   4.210   1.895  0.0505  1.8645  2.4289
 5622TIP3    H238502   0.535   4.180   1.985  1.9215 -1.4241 -0.8284
 5623TIP3   OH238503   4.359   1.785   1.717 -0.2011  0.2801 -0.1871
 5623TIP3    H138504   4.279   1.770   1.767  0.6293  0.5285  1.2591
 5623TIP3    H238505   4.380   1.877   1.734 -0.9798  0.9941 -2.6456
 5624TIP3   OH238506   2.714   3.373   8.030 -0.1594 -0.1440  0.1791
 5624TIP3    H138507   2.684   3.325   7.952  0.1565  0.0860 -0.0886
 5624TIP3    H238508   2.731   3.305   8.095 -0.5338 -0.3304  0.0874
 5625TIP3   OH238509   6.469   0.999   6.741  0.1332 -0.7963  0.2666
 5625TIP3    H138510   6.400   0.933   6.729  0.7124 -1.5950  1.1407
 5625TIP3    H238511   6.546   0.948   6.766  0.6928  0.1918  0.5879
 5626TIP3   OH238512   1.103   0.003   0.332  0.4138  0.0855  0.0528
 5626TIP3    H138513   1.198  -0.001   0.320  0.4268  0.8617 -0.1434
 5626TIP3    H238514   1.067  -0.016   0.245  0.4139  0.8772 -0.1240
 5627TIP3   OH238515   6.168   0.275   0.474 -0.1093 -0.0777  0.1716
 5627TIP3    H138516   6.159   0.351   0.417  0.1671 -0.7088 -0.7370
 5627TIP3    H238517   6.248   0.232   0.444  1.0618  0.5394  2.2129
 5628TIP3   OH238518   6.533   0.015   7.303 -0.2738  0.3603  0.4060
 5628TIP3    H138519   6.613   0.055   7.270 -0.4763  0.6868  0.3095
 5628TIP3    H238520   6.478   0.003   7.225 -0.9130  1.4971  0.6679
 5629TIP3   OH238521   5.910   0.446   1.012 -0.7488  0.5734 -0.1458
 5629TIP3    H138522   5.903   0.541   1.022 -0.4317  0.6101 -0.2812
 5629TIP3    H238523   5.862   0.410   1.087  1.5901  0.8486  1.5692
 5630TIP3   OH238524   4.390   1.113   7.966  0.0373 -0.3402  0.1133
 5630TIP3    H138525   4.479   1.083   7.948  0.4545  0.9310 -0.0830
 5630TIP3    H238526   4.334   1.039   7.943  0.9734 -0.8161 -0.7214
 5631TIP3   OH238527   2.154   4.429   1.048  0.0911  0.5352 -0.0325
 5631TIP3    H138528   2.124   4.484   1.121 -3.9615 -1.4761  0.0498
 5631TIP3    H238529   2.125   4.475   0.970 -0.2960  0.1547 -0.1150
 5632TIP3   OH238530   1.394   2.265   7.335  0.2521  0.3290 -0.1023
 5632TIP3    H138531   1.360   2.175   7.333 -0.5311  0.6071  0.3063
 5632TIP3    H238532   1.487   2.255   7.314  0.3322 -0.6634  0.6156
 5633TIP3   OH238533   6.456   2.381   1.082  0.3392 -0.5848 -0.3901
 5633TIP3    H138534   6.405   2.313   1.126  1.0202 -0.6211  0.3741
 5633TIP3    H238535   6.397   2.456   1.079 -0.3750 -1.1600 -1.1396
 5634TIP3   OH238536   4.267   6.764   6.703  0.1218 -0.1787  0.0074
 5634TIP3    H138537   4.204   6.828   6.737 -0.0628  0.0969 -0.8322
 5634TIP3    H238538   4.320   6.741   6.779 -0.7565 -0.1416  0.6592
 5635TIP3   OH238539   4.413   0.858   1.901  0.5450  0.4342 -0.2848
 5635TIP3    H138540   4.347   0.821   1.959 -0.7867  1.2368 -1.2405
 5635TIP3    H238541   4.425   0.792   1.833  2.5012 -0.7470  1.1044
 5636TIP3   OH238542   5.652   6.423   0.423 -0.2341  0.2621 -0.0088
 5636TIP3    H138543   5.623   6.421   0.514 -1.5165  0.8247 -0.3805
 5636TIP3    H238544   5.721   6.489   0.421  1.3933 -1.3353  0.9581
 5637TIP3   OH238545   4.695   0.110   2.085  0.3271  0.0440 -0.1988
 5637TIP3    H138546   4.738   0.028   2.112 -1.3958 -0.9983 -0.4349
 5637TIP3    H238547   4.609   0.082   2.054  0.3084  1.7816 -1.8954
 5638TIP3   OH238548   1.538   5.958   7.398 -0.5253  0.0476 -0.2061
 5638TIP3    H138549   1.495   5.873   7.388 -0.9167  0.3982 -1.7159
 5638TIP3    H238550   1.629   5.936   7.415 -0.9011 -0.6762  1.0780
 5639TIP3   OH238551   4.219   2.315   6.876  0.1571 -0.0217  0.0663
 5639TIP3    H138552   4.293   2.302   6.816  0.0794  0.8993 -0.2544
 5639TIP3    H238553   4.144   2.280   6.829  0.3443 -0.7284  0.2859
 5640TIP3   OH238554   0.086   5.231   7.434  0.1162 -0.3380  0.3695
 5640TIP3    H138555   0.110   5.284   7.509 -0.7880 -0.6998  0.9291
 5640TIP3    H238556   0.107   5.141   7.460  0.1571 -0.4271  0.0408
 5641TIP3   OH238557   1.124   6.187   7.533  0.3317  0.2298  0.2024
 5641TIP3    H138558   1.195   6.129   7.507 -0.7723 -0.4722 -1.4321
 5641TIP3    H238559   1.075   6.138   7.599  0.5125  0.1037  0.2437
 5642TIP3   OH238560   0.458   0.905   1.939  0.0168  0.1234  0.5616
 5642TIP3    H138561   0.514   0.979   1.964 -1.5529  1.8026 -0.6519
 5642TIP3    H238562   0.376   0.920   1.986 -0.2886 -0.9261  0.3882
 5643TIP3   OH238563   5.775   6.000   8.012 -0.1498  0.8059 -0.0794
 5643TIP3    H138564   5.690   6.030   7.980  0.4862  2.0986 -0.6410
 5643TIP3    H238565   5.833   6.075   8.000  0.8879  0.2205  1.0615
 5644TIP3   OH238566   3.507   0.850   1.042  0.5839 -0.2385 -0.4532
 5644TIP3    H138567   3.538   0.760   1.032 -0.7895 -0.6837 -0.8183
 5644TIP3    H238568   3.580   0.903   1.010  1.9474 -1.1443  1.0220
 5645TIP3   OH238569   2.189   4.178   8.048  0.0452  0.0702 -0.2572
 5645TIP3    H138570   2.128   4.164   8.120  0.9455  1.1943  0.7557
 5645TIP3    H238571   2.259   4.231   8.085  1.5314 -0.9549 -1.4485
 5646TIP3   OH238572   3.275   5.514   8.506 -0.1393 -0.0554  0.4172
 5646TIP3    H138573   3.344   5.470   8.557  0.2850 -0.2671 -0.3227
 5646TIP3    H238574   3.193   5.477   8.539  0.1708 -0.7947  0.3822
 5647TIP3   OH238575   4.934   3.978   2.410 -0.0495 -0.2997 -0.2195
 5647TIP3    H138576   4.932   4.028   2.491  0.5771  0.1279 -0.4578
 5647TIP3    H238577   4.849   3.934   2.407  0.2198 -0.9487  1.0431
 5648TIP3   OH238578   5.013   5.311   6.464 -0.7257 -0.0727 -0.1663
 5648TIP3    H138579   4.933   5.294   6.513  0.2717 -0.9930  1.2207
 5648TIP3    H238580   5.067   5.233   6.477  1.5438  1.6231  1.3278
 5649TIP3   OH238581   2.855   3.902   1.568 -0.0076  0.1096 -0.2813
 5649TIP3    H138582   2.764   3.873   1.570  0.2822 -0.7942  0.0015
 5649TIP3    H238583   2.858   3.974   1.631 -0.2299 -0.7426  0.7302
 5650TIP3   OH238584   6.212   6.769   1.637  0.1527 -0.3386 -0.0917
 5650TIP3    H138585   6.225   6.833   1.707  1.5847 -2.7553  2.0224
 5650TIP3    H238586   6.119   6.749   1.639 -0.0489  0.5816  0.2208
 5651TIP3   OH238587   5.415   0.142   7.934 -0.1112 -0.3168 -0.3894
 5651TIP3    H138588   5.430   0.092   7.854  0.8513 -0.8862  0.1225
 5651TIP3    H238589   5.493   0.197   7.943 -1.3603  1.6940 -1.2056
 5652TIP3   OH238590   3.433   0.999   2.326 -0.9059  0.1846  0.1963
 5652TIP3    H138591   3.350   0.970   2.289 -1.1506  1.0273  0.0778
 5652TIP3    H238592   3.440   1.091   2.302  1.3137 -0.4526 -2.1298
 5653TIP3   OH238593   3.301   1.592   7.377 -0.2190  0.4772 -0.6893
 5653TIP3    H138594   3.383   1.571   7.421 -0.0385  0.4274 -1.0432
 5653TIP3    H238595   3.233   1.560   7.436 -0.0071  1.2773  0.0027
 5654TIP3   OH238596   1.212   4.670   0.562  0.2796  0.6495  0.4431
 5654TIP3    H138597   1.303   4.699   0.556 -0.1842  2.0846 -0.0723
 5654TIP3    H238598   1.211   4.608   0.634  1.6140  0.8244  0.6352
 5655TIP3   OH238599   6.395   0.115   8.145  0.4834 -0.1407 -0.1047
 5655TIP3    H138600   6.484   0.082   8.157 -0.2503 -2.2731 -0.0797
 5655TIP3    H238601   6.369   0.147   8.232  0.1701 -2.4483  0.7361
 5656TIP3   OH238602   3.288   2.128   1.844  0.7015  0.2926  0.1041
 5656TIP3    H138603   3.342   2.050   1.848 -0.2082 -0.3165  1.0905
 5656TIP3    H238604   3.206   2.103   1.887 -0.3191  1.2293 -1.1998
 5657TIP3   OH238605   3.124   0.359   1.517  0.3996 -0.3013 -0.1082
 5657TIP3    H138606   3.217   0.373   1.499  1.0044  1.2650  3.4926
 5657TIP3    H238607   3.113   0.264   1.513  2.0241 -0.4845 -1.0226
 5658TIP3   OH238608   5.709   2.001   7.380  0.5363 -0.4887 -0.1386
 5658TIP3    H138609   5.641   1.949   7.337  2.1689 -1.3003 -1.8956
 5658TIP3    H238610   5.662   2.075   7.418 -1.3761 -1.2623 -0.8562
 5659TIP3   OH238611   3.732   3.223   6.690  0.6141 -0.2193  0.1870
 5659TIP3    H138612   3.637   3.211   6.697  0.5792 -0.6290 -0.7390
 5659TIP3    H238613   3.769   3.159   6.751  0.2983 -0.4606  0.1312
 5660TIP3   OH238614   1.569   1.078   8.272  0.0639  0.3522 -0.0128
 5660TIP3    H138615   1.577   1.152   8.331 -1.2089  1.2862 -0.9396
 5660TIP3    H238616   1.551   1.003   8.330 -0.3897  1.0951  0.8360
 5661TIP3   OH238617   3.365   1.335   8.161 -0.2465  0.7528  0.5292
 5661TIP3    H138618   3.412   1.316   8.242 -1.0700  1.4995  1.1985
 5661TIP3    H238619   3.339   1.427   8.168  2.1691  1.7466 -1.8766
 5662TIP3   OH238620   0.314   1.780   1.289  0.8200  0.1512  0.6721
 5662TIP3    H138621   0.308   1.857   1.347  0.2826 -0.5487  1.5721
 5662TIP3    H238622   0.241   1.789   1.229  0.9254  0.4916  0.5932
 5663TIP3   OH238623   3.151   5.392   0.325 -0.0597 -0.2355 -0.2272
 5663TIP3    H138624   3.110   5.461   0.272  2.1656  0.7979 -0.7040
 5663TIP3    H238625   3.090   5.378   0.397 -0.9535  1.6877 -0.5418
 5664TIP3   OH238626   2.702   6.361   7.613 -0.1053 -0.3943  0.0681
 5664TIP3    H138627   2.766   6.431   7.594 -0.4876  0.4535  1.7049
 5664TIP3    H238628   2.736   6.319   7.692 -1.5659  0.1041  0.9985
 5665TIP3   OH238629   6.262   6.892   0.795  0.0751  0.0557 -0.1632
 5665TIP3    H138630   6.349   6.874   0.832 -0.1217 -0.0811  0.2393
 5665TIP3    H238631   6.209   6.915   0.871 -1.5701 -4.6102  0.4506
 5666TIP3   OH238632   1.334   0.875   0.768  0.5941 -0.0415 -0.4371
 5666TIP3    H138633   1.396   0.817   0.723 -0.2350  0.1520 -1.8774
 5666TIP3    H238634   1.381   0.958   0.776  1.1904 -0.4281  0.1715
 5667TIP3   OH238635   5.511   5.958   0.042 -0.0795  1.0226 -0.4672
 5667TIP3    H138636   5.471   6.043   0.059  2.9723  2.3802  0.5866
 5667TIP3    H238637   5.472   5.929  -0.041 -1.5568  3.1865 -0.5932
 5668TIP3   OH238638   4.418   4.832   8.659  0.0653  0.0628 -0.0059
 5668TIP3    H138639   4.499   4.800   8.700  0.4366 -0.0352 -0.8008
 5668TIP3    H238640   4.375   4.754   8.625 -0.7087  0.0336  0.9858
 5669TIP3   OH238641   4.938   0.519   1.733 -0.1312 -0.1166  0.2598
 5669TIP3    H138642   4.947   0.539   1.639  1.2449 -0.9662  0.1765
 5669TIP3    H238643   4.847   0.537   1.753 -0.7170 -0.9253 -1.4966
 5670TIP3   OH238644   2.468   0.437   8.231 -0.0778 -0.6936 -0.3681
 5670TIP3    H138645   2.408   0.364   8.215 -0.6345 -0.6678  1.4197
 5670TIP3    H238646   2.547   0.396   8.265  0.4884 -0.6225 -1.5487
 5671TIP3   OH238647   5.091   6.003   1.324 -0.1453  0.2805 -0.0484
 5671TIP3    H138648   5.067   5.910   1.324  0.4876  0.0843  1.4949
 5671TIP3    H238649   5.084   6.029   1.416  3.6873  0.6634  0.2915
 5672TIP3   OH238650   1.231   4.436   2.594 -0.0154 -0.5951 -0.2554
 5672TIP3    H138651   1.143   4.416   2.562 -0.0865 -0.0455 -0.4101
 5672TIP3    H238652   1.240   4.530   2.582  0.3931 -0.5635  0.2677
 5673TIP3   OH238653   5.198   5.194   8.346 -0.1084  0.1079  0.2624
 5673TIP3    H138654   5.263   5.128   8.323  0.0151 -0.1403  1.2735
 5673TIP3    H238655   5.115   5.145   8.350 -0.6544  0.6575 -2.3431
 5674TIP3   OH238656   5.648   1.060   8.271  0.0462 -0.4060 -0.2788
 5674TIP3    H138657   5.705   1.084   8.344 -1.8415 -0.6528  1.3519
 5674TIP3    H238658   5.659   0.966   8.262 -2.2473 -1.0087  2.0824
 5675TIP3   OH238659   1.852   6.596   7.675 -0.5262 -0.1527  0.3001
 5675TIP3    H138660   1.775   6.647   7.701  0.9365  0.9344  2.9757
 5675TIP3    H238661   1.844   6.514   7.724  0.7606  0.6603  1.9799
 5676TIP3   OH238662   6.538   2.109   7.004  0.2239  0.0810  0.0783
 5676TIP3    H138663   6.553   2.171   7.075 -0.7530 -0.7861  1.0855
 5676TIP3    H238664   6.489   2.159   6.939  2.0929  1.2020 -0.5232
 5677TIP3   OH238665   0.276   2.011   8.551  0.1390 -0.2688 -0.5900
 5677TIP3    H138666   0.213   2.048   8.490 -2.3841 -1.9298  0.8536
 5677TIP3    H238667   0.332   2.085   8.575  0.2691  0.7736 -3.6364
 5678TIP3   OH238668   5.048   3.027   1.136 -0.1188 -0.4473  0.0133
 5678TIP3    H138669   4.978   3.016   1.072  0.0737 -2.4835  0.0750
 5678TIP3    H238670   5.128   3.034   1.083 -0.3718  3.1944 -0.1227
 5679TIP3   OH238671   3.735   2.353   1.549 -0.0633 -0.3199 -0.3205
 5679TIP3    H138672   3.808   2.379   1.492 -1.0198 -1.1043 -2.0022
 5679TIP3    H238673   3.776   2.330   1.632  1.4447  0.5275 -0.7900
 5680TIP3   OH238674   4.635   6.256   7.314 -0.6700  0.2586 -0.2070
 5680TIP3    H138675   4.573   6.319   7.278 -0.5627 -0.8242 -2.5211
 5680TIP3    H238676   4.630   6.181   7.254  1.5493 -0.5908  0.5503
 5681TIP3   OH238677   1.480   4.010   1.377  0.6159 -0.5977  0.1748
 5681TIP3    H138678   1.481   3.916   1.364 -1.6708 -0.5986 -0.4519
 5681TIP3    H238679   1.388   4.035   1.363  1.4750  1.9746 -1.6503
 5682TIP3   OH238680   5.220   4.996   1.699  0.6323 -0.3442  0.2307
 5682TIP3    H138681   5.170   4.937   1.643 -0.4337  2.1682 -1.6936
 5682TIP3    H238682   5.306   4.955   1.707 -0.7229 -3.2456  1.0255
 5683TIP3   OH238683   0.833   5.943   0.660  0.7825  0.0957 -0.4101
 5683TIP3    H138684   0.873   5.983   0.583  1.5273 -0.6427 -0.4281
 5683TIP3    H238685   0.759   5.894   0.625 -0.3342  1.6658 -0.3495
 5684TIP3   OH238686   0.834   0.824   6.740  0.0506 -0.2165 -0.0803
 5684TIP3    H138687   0.772   0.835   6.668  0.5513 -1.5449 -0.7425
 5684TIP3    H238688   0.794   0.872   6.813 -1.6881 -0.9060 -0.5178
 5685TIP3   OH238689   5.335   3.577   6.933 -0.0313  0.5299 -0.5382
 5685TIP3    H138690   5.335   3.647   6.997  0.2246 -0.1392  0.2137
 5685TIP3    H238691   5.362   3.619   6.851 -0.3349  1.3864 -0.2057
 5686TIP3   OH238692   4.531   5.218   7.932  0.5347 -1.0507  0.2691
 5686TIP3    H138693   4.601   5.154   7.919 -0.2027 -1.3467 -3.0624
 5686TIP3    H238694   4.460   5.188   7.875 -1.8981 -0.0629  2.5418
 5687TIP3   OH238695   4.165   2.717   6.023 -0.3852  0.1646 -0.0919
 5687TIP3    H138696   4.103   2.749   6.088 -0.7075  0.4606 -0.5372
 5687TIP3    H238697   4.242   2.772   6.034 -0.6517  0.5907 -0.3417
 5688TIP3   OH238698   6.049   5.504   6.986 -0.1763 -0.2786  0.2504
 5688TIP3    H138699   6.008   5.426   6.949 -0.3640 -0.2309  0.3579
 5688TIP3    H238700   6.120   5.470   7.041 -0.0678 -0.3607  0.0628
 5689TIP3   OH238701   4.773   3.309   7.129  0.0275 -0.2758  0.1869
 5689TIP3    H138702   4.859   3.294   7.169 -0.5963 -0.3997  1.5199
 5689TIP3    H238703   4.714   3.251   7.177 -1.0018  0.6092  0.0139
 5690TIP3   OH238704   3.043   5.931   7.499  0.0759  0.5349  0.1433
 5690TIP3    H138705   3.086   5.933   7.585 -0.6076  2.9815  0.4950
 5690TIP3    H238706   3.058   6.018   7.463 -0.4441 -0.1517 -1.8628
 5691TIP3   OH238707   2.575   5.676   8.044 -0.2858  0.1261 -0.0164
 5691TIP3    H138708   2.641   5.645   7.982 -0.4004  1.8166 -1.0237
 5691TIP3    H238709   2.496   5.689   7.992 -0.7769  0.2694  0.7422
 5692TIP3   OH238710   6.300   3.048   1.943 -0.1453  0.1250  0.2842
 5692TIP3    H138711   6.227   3.108   1.928 -2.0941 -2.3060 -0.6637
 5692TIP3    H238712   6.274   2.997   2.020  0.8669 -0.3560  0.3207
 5693TIP3   OH238713   6.490   0.264   0.752  0.0466  0.0069  1.1024
 5693TIP3    H138714   6.550   0.311   0.696 -0.7608 -0.0643  0.1562
 5693TIP3    H238715   6.411   0.318   0.754  0.4010  0.5517  3.0426
 5694TIP3   OH238716   0.207   3.246   0.227  0.3571 -0.5728 -0.1205
 5694TIP3    H138717   0.222   3.335   0.193  1.0167 -0.6079  0.0484
 5694TIP3    H238718   0.115   3.229   0.211 -0.1861  0.7886  1.3396
 5695TIP3   OH238719   4.192   3.612   1.713 -0.7115  0.4777 -0.0266
 5695TIP3    H138720   4.220   3.649   1.797 -1.6701 -1.7855  1.4113
 5695TIP3    H238721   4.271   3.609   1.660  0.1227  1.1567  1.1366
 5696TIP3   OH238722   0.537   0.660   2.036 -0.0703 -0.6337  0.2782
 5696TIP3    H138723   0.529   0.738   1.981 -1.4140 -0.0734  1.2008
 5696TIP3    H238724   0.630   0.656   2.059 -0.2594  1.9417  1.9006
 5697TIP3   OH238725   5.551   3.524   8.598 -0.0570  0.2159  0.0229
 5697TIP3    H138726   5.579   3.612   8.572 -0.0654 -0.2665 -1.7781
 5697TIP3    H238727   5.553   3.525   8.694 -1.0673  2.5023  0.0876
 5698TIP3   OH238728   0.086   3.395   7.605  0.2576  0.3696  0.1302
 5698TIP3    H138729   0.002   3.443   7.602 -1.4248 -2.3440  0.6802
 5698TIP3    H238730   0.117   3.398   7.514 -0.8841  0.7001 -0.2770
 5699TIP3   OH238731   4.665   0.421   0.042 -0.3078  0.3374 -0.2062
 5699TIP3    H138732   4.621   0.340   0.015 -0.9129  0.2887  0.8611
 5699TIP3    H238733   4.608   0.491   0.010 -0.2700  0.3233 -0.3066
 5700TIP3   OH238734   4.965   1.795   7.180  0.2340  0.2563  0.2581
 5700TIP3    H138735   4.919   1.878   7.177  1.7259  1.0962 -1.7999
 5700TIP3    H238736   5.058   1.818   7.187  0.5900 -1.2963  1.3754
 5701TIP3   OH238737   1.665   4.211   2.080  0.1049  0.6324  0.0846
 5701TIP3    H138738   1.697   4.264   2.154  0.3584 -1.1216  1.2937
 5701TIP3    H238739   1.693   4.122   2.101 -2.7470 -0.4861 -0.4498
 5702TIP3   OH238740   4.406   2.373   2.552 -0.7531  0.1140 -0.5038
 5702TIP3    H138741   4.423   2.302   2.490 -1.9321  0.5209 -1.3205
 5702TIP3    H238742   4.344   2.430   2.507  0.4468  1.8784  0.0020
 5703TIP3   OH238743   3.530   2.938   1.200 -0.1435  0.3179  0.4270
 5703TIP3    H138744   3.468   2.908   1.134 -0.3076 -0.3466  0.8705
 5703TIP3    H238745   3.476   2.956   1.277  0.1110  0.5555  0.5520
 5704TIP3   OH238746   1.787   6.034   7.040  0.0663  0.5861 -0.6658
 5704TIP3    H138747   1.694   6.034   7.064  0.5533  1.4833  1.4708
 5704TIP3    H238748   1.815   6.124   7.053  1.5924  0.0090  0.2914
 5705TIP3   OH238749   0.257   3.067   1.320 -0.1678  0.7138 -0.2931
 5705TIP3    H138750   0.204   3.060   1.400 -0.4008 -0.0593 -0.5031
 5705TIP3    H238751   0.335   3.114   1.348  1.4374 -2.5217  1.3251
 5706TIP3   OH238752   0.654   5.476   1.089 -0.0411  0.2958  0.5450
 5706TIP3    H138753   0.679   5.410   1.025  1.0073  0.9006  0.2959
 5706TIP3    H238754   0.645   5.428   1.172  0.3593 -0.2106  0.2977
 5707TIP3   OH238755   5.978   5.778   7.998  0.5395  0.1727 -0.4044
 5707TIP3    H138756   6.048   5.825   7.952  0.3428  0.3969 -0.4780
 5707TIP3    H238757   5.915   5.846   8.021  0.0116 -0.1171 -0.9524
 5708TIP3   OH238758   1.745   2.625   0.670 -0.4172  1.3507 -0.5115
 5708TIP3    H138759   1.684   2.649   0.739 -0.1789 -1.6523  0.9369
 5708TIP3    H238760   1.800   2.702   0.658 -0.5837  2.0806  2.5783
 5709TIP3   OH238761   6.568   4.190   8.333 -0.3988 -0.5877 -0.8872
 5709TIP3    H138762   6.623   4.236   8.270 -1.5996 -0.7634 -2.1149
 5709TIP3    H238763   6.507   4.257   8.365 -0.0047 -0.5762 -0.1115
 5710TIP3   OH238764   3.352   2.774   0.666  0.3938 -0.3407  0.2605
 5710TIP3    H138765   3.297   2.785   0.588 -0.8041  2.5388  1.3803
 5710TIP3    H238766   3.296   2.729   0.729  0.1700  0.3323  0.5522
 5711TIP3   OH238767   4.606   1.001   1.363  0.0893  0.0222 -0.2436
 5711TIP3    H138768   4.548   0.925   1.372  1.4488 -1.1409 -0.9742
 5711TIP3    H238769   4.605   1.042   1.450 -0.0646 -1.2848  0.3940
 5712TIP3   OH238770   0.772   0.097   0.809 -0.3966  0.6767 -0.6435
 5712TIP3    H138771   0.845   0.143   0.766  0.1652 -0.2177 -0.6874
 5712TIP3    H238772   0.722   0.060   0.736  0.0075 -0.0274 -0.5740
 5713TIP3   OH238773   2.963   4.595   1.182 -0.0736 -0.6262 -0.3665
 5713TIP3    H138774   2.892   4.630   1.129 -1.3213 -1.5697  0.6074
 5713TIP3    H238775   2.996   4.521   1.131  1.1056  0.5478 -1.4014
 5714TIP3   OH238776   6.650   6.691   1.619 -0.4946  0.0887 -0.8138
 5714TIP3    H138777   6.654   6.723   1.709 -0.1788 -1.1573 -0.3635
 5714TIP3    H238778   6.563   6.717   1.587 -1.5502 -1.4757  0.6528
 5715TIP3   OH238779   5.521   2.609   0.234 -0.2178 -0.0337  0.4996
 5715TIP3    H138780   5.528   2.526   0.281 -3.0124 -1.0626 -0.7017
 5715TIP3    H238781   5.456   2.659   0.284 -0.5185  0.3362 -0.2554
 5716TIP3   OH238782   0.888   0.582   7.601  0.3056  0.3235 -0.0637
 5716TIP3    H138783   0.891   0.672   7.633 -0.6903  0.1537  0.5412
 5716TIP3    H238784   0.795   0.563   7.591  0.5155 -0.5579 -0.4274
 5717TIP3   OH238785   5.490   0.262   0.258 -0.3874 -0.1194 -0.0382
 5717TIP3    H138786   5.584   0.279   0.250 -0.3857 -0.0899  0.0449
 5717TIP3    H238787   5.449   0.348   0.245 -0.3922 -0.0962  0.1340
 5718TIP3   OH238788   2.244   0.582   2.372 -0.4031 -0.1961 -0.0233
 5718TIP3    H138789   2.311   0.566   2.439  0.2600  1.7245 -0.1651
 5718TIP3    H238790   2.252   0.509   2.311 -0.7215 -1.7712  1.7061
 5719TIP3   OH238791   5.555   6.168   7.973 -0.9001 -0.0354 -0.1124
 5719TIP3    H138792   5.477   6.152   8.026 -0.6530 -1.1293 -0.0469
 5719TIP3    H238793   5.526   6.229   7.906 -2.2935 -1.7201 -1.1377
 5720TIP3   OH238794   3.872   0.468   0.175 -0.1353 -0.1872 -0.4457
 5720TIP3    H138795   3.913   0.508   0.252 -0.3046 -0.9033  0.0210
 5720TIP3    H238796   3.916   0.384   0.165  0.4529  0.2253 -1.6266
 5721TIP3   OH238797   0.833   4.129   0.252 -0.1466 -0.1783 -0.0899
 5721TIP3    H138798   0.927   4.121   0.237 -0.0449  0.9900 -0.2178
 5721TIP3    H238799   0.802   4.039   0.261  0.7441 -0.6725 -1.5162
 5722TIP3   OH238800   4.960   5.041   0.645  0.1144  0.0120 -0.6639
 5722TIP3    H138801   5.051   5.063   0.667  0.7896 -1.6259 -1.6461
 5722TIP3    H238802   4.924   5.121   0.608  1.2633  0.5836 -0.5835
 5723TIP3   OH238803   1.949   4.017   1.181  0.2079  0.0607 -0.1910
 5723TIP3    H138804   1.909   4.093   1.223 -1.8563 -1.0917  0.0837
 5723TIP3    H238805   1.922   4.023   1.090 -1.3605 -1.1211  0.1445
 5724TIP3   OH238806   2.718   0.581   2.527 -0.2228  0.1060  1.0847
 5724TIP3    H138807   2.624   0.573   2.516 -0.3992  1.6623  1.3482
 5724TIP3    H238808   2.747   0.493   2.553 -1.2071 -1.0874 -1.5326
 5725TIP3   OH238809   5.520   5.488   0.327 -0.0446 -0.1872 -0.1234
 5725TIP3    H138810   5.584   5.457   0.391  0.4813 -0.0149 -0.5591
 5725TIP3    H238811   5.571   5.504   0.247 -0.4047  1.1663 -0.1124
 5726TIP3   OH238812   3.123   2.913   7.363  0.5745  0.4845  0.3029
 5726TIP3    H138813   3.181   2.850   7.320  1.3339  1.2446  0.1876
 5726TIP3    H238814   3.058   2.935   7.296  0.8496  0.5090  0.0383
 5727TIP3   OH238815   4.979   5.050   8.382  0.2678 -0.3250 -0.7996
 5727TIP3    H138816   4.911   5.118   8.384  0.7533  0.2402 -2.2285
 5727TIP3    H238817   4.930   4.968   8.372 -0.2514 -0.0341 -0.6876
 5728TIP3   OH238818   6.797   5.414   0.896  0.4013  0.0888  0.8088
 5728TIP3    H138819   6.712   5.393   0.856 -0.0159  0.4484  1.4877
 5728TIP3    H238820   6.860   5.363   0.845  0.1093  1.7278 -1.3820
 5729TIP3   OH238821   1.497   0.551   2.242 -0.4706  0.1893 -0.1603
 5729TIP3    H138822   1.457   0.468   2.215 -1.1658  0.2555  0.6526
 5729TIP3    H238823   1.490   0.552   2.337  0.0905  0.9068 -0.1159
 5730TIP3   OH238824   4.243   0.740   8.340 -0.8866 -0.1230 -0.7397
 5730TIP3    H138825   4.302   0.691   8.283 -1.0301 -1.3483  0.1429
 5730TIP3    H238826   4.159   0.737   8.295 -0.6164  0.3975 -1.2948
 5731TIP3   OH238827   3.967   4.305   2.490 -0.1932  0.2056  0.1026
 5731TIP3    H138828   4.028   4.374   2.464 -1.8051  1.8339  0.4438
 5731TIP3    H238829   3.886   4.351   2.514 -0.9850 -1.7087  1.4460
 5732TIP3   OH238830   5.233   2.588   8.390 -0.0842 -0.1241  0.5288
 5732TIP3    H138831   5.244   2.640   8.470 -0.0571 -0.8942  1.0327
 5732TIP3    H238832   5.239   2.497   8.419  1.9572 -0.4304 -0.6240
 5733TIP3   OH238833   4.161   1.758   8.366  0.6153 -0.1116  0.0630
 5733TIP3    H138834   4.070   1.778   8.343  0.3793  0.8141  1.6379
 5733TIP3    H238835   4.212   1.792   8.293 -0.1564  1.8082  0.3528
 5734TIP3   OH238836   6.595   1.403   2.046 -0.0254  0.0377  0.0263
 5734TIP3    H138837   6.533   1.374   1.979  1.3660 -1.2540 -0.7470
 5734TIP3    H238838   6.654   1.329   2.060 -0.0065  0.4140  2.4113
 5735TIP3   OH238839   3.228   3.803   0.798  0.0351  0.0851 -0.0305
 5735TIP3    H138840   3.241   3.710   0.780  3.2106  1.0305 -3.8392
 5735TIP3    H238841   3.231   3.809   0.894  2.5083 -3.4575  0.3212
 5736TIP3   OH238842   2.501   1.392   8.007  0.5496 -0.2717  0.2086
 5736TIP3    H138843   2.580   1.441   8.029 -0.3779  1.3603  0.0535
 5736TIP3    H238844   2.497   1.394   7.911  0.7265 -1.0512  0.1754
 5737TIP3   OH238845   4.911   5.600   1.847  0.6804  0.5449  0.3649
 5737TIP3    H138846   4.987   5.642   1.806  0.3279 -0.6197 -1.6449
 5737TIP3    H238847   4.839   5.616   1.785 -0.8118  1.7491  2.2855
 5738TIP3   OH238848   2.834   2.822   1.644  0.0579  0.5290  0.2690
 5738TIP3    H138849   2.842   2.848   1.736  0.4200 -0.0404  0.4103
 5738TIP3    H238850   2.746   2.786   1.637  1.2014 -2.9082  1.3714
 5739TIP3   OH238851   1.360   2.821   1.608  0.0284  0.0416 -0.2771
 5739TIP3    H138852   1.436   2.769   1.634 -0.7582 -0.1307  1.8408
 5739TIP3    H238853   1.364   2.899   1.664 -0.5928  0.7230 -1.1466
 5740TIP3   OH238854   4.063   6.152   0.730  0.2424 -0.4400 -0.2167
 5740TIP3    H138855   4.063   6.138   0.635  0.1407 -1.8279 -0.0273
 5740TIP3    H238856   4.116   6.231   0.742 -0.8400  0.5356 -1.5219
 5741TIP3   OH238857   4.518   6.418   7.771  0.3086 -0.3802  0.3340
 5741TIP3    H138858   4.570   6.454   7.843  0.5226  0.8312 -0.3992
 5741TIP3    H238859   4.529   6.481   7.700 -2.0636 -0.1219  0.1155
 5742TIP3   OH238860   3.729   4.550   0.847  0.2444 -0.0514 -0.1533
 5742TIP3    H138861   3.669   4.479   0.868  0.0044  0.0431 -0.4867
 5742TIP3    H238862   3.700   4.623   0.902  0.9803 -0.4332  0.7570
 5743TIP3   OH238863   5.766   3.079   6.477  0.6751  0.3332  0.3161
 5743TIP3    H138864   5.847   3.116   6.513  0.9768 -0.6366  0.6643
 5743TIP3    H238865   5.744   3.007   6.536 -1.2086  1.4122  1.0032
 5744TIP3   OH238866   1.957   1.760   8.273  0.7521  0.6423  0.1175
 5744TIP3    H138867   2.043   1.802   8.280  1.2866 -0.4724  0.4518
 5744TIP3    H238868   1.938   1.730   8.362  0.9497 -0.8924 -0.3291
 5745TIP3   OH238869   0.838   4.712   7.765 -0.5297  0.0149 -0.7140
 5745TIP3    H138870   0.791   4.632   7.790 -0.0015  0.3376  1.5270
 5745TIP3    H238871   0.926   4.682   7.742  0.3833  0.0319  2.2617
 5746TIP3   OH238872   2.175   5.143   1.789  0.5634 -0.6328 -0.0986
 5746TIP3    H138873   2.212   5.104   1.710  0.3687 -0.0396 -0.4919
 5746TIP3    H238874   2.233   5.216   1.809 -0.8580  0.8714 -1.2491
 5747TIP3   OH238875   4.902   6.523   7.611 -0.1264  0.4724  0.1079
 5747TIP3    H138876   4.855   6.507   7.530 -0.4791  0.0205  0.3986
 5747TIP3    H238877   4.927   6.436   7.642 -0.4630  0.6022  0.7580
 5748TIP3   OH238878   5.988   4.287   0.051 -0.3924 -0.1154  0.0315
 5748TIP3    H138879   6.052   4.356   0.034 -0.3872 -0.3763 -1.0751
 5748TIP3    H238880   5.953   4.307   0.138 -0.9717  1.7568 -0.5924
 5749TIP3   OH238881   0.902   5.780   2.179 -0.6903 -0.3109 -0.5584
 5749TIP3    H138882   0.978   5.729   2.209  0.5585  1.7716  0.0116
 5749TIP3    H238883   0.858   5.723   2.116  0.0737 -2.4534  0.7387
 5750TIP3   OH238884   1.959   3.947   0.909 -0.4803  0.0199 -0.3190
 5750TIP3    H138885   1.953   3.996   0.827 -2.3293  2.7717  1.2978
 5750TIP3    H238886   1.882   3.889   0.908 -2.5175  2.4755  0.7437
 5751TIP3   OH238887   4.038   5.951   7.845  0.2353 -0.2293 -0.3598
 5751TIP3    H138888   4.108   5.933   7.782  0.4995  0.2432 -0.2095
 5751TIP3    H238889   4.035   6.047   7.850  1.2987 -0.2451  1.5236
 5752TIP3   OH238890   4.408   5.925   7.268 -0.7730  0.3087 -0.4582
 5752TIP3    H138891   4.497   5.914   7.235 -0.5545 -0.5860  0.3538
 5752TIP3    H238892   4.364   5.980   7.203  0.8746  2.3401  0.0386
 5753TIP3   OH238893   6.701   2.472   0.157  0.0430 -0.5924 -0.3563
 5753TIP3    H138894   6.780   2.527   0.162 -0.3341 -0.1382  1.1939
 5753TIP3    H238895   6.644   2.519   0.097 -0.9309  1.7145  2.1252
 5754TIP3   OH238896   5.871   2.594   1.233  0.1896  0.0310 -0.3758
 5754TIP3    H138897   5.938   2.655   1.264  0.9630 -0.7910 -0.3815
 5754TIP3    H238898   5.885   2.515   1.285  0.3871 -0.7664 -1.5941
 5755TIP3   OH238899   1.734   1.840   7.087  0.5757 -0.4547  0.2041
 5755TIP3    H138900   1.710   1.920   7.041  0.1955 -1.0025 -0.5611
 5755TIP3    H238901   1.813   1.809   7.042  0.9107 -0.3471  0.7042
 5756TIP3   OH238902   0.327   2.085   7.589  0.0908 -0.5463 -0.0141
 5756TIP3    H138903   0.276   2.102   7.509  0.1981 -0.2078 -0.0113
 5756TIP3    H238904   0.338   2.171   7.629  2.5293 -0.2397 -1.1276
 5757TIP3   OH238905   4.975   2.908   0.309 -0.6027 -0.0091  0.3210
 5757TIP3    H138906   5.011   2.863   0.386 -0.5094 -0.2620  0.1318
 5757TIP3    H238907   4.886   2.875   0.302 -0.2130 -0.9503 -0.4156
 5758TIP3   OH238908   5.905   2.479   0.969  0.4368  0.7828 -0.0236
 5758TIP3    H138909   5.890   2.517   1.056  0.0791  1.6230 -0.4382
 5758TIP3    H238910   5.968   2.538   0.928  0.8033  0.2439 -0.2457
 5759TIP3   OH238911   0.714   5.286   0.643  0.6319 -0.4786  0.1130
 5759TIP3    H138912   0.673   5.321   0.564 -0.1577 -0.6914  0.4177
 5759TIP3    H238913   0.727   5.193   0.624  1.6397 -0.2698 -0.2512
 5760TIP3   OH238914   6.338   3.098   8.185  0.0506 -0.6733 -0.2715
 5760TIP3    H138915   6.316   3.142   8.102  1.4348 -0.1496 -0.3851
 5760TIP3    H238916   6.323   3.005   8.168 -0.3046 -0.5062 -0.9042
 5761TIP3   OH238917   1.875   2.356   8.151  0.0965  0.1292  0.6363
 5761TIP3    H138918   1.919   2.307   8.221  1.1263  0.4321  0.2057
 5761TIP3    H238919   1.918   2.441   8.149  1.0187 -0.3394 -1.2645
 5762TIP3   OH238920   2.630   1.807   1.619  0.2758  0.3675 -0.4759
 5762TIP3    H138921   2.688   1.865   1.569  1.5462  0.9166  1.5036
 5762TIP3    H238922   2.570   1.867   1.664 -0.6561 -0.0956 -1.0724
 5763TIP3   OH238923   6.577   2.027   0.431  0.8140 -0.2263  0.8391
 5763TIP3    H138924   6.603   2.027   0.339  0.4388 -2.3945  0.6680
 5763TIP3    H238925   6.532   2.110   0.444  0.3072 -0.1531 -1.1120
 5764TIP3   OH238926   4.660   2.826   1.646  0.2809 -0.0508 -0.5733
 5764TIP3    H138927   4.615   2.802   1.565 -0.5894 -0.0343 -0.1166
 5764TIP3    H238928   4.724   2.757   1.660  0.1344 -0.2868 -1.0488
 5765TIP3   OH238929   5.463   0.399   7.603 -0.4978  0.5129  0.4117
 5765TIP3    H138930   5.553   0.379   7.629 -0.5929  1.5159  1.6139
 5765TIP3    H238931   5.447   0.343   7.527  0.7157 -0.6169  0.9387
 5766TIP3   OH238932   6.854   0.929   8.283 -0.2019 -0.5722  0.3353
 5766TIP3    H138933   6.876   0.999   8.345  0.6919 -0.3318 -0.2367
 5766TIP3    H238934   6.762   0.945   8.260  0.2625  1.0248 -0.5458
 5767TIP3   OH238935   2.015   2.045   7.053  0.2272 -0.5308  0.1173
 5767TIP3    H138936   2.015   1.950   7.058  0.3145 -0.5210  0.3160
 5767TIP3    H238937   1.973   2.074   7.134 -3.3001 -0.4449 -1.5620
 5768TIP3   OH238938   2.507   5.952   0.499 -0.8268 -0.4133 -0.5589
 5768TIP3    H138939   2.428   5.982   0.454 -0.9925 -0.7862 -0.5183
 5768TIP3    H238940   2.577   5.967   0.435 -1.0876 -1.1254 -1.0292
 5769TIP3   OH238941   3.661   4.779   0.993  0.3537  0.3531  0.0912
 5769TIP3    H138942   3.583   4.825   0.963  0.3128  0.4547  0.3534
 5769TIP3    H238943   3.734   4.835   0.967  0.2924  0.6730  0.6022
 5770TIP3   OH238944   2.379   4.734   1.164  0.1392  0.3873  0.0800
 5770TIP3    H138945   2.409   4.645   1.150  0.0629  0.5357 -1.1440
 5770TIP3    H238946   2.369   4.742   1.259 -0.1958 -1.0072  0.1785
 5771TIP3   OH238947   5.357   4.280   6.907  0.4692 -0.7400 -0.5041
 5771TIP3    H138948   5.358   4.316   6.818 -0.6213 -1.2321 -0.7263
 5771TIP3    H238949   5.311   4.197   6.899  0.6880 -0.9627  0.4594
 5772TIP3   OH238950   4.088   4.384   6.487 -0.8246 -0.2565  0.1840
 5772TIP3    H138951   4.056   4.474   6.474  1.8020  0.9286  1.2976
 5772TIP3    H238952   4.131   4.362   6.404  0.2392  0.3137  0.5673
 5773TIP3   OH238953   0.634   3.858   1.536 -0.3084  0.1467  0.4767
 5773TIP3    H138954   0.625   3.902   1.452  1.1091  0.2469  0.3622
 5773TIP3    H238955   0.714   3.806   1.528 -0.7768 -0.7493  1.3654
 5774TIP3   OH238956   5.937   0.911   6.605 -0.3318 -0.4766 -0.2650
 5774TIP3    H138957   5.908   0.822   6.582  1.2277 -0.6952 -1.5550
 5774TIP3    H238958   5.901   0.967   6.537 -2.1259  0.0881  1.0693
 5775TIP3   OH238959   1.216   2.468   1.033 -0.1839 -0.0649 -0.1448
 5775TIP3    H138960   1.308   2.494   1.028 -0.1860 -0.2260 -2.7390
 5775TIP3    H238961   1.185   2.476   0.943 -2.7462  0.0248  0.6799
 5776TIP3   OH238962   5.608   4.045   7.769  0.5181 -0.0557  0.7050
 5776TIP3    H138963   5.557   4.037   7.688  1.6414  0.3750 -0.0599
 5776TIP3    H238964   5.558   4.108   7.821 -0.5288 -0.7787  0.6106
 5777TIP3   OH238965   2.156   0.296   6.984 -0.3152  0.1045  0.2221
 5777TIP3    H138966   2.154   0.335   6.897 -0.6462  0.6536  0.4727
 5777TIP3    H238967   2.084   0.233   6.984 -1.7818  1.7243  0.8387
 5778TIP3   OH238968   2.803   6.474   1.241  0.0189 -0.5721  0.1016
 5778TIP3    H138969   2.734   6.418   1.205  0.5012  0.5614 -2.9040
 5778TIP3    H238970   2.877   6.414   1.256 -0.5360 -1.2487  0.2112
 5779TIP3   OH238971   4.090   3.909   1.833  0.3052  0.0933 -0.2655
 5779TIP3    H138972   4.122   3.823   1.859  1.3019  0.1752 -1.1287
 5779TIP3    H238973   4.024   3.931   1.898 -1.1181 -1.9942 -0.8808
 5780TIP3   OH238974   6.186   4.558   8.515  0.1635 -0.4545  0.5988
 5780TIP3    H138975   6.226   4.602   8.440  0.2113 -1.2109  0.1650
 5780TIP3    H238976   6.105   4.607   8.532 -0.2967 -0.7924 -0.5126
 5781TIP3   OH238977   4.602   3.072   7.459  0.2185 -0.3975 -0.0250
 5781TIP3    H138978   4.602   3.110   7.547 -1.4526 -0.8043  0.1937
 5781TIP3    H238979   4.647   2.989   7.468  0.4472 -0.2339  0.3461
 5782TIP3   OH238980   0.867   1.314   1.825 -0.1774 -0.2525  0.2240
 5782TIP3    H138981   0.841   1.405   1.836  0.1760 -0.1542  0.2537
 5782TIP3    H238982   0.813   1.282   1.753  1.2182  0.6053 -1.2902
 5783TIP3   OH238983   5.899   6.314   6.884  0.0802 -0.2106 -0.0541
 5783TIP3    H138984   5.974   6.333   6.828  0.5691 -2.7556 -0.3925
 5783TIP3    H238985   5.830   6.374   6.854  0.9828 -0.0599 -1.9588
 5784TIP3   OH238986   3.550   1.064   8.228 -0.5007  0.6376 -0.4661
 5784TIP3    H138987   3.471   1.010   8.229  0.4689 -0.8357 -0.9173
 5784TIP3    H238988   3.622   1.002   8.213  0.6257  2.0934 -1.3252
 5785TIP3   OH238989   0.500   5.710   2.131  0.3639  0.5200  0.0309
 5785TIP3    H138990   0.405   5.722   2.133  0.3223  0.1072  0.8360
 5785TIP3    H238991   0.533   5.765   2.202  0.5915 -0.3846  0.6543
 5786TIP3   OH238992   3.636   6.514   0.867  0.1704 -0.0917 -0.2749
 5786TIP3    H138993   3.578   6.518   0.791 -1.9787  0.5286  1.3067
 5786TIP3    H238994   3.643   6.420   0.886 -1.6908 -0.1432  0.4237
 5787TIP3   OH238995   5.832   6.860   8.538 -0.4873 -0.0718  0.1992
 5787TIP3    H138996   5.759   6.913   8.571 -1.1025  1.3343 -3.0842
 5787TIP3    H238997   5.792   6.798   8.478  0.9427  0.9906 -1.9989
 5788TIP3   OH238998   6.707   3.659   7.999 -0.4790 -0.0261  0.2751
 5788TIP3    H138999   6.615   3.637   8.015 -0.6393  1.2316  1.2407
 5788TIP3    H239000   6.756   3.594   8.048 -0.8396 -0.8047 -0.3773
 5789TIP3   OH239001   6.778   0.142   6.494  0.2350  0.5744 -0.3848
 5789TIP3    H139002   6.710   0.137   6.561  2.3327  1.2871  1.9762
 5789TIP3    H239003   6.860   0.152   6.544  1.7866  2.7592 -3.0825
 5790TIP3   OH239004   0.227   6.649   7.917  0.7503  0.5279 -0.1199
 5790TIP3    H139005   0.277   6.672   7.996  2.0140  1.8171 -1.2598
 5790TIP3    H239006   0.229   6.553   7.916 -1.2377  0.3182  2.5847
 5791TIP3   OH239007   1.148   0.210   6.456  0.0966 -0.0493 -0.4093
 5791TIP3    H139008   1.205   0.164   6.395  1.2274 -0.5972  1.0025
 5791TIP3    H239009   1.127   0.292   6.412  0.0950 -0.8260 -1.9127
 5792TIP3   OH239010   6.236   0.768   7.662  0.2214 -0.2887  0.1277
 5792TIP3    H139011   6.145   0.797   7.666  0.0577 -0.9175  2.1521
 5792TIP3    H239012   6.264   0.787   7.572 -2.6396 -2.3725 -1.3542
 5793TIP3   OH239013   5.991   3.728   1.001  0.6419  0.0837 -0.4708
 5793TIP3    H139014   5.953   3.766   0.922 -1.2220 -2.3848 -0.8912
 5793TIP3    H239015   6.070   3.683   0.970  1.4616  1.4156 -0.3926
 5794TIP3   OH239016   5.531   6.419   8.290 -0.4356  0.2104  0.0073
 5794TIP3    H139017   5.539   6.485   8.221  0.6724 -1.0558 -1.1400
 5794TIP3    H239018   5.504   6.339   8.245  2.4797 -1.2560  0.5758
 5795TIP3   OH239019   6.786   0.834   7.820  0.0582  0.0808 -0.1186
 5795TIP3    H139020   6.690   0.837   7.816  0.0193  1.1433  1.0035
 5795TIP3    H239021   6.808   0.881   7.901  1.5936  1.4468 -1.2575
 5796TIP3   OH239022   6.814   3.303   0.847 -0.1040  0.2502  0.2963
 5796TIP3    H139023   6.768   3.226   0.813  0.6213  0.1758 -0.5442
 5796TIP3    H239024   6.879   3.268   0.908 -2.1082  0.4447  2.7041
 5797TIP3   OH239025   3.845   4.017   6.067 -0.2820  0.2727  0.0573
 5797TIP3    H139026   3.886   3.995   5.983  0.1868 -0.1670  0.3930
 5797TIP3    H239027   3.867   4.110   6.080 -0.6890  0.4528 -0.4828
 5798TIP3   OH239028   1.322   0.735   2.714 -0.7423 -0.0838  0.3398
 5798TIP3    H139029   1.393   0.680   2.749 -0.3345  0.4039  0.2973
 5798TIP3    H239030   1.242   0.693   2.746 -0.3983  0.1170  1.5340
 5799TIP3   OH239031   3.667   3.475   1.768 -0.3251  0.5695  0.1291
 5799TIP3    H139032   3.708   3.503   1.686 -1.1898  1.7608  0.0823
 5799TIP3    H239033   3.642   3.556   1.812 -1.6574 -0.0788  0.6449
 5800TIP3   OH239034   4.776   4.537   0.885  0.1713  0.1886 -0.4872
 5800TIP3    H139035   4.777   4.459   0.941 -0.2476  0.6354  0.1623
 5800TIP3    H239036   4.863   4.539   0.845  0.6602  0.1084  0.5235
 5801TIP3   OH239037   5.902   2.873   1.710  0.0618 -0.6934  0.1524
 5801TIP3    H139038   5.850   2.901   1.785  0.4969  0.2499  0.1211
 5801TIP3    H239039   5.853   2.904   1.634 -0.8439 -2.4428 -0.0165
 5802TIP3   OH239040   3.301   4.524   1.054  0.6269  0.2065  0.3026
 5802TIP3    H139041   3.259   4.598   1.009  1.0978  0.1972 -0.1649
 5802TIP3    H239042   3.333   4.562   1.136  2.2356  0.9195 -0.6146
 5803TIP3   OH239043   0.896   2.886   7.547  0.5127  0.0683  0.3097
 5803TIP3    H139044   0.991   2.878   7.549  0.4743 -0.2046  1.4582
 5803TIP3    H239045   0.872   2.919   7.633 -0.4148  0.4203 -0.0698
 5804TIP3   OH239046   1.109   2.247   0.110 -0.1996  0.2906  0.3700
 5804TIP3    H139047   1.085   2.337   0.132  1.3866  0.7175  0.4768
 5804TIP3    H239048   1.076   2.234   0.021 -1.8078  0.4236  0.9179
 5805TIP3   OH239049   1.709   0.727   7.495 -0.2653 -0.2450  0.2794
 5805TIP3    H139050   1.725   0.744   7.588  0.7570  0.7114 -0.0559
 5805TIP3    H239051   1.656   0.801   7.466 -1.9324 -1.3294  0.4297
 5806TIP3   OH239052   4.564   2.956   0.583 -0.5972  0.1346 -0.8852
 5806TIP3    H139053   4.538   3.047   0.597  0.1662  0.0665  1.5564
 5806TIP3    H239054   4.483   2.911   0.561 -1.0103  1.3549 -2.0163
 5807TIP3   OH239055   0.122   2.764   7.273  0.0820 -0.5557 -0.5142
 5807TIP3    H139056   0.079   2.841   7.234 -0.2536 -0.8533 -0.7322
 5807TIP3    H239057   0.215   2.778   7.255  0.0547 -0.0600 -0.3094
 5808TIP3   OH239058   6.793   3.308   7.253 -0.0263 -0.1116  0.2959
 5808TIP3    H139059   6.713   3.304   7.305  0.4425 -0.8552  0.9881
 5808TIP3    H239060   6.799   3.400   7.225  0.3479  0.6340  2.6164
 5809TIP3   OH239061   3.793   1.848   1.229 -0.7553 -0.2210 -0.1391
 5809TIP3    H139062   3.808   1.893   1.146  0.3956 -0.2071  0.0526
 5809TIP3    H239063   3.877   1.806   1.248 -1.0279 -0.2789  0.9861
 5810TIP3   OH239064   5.995   0.772   8.398 -0.5927 -0.2854 -0.3701
 5810TIP3    H139065   5.932   0.723   8.453  0.9879 -0.4654  1.3947
 5810TIP3    H239066   5.989   0.862   8.430 -0.0366 -0.2906 -0.2373
 5811TIP3   OH239067   2.081   2.219   0.623 -0.0071  0.5392  0.0521
 5811TIP3    H139068   2.032   2.140   0.646 -1.2678  0.4509 -2.5515
 5811TIP3    H239069   2.037   2.289   0.671  0.7229 -0.1916  1.8790
 5812TIP3   OH239070   3.009   4.966   7.981 -0.0288 -0.2709 -0.6348
 5812TIP3    H139071   3.010   4.899   7.912  1.6224  0.4276 -1.3554
 5812TIP3    H239072   2.986   4.919   8.061 -1.0140 -1.2881 -1.4831
 5813TIP3   OH239073   0.093   3.927   8.173  0.1497  0.2292 -0.2982
 5813TIP3    H139074   0.067   3.860   8.109 -0.0350  0.1863 -0.1787
 5813TIP3    H239075   0.017   3.937   8.230  0.6345 -0.4151  0.4938
 5814TIP3   OH239076   4.206   4.787   7.446 -0.4550 -0.5388 -0.1113
 5814TIP3    H139077   4.146   4.845   7.399 -1.1608 -1.6019 -0.5827
 5814TIP3    H239078   4.149   4.736   7.504 -0.2939 -2.6210 -1.6406
 5815TIP3   OH239079   6.600   3.849   7.462 -0.0240 -0.2107  0.0171
 5815TIP3    H139080   6.588   3.754   7.456 -0.4289 -0.1658  0.0895
 5815TIP3    H239081   6.543   3.876   7.534 -0.2861  0.1539 -0.3235
 5816TIP3   OH239082   1.525   2.692   7.870 -0.3212 -0.0653 -0.0688
 5816TIP3    H139083   1.498   2.743   7.793 -0.0791 -0.8750 -0.7130
 5816TIP3    H239084   1.549   2.757   7.935  1.3015  0.6636 -1.3305
 5817TIP3   OH239085   3.803   5.298   8.451  0.5574  0.1310  0.3989
 5817TIP3    H139086   3.849   5.374   8.487 -1.2611  0.7349  1.5607
 5817TIP3    H239087   3.784   5.243   8.527 -1.5334  0.4272  0.1572
 5818TIP3   OH239088   0.569   3.528   8.062  0.4349  0.6276 -0.3493
 5818TIP3    H139089   0.543   3.529   8.154 -0.2405  0.0027 -0.5291
 5818TIP3    H239090   0.588   3.620   8.041  1.6399  0.6408  0.6981
 5819TIP3   OH239091   1.194   1.790   7.594  0.3178  0.1115  0.0779
 5819TIP3    H139092   1.257   1.862   7.604  0.6305 -0.1831  0.2608
 5819TIP3    H239093   1.110   1.828   7.620  0.4820  0.4126  0.1747
 5820TIP3   OH239094   2.418   5.645   7.001  0.2508 -0.3039 -0.6084
 5820TIP3    H139095   2.452   5.732   6.980 -1.7593  0.8274  0.4695
 5820TIP3    H239096   2.373   5.617   6.922 -0.7081  0.5311 -0.3958
 5821TIP3   OH239097   3.448   3.076   2.038  0.1110 -0.4992  0.2572
 5821TIP3    H139098   3.360   3.112   2.049  0.4163 -0.0370  1.3755
 5821TIP3    H239099   3.506   3.143   2.073  0.7917 -1.4812  1.0960
 5822TIP3   OH239100   2.460   2.179   8.114  0.6834  0.0459  0.1157
 5822TIP3    H139101   2.457   2.213   8.204  1.4279 -4.2656  2.0295
 5822TIP3    H239102   2.436   2.087   8.123  0.8279 -0.5967 -4.1813
 5823TIP3   OH239103   0.795   0.305   7.562 -0.2888  0.3251 -0.5343
 5823TIP3    H139104   0.879   0.327   7.603 -0.7170 -1.6063  1.5825
 5823TIP3    H239105   0.818   0.279   7.472  1.1770  1.1214 -0.4157
 5824TIP3   OH239106   4.185   5.260   0.307  0.2531  0.5780 -0.3671
 5824TIP3    H139107   4.216   5.186   0.359  1.5496  1.0939 -0.3589
 5824TIP3    H239108   4.265   5.301   0.274 -0.4848 -0.1944 -3.4718
 5825TIP3   OH239109   6.878   1.676   8.109 -0.2932  0.0575 -0.0058
 5825TIP3    H139110   6.874   1.769   8.086 -1.0614 -0.1082 -0.6050
 5825TIP3    H239111   6.823   1.669   8.187  0.0112  0.1513  0.2202
 5826TIP3   OH239112   4.529   2.492   8.006 -0.4892  0.2298  0.3084
 5826TIP3    H139113   4.592   2.436   8.053 -1.0103 -1.1013 -0.5211
 5826TIP3    H239114   4.584   2.560   7.966  0.5282 -1.1247 -0.7222
 5827TIP3   OH239115   1.331   4.995   0.770  0.4970  0.1121  0.3607
 5827TIP3    H139116   1.331   4.968   0.678 -0.7850 -1.6782  0.8493
 5827TIP3    H239117   1.249   5.044   0.781  0.4238 -0.0763  0.6639
 5828TIP3   OH239118   2.120   0.751   0.124 -0.0110 -0.0007 -0.1917
 5828TIP3    H139119   2.089   0.790   0.206  1.7819 -0.6109  0.8425
 5828TIP3    H239120   2.071   0.797   0.056 -0.8943  1.1757  1.1647
 5829TIP3   OH239121   2.368   5.159   6.655 -0.5380  0.1213  0.6007
 5829TIP3    H139122   2.424   5.137   6.581 -0.1791 -0.2557  0.9818
 5829TIP3    H239123   2.411   5.120   6.730 -1.0429  0.2739  0.9734
 5830TIP3   OH239124   2.199   5.574   1.581 -0.5127  0.2638  0.3316
 5830TIP3    H139125   2.263   5.637   1.615 -0.5154  0.8693 -0.7622
 5830TIP3    H239126   2.133   5.568   1.651 -0.1929  1.0000  0.7112
 5831TIP3   OH239127   2.819   5.266   8.123  0.2238  0.0075  0.0623
 5831TIP3    H139128   2.893   5.319   8.094 -0.4733 -0.4550 -2.8729
 5831TIP3    H239129   2.765   5.255   8.045 -1.5746 -1.9049  1.4567
 5832TIP3   OH239130   3.033   4.506   8.013 -0.1232  0.3380  0.1608
 5832TIP3    H139131   2.991   4.457   7.942  0.2375  1.2740 -0.7170
 5832TIP3    H239132   2.975   4.581   8.029 -0.5820 -0.2394  1.3788
 5833TIP3   OH239133   3.120   1.775   7.117  0.2058 -0.0645  0.3674
 5833TIP3    H139134   3.194   1.815   7.072  1.4019 -0.9474  1.4595
 5833TIP3    H239135   3.071   1.848   7.155 -0.3386  0.6248 -1.5671
 5834TIP3   OH239136   0.348   2.419   7.289 -0.2906 -0.1266  0.3188
 5834TIP3    H139137   0.294   2.423   7.210 -0.5299  0.2314  0.5008
 5834TIP3    H239138   0.420   2.479   7.272  0.1786 -0.7713 -0.0148
 5835TIP3   OH239139   3.312   3.033   0.211 -0.1603  0.0045  0.3899
 5835TIP3    H139140   3.272   2.948   0.230  1.8867 -1.1752 -0.2680
 5835TIP3    H239141   3.326   3.032   0.117 -0.5838  1.3274  0.2931
 5836TIP3   OH239142   0.379   0.958   1.168  0.4542  0.2337 -0.1489
 5836TIP3    H139143   0.440   0.976   1.096  0.9120 -1.0900 -0.1222
 5836TIP3    H239144   0.422   0.890   1.219 -0.3790  0.3583  0.7413
 5837TIP3   OH239145   0.004   3.923   1.632  0.1791  0.1065 -0.2127
 5837TIP3    H139146  -0.059   3.856   1.657  0.6812 -0.0666  0.6096
 5837TIP3    H239147   0.007   3.983   1.706 -0.4643  1.2104 -1.0389
 5838TIP3   OH239148   0.949   0.334   7.310 -0.1110 -0.7161  0.6121
 5838TIP3    H139149   1.006   0.396   7.356 -3.0098  1.5681  1.4413
 5838TIP3    H239150   0.978   0.338   7.219 -0.2746  2.1068  0.5948
 5839TIP3   OH239151   3.178   2.110   0.736 -0.3635 -0.9680 -0.0595
 5839TIP3    H139152   3.223   2.113   0.651  0.0844  2.1388  0.1524
 5839TIP3    H239153   3.213   2.185   0.784 -2.3980 -1.1952  1.9494
 5840TIP3   OH239154   3.225   5.329   1.395  0.1204 -0.2084 -0.3586
 5840TIP3    H139155   3.226   5.267   1.468  2.0617  0.5195  0.2978
 5840TIP3    H239156   3.202   5.275   1.318 -5.1631 -0.4836  1.0205
 5841TIP3   OH239157   2.222   6.099   0.508 -0.1477 -0.4698 -0.4697
 5841TIP3    H139158   2.253   6.189   0.499 -0.5255 -0.4285 -1.4636
 5841TIP3    H239159   2.212   6.068   0.418  0.9591 -1.8530 -0.1565
 5842TIP3   OH239160   3.487   0.798   7.640  0.0069  0.3418 -0.4914
 5842TIP3    H139161   3.561   0.817   7.583 -0.3464  2.7578 -0.2589
 5842TIP3    H239162   3.491   0.866   7.707 -1.2089 -0.7631  0.7655
 5843TIP3   OH239163   3.289   3.546   0.113  0.0447  0.2635 -0.2469
 5843TIP3    H139164   3.261   3.634   0.142  1.4738  0.3832  0.8419
 5843TIP3    H239165   3.210   3.509   0.073 -0.7856  1.7790 -0.1165
 5844TIP3   OH239166   4.433   2.719   1.532  0.4397 -0.1863 -0.2347
 5844TIP3    H139167   4.417   2.629   1.559 -0.6159  0.1735  0.4009
 5844TIP3    H239168   4.354   2.744   1.483  1.9360 -0.5517 -3.0678
 5845TIP3   OH239169   5.752   0.734   7.126  0.2308  0.3128  0.2327
 5845TIP3    H139170   5.839   0.755   7.093  0.4692  1.4204  1.4563
 5845TIP3    H239171   5.699   0.721   7.048  1.2933  0.4995 -0.5417
 5846TIP3   OH239172   2.284   0.785   0.542  0.2607 -0.1648 -0.0956
 5846TIP3    H139173   2.253   0.874   0.557  1.5442  0.3409 -0.3290
 5846TIP3    H239174   2.336   0.791   0.462  0.7807 -1.0235  0.1661
 5847TIP3   OH239175   5.768   2.872   1.948 -0.6020  0.1006  0.1084
 5847TIP3    H139176   5.693   2.933   1.949 -1.4336 -0.8349  2.5839
 5847TIP3    H239177   5.815   2.891   2.029  0.5608 -0.8797 -0.3110
 5848TIP3   OH239178   1.914   6.015   2.189  0.4824  0.7958 -0.1331
 5848TIP3    H139179   1.965   6.093   2.210 -0.2359  0.9419  1.2330
 5848TIP3    H239180   1.839   6.048   2.140  1.2802  0.6762 -1.4644
 5849TIP3   OH239181   1.484   0.617   0.202  0.5971 -0.6102 -0.1097
 5849TIP3    H139182   1.552   0.653   0.143  0.6215  0.1565  0.3720
 5849TIP3    H239183   1.459   0.691   0.256  1.6454 -1.6431  1.8894
 5850TIP3   OH239184   1.687   2.109   1.745 -0.3958  0.1416  0.3875
 5850TIP3    H139185   1.774   2.149   1.742  0.4081 -1.1268  3.2695
 5850TIP3    H239186   1.627   2.181   1.763  0.5956  0.5750  2.1492
 5851TIP3   OH239187   3.407   0.305   2.327 -0.3252  0.3666  0.7150
 5851TIP3    H139188   3.486   0.357   2.313 -0.5018  1.0664  2.1235
 5851TIP3    H239189   3.416   0.231   2.268  1.6575  0.1386  1.2224
 5852TIP3   OH239190   2.925   0.733   7.629  0.6267  0.1686  0.3276
 5852TIP3    H139191   2.936   0.815   7.676  0.2781  0.2217  0.3228
 5852TIP3    H239192   2.875   0.757   7.551  0.2545 -0.0968  0.4813
 5853TIP3   OH239193   6.441   1.761   0.399  0.2178 -0.0977 -0.4716
 5853TIP3    H139194   6.471   1.769   0.308  0.4169  0.2139 -0.3782
 5853TIP3    H239195   6.508   1.804   0.451  0.2913 -0.6107 -0.1363
 5854TIP3   OH239196   1.755   0.969   0.078  0.1520  0.1331 -0.3846
 5854TIP3    H139197   1.702   1.000   0.004 -1.6881 -1.8788 -0.0103
 5854TIP3    H239198   1.748   0.874   0.075  1.3207 -0.0687  1.4832
 5855TIP3   OH239199   4.363   5.032   7.811  0.1266 -0.1974  0.0945
 5855TIP3    H139200   4.347   5.032   7.716  1.3775 -1.0403 -0.1506
 5855TIP3    H239201   4.377   4.940   7.832  0.1778  0.0217  1.0462
 5856TIP3   OH239202   3.710   6.197   6.879  0.1679 -0.1246  0.4601
 5856TIP3    H139203   3.801   6.195   6.850 -0.3135 -0.0295 -1.1133
 5856TIP3    H239204   3.702   6.280   6.926  1.3417 -0.9641  2.2550
 5857TIP3   OH239205   4.520   2.353   6.507 -0.0367 -0.0281 -0.1642
 5857TIP3    H139206   4.559   2.404   6.436  0.9542 -0.4716  0.0470
 5857TIP3    H239207   4.513   2.265   6.472 -0.2105 -0.0983  0.0433
 5858TIP3   OH239208   6.748   1.753   8.459 -0.2788 -0.1526 -0.1506
 5858TIP3    H139209   6.657   1.749   8.430 -0.3277 -0.3116  0.0223
 5858TIP3    H239210   6.763   1.846   8.477 -0.4697 -0.1516  0.0109
 5859TIP3   OH239211   1.723   1.902   0.740  0.3719 -0.2832  0.4107
 5859TIP3    H139212   1.685   1.905   0.827  1.7205  0.0235  1.0132
 5859TIP3    H239213   1.673   1.966   0.689  0.0049  0.0115  1.1375
 5860TIP3   OH239214   2.194   0.759   2.049 -0.6767 -0.1582 -0.5109
 5860TIP3    H139215   2.123   0.695   2.051 -1.5205  0.7551 -0.5126
 5860TIP3    H239216   2.161   0.833   2.100  0.3268  0.2363 -0.4116
 5861TIP3   OH239217   6.235   1.905   7.590 -0.3263 -0.1258  0.2158
 5861TIP3    H139218   6.150   1.926   7.553  0.0545  0.0703 -0.5618
 5861TIP3    H239219   6.276   1.990   7.605  0.4631 -0.2397 -1.1621
 5862TIP3   OH239220   6.083   5.187   0.429  0.1261 -0.5856  0.2636
 5862TIP3    H139221   6.122   5.261   0.476  1.2142 -1.1418  0.2629
 5862TIP3    H239222   6.051   5.225   0.347 -2.2372  0.5036  1.5764
 5863TIP3   OH239223   1.932   4.969   7.834 -0.3962  0.4130 -0.4595
 5863TIP3    H139224   1.913   4.879   7.808  1.2501  0.0260 -0.3931
 5863TIP3    H239225   1.965   5.011   7.754  1.6401  0.1088  0.1776
 5864TIP3   OH239226   1.533   6.481   1.732 -0.2239  0.2170 -0.3140
 5864TIP3    H139227   1.470   6.533   1.781 -0.0262  2.5644 -2.3685
 5864TIP3    H239228   1.491   6.463   1.648  1.2828  0.6585 -1.2094
 5865TIP3   OH239229   1.888   2.683   1.780  0.3571  0.0641  0.6796
 5865TIP3    H139230   1.947   2.655   1.710  2.1850  0.6150  1.9214
 5865TIP3    H239231   1.911   2.775   1.795 -1.9216  0.7687  0.1861
 5866TIP3   OH239232   1.212   2.158   0.398  0.1121  0.3257  0.8372
 5866TIP3    H139233   1.184   2.206   0.321  2.1567  0.3287  0.0398
 5866TIP3    H239234   1.131   2.127   0.438 -1.0053  0.3669 -1.2823
 5867TIP3   OH239235   6.634   1.051   1.737  0.0468 -0.4892 -0.2594
 5867TIP3    H139236   6.692   1.113   1.692  0.0991 -0.9435 -0.8329
 5867TIP3    H239237   6.554   1.050   1.683 -0.5982  0.2928  0.6396
 5868TIP3   OH239238   1.299   0.324   7.691  0.2999  0.3177  0.1403
 5868TIP3    H139239   1.306   0.409   7.734  0.8167  0.1314  0.4365
 5868TIP3    H239240   1.205   0.306   7.688  0.2482  0.3723  1.1344
 5869TIP3   OH239241   2.883   3.550   1.657  0.2775  0.8937  0.5341
 5869TIP3    H139242   2.819   3.585   1.595  0.1371 -1.0466 -0.4890
 5869TIP3    H239243   2.968   3.578   1.621  0.2146 -0.4471 -0.7492
 5870TIP3   OH239244   2.127   3.020   0.385  0.7252  0.3691  0.7166
 5870TIP3    H139245   2.110   2.928   0.405 -1.8977  0.5573 -0.2607
 5870TIP3    H239246   2.222   3.025   0.373  0.7472 -2.7514 -1.6095
 5871TIP3   OH239247   2.733   1.463   7.520 -0.0823 -0.0736 -0.4332
 5871TIP3    H139248   2.798   1.411   7.473  0.8127  0.7630 -0.1668
 5871TIP3    H239249   2.652   1.452   7.470  0.7438  0.4751 -1.9537
 5872TIP3   OH239250   2.293   5.299   0.741  0.6335  0.1503 -0.0567
 5872TIP3    H139251   2.239   5.221   0.754  0.9802  0.2677  2.4139
 5872TIP3    H239252   2.230   5.372   0.745  0.8055  0.2257  1.8456
 5873TIP3   OH239253   1.948   2.953   6.299  0.2821 -0.2774  0.1341
 5873TIP3    H139254   1.923   3.046   6.298  0.5479 -0.1148  2.9566
 5873TIP3    H239255   1.869   2.908   6.269 -0.4088  0.7482  0.3391
 5874TIP3   OH239256   4.462   2.192   0.200 -0.2400  0.4594  0.4742
 5874TIP3    H139257   4.508   2.194   0.116 -1.6728  0.9164 -0.3189
 5874TIP3    H239258   4.404   2.268   0.198 -2.1023 -0.8989  0.8113
 5875TIP3   OH239259   2.269   4.675   1.735  0.2690 -0.2375 -0.2168
 5875TIP3    H139260   2.318   4.682   1.817  1.2403  0.2501 -0.8302
 5875TIP3    H239261   2.204   4.745   1.739 -0.2966 -0.7794  0.5200
 5876TIP3   OH239262   1.420   3.223   0.940 -0.4405 -0.0844 -0.4164
 5876TIP3    H139263   1.371   3.232   1.022 -1.4387 -0.9092 -0.8982
 5876TIP3    H239264   1.435   3.313   0.911  0.0413  0.2185  0.7241
 5877TIP3   OH239265   1.339   5.042   2.008 -0.1890 -0.4343 -0.1236
 5877TIP3    H139266   1.348   5.104   1.936 -0.1454 -2.3463 -1.8758
 5877TIP3    H239267   1.371   5.089   2.085  1.4222  1.1369 -1.6499
 5878TIP3   OH239268   0.092   4.254   7.601 -0.1275 -0.5358  0.0943
 5878TIP3    H139269   0.072   4.172   7.646 -1.2460 -0.6050 -0.4931
 5878TIP3    H239270   0.037   4.319   7.645 -0.1964 -0.3474 -0.2683
 5879TIP3   OH239271   4.864   3.526   1.430 -0.1583 -0.0205  0.0995
 5879TIP3    H139272   4.873   3.621   1.443  0.6113  0.3082 -2.3801
 5879TIP3    H239273   4.890   3.488   1.514  0.3631  1.9284  0.8703
 5880TIP3   OH239274   3.238   5.832   8.164 -0.0615  0.2939  0.8260
 5880TIP3    H139275   3.296   5.876   8.102 -0.8808 -0.7144 -0.7232
 5880TIP3    H239276   3.281   5.749   8.182 -1.0491 -0.5785 -0.5392
 5881TIP3   OH239277   1.160   4.919   7.827 -0.5590  0.2641 -0.0473
 5881TIP3    H139278   1.186   4.848   7.886 -1.1386  0.6752  0.7172
 5881TIP3    H239279   1.242   4.946   7.785 -0.4138 -1.2256 -0.7882
 5882TIP3   OH239280   3.500   6.726   6.767 -0.3977  0.5733 -0.4636
 5882TIP3    H139281   3.404   6.722   6.766 -0.4017  0.6591 -0.3943
 5882TIP3    H239282   3.527   6.671   6.694 -0.5087  0.8285 -0.6960
 5883TIP3   OH239283   3.899   6.377   0.459  0.4494 -0.5755  0.8262
 5883TIP3    H139284   3.890   6.345   0.549  0.2099 -2.5795  0.1374
 5883TIP3    H239285   3.825   6.338   0.413  1.9715 -1.7301 -0.7731
 5884TIP3   OH239286   1.410   1.825   1.364 -0.1730 -0.7749  0.6990
 5884TIP3    H139287   1.335   1.791   1.413  0.4292 -1.1926  1.3509
 5884TIP3    H239288   1.486   1.799   1.416  0.4438 -0.6079 -0.1004
 5885TIP3   OH239289   3.477   0.917   1.865 -0.8393 -0.0328  0.0374
 5885TIP3    H139290   3.464   0.859   1.940 -1.3464  0.3538  0.2544
 5885TIP3    H239291   3.390   0.955   1.849 -0.4606  0.8841  0.0811
 5886TIP3   OH239292   0.074   6.278   1.076  0.5080 -0.1471  0.2530
 5886TIP3    H139293   0.060   6.286   1.170  1.9946  0.2175  0.4672
 5886TIP3    H239294   0.100   6.366   1.048 -2.0025  0.3099 -0.9244
 5887TIP3   OH239295   5.574   3.419   6.923  0.3975  0.0097 -0.3043
 5887TIP3    H139296   5.482   3.443   6.927  0.3491  0.0319 -1.2951
 5887TIP3    H239297   5.575   3.336   6.875  0.8668 -0.1355 -0.0467
 5888TIP3   OH239298   1.024   3.877   0.256 -0.1904 -0.2376 -0.2160
 5888TIP3    H139299   1.023   3.834   0.171 -0.5339 -1.1453  0.2374
 5888TIP3    H239300   1.039   3.806   0.319 -2.1206  0.0794  0.6671
 5889TIP3   OH239301   6.157   5.470   7.950 -0.1551  0.0724 -0.1713
 5889TIP3    H139302   6.166   5.403   8.018 -0.7270  0.5664  0.3987
 5889TIP3    H239303   6.212   5.543   7.980 -0.9401  0.5578  0.1136
 5890TIP3   OH239304   5.848   6.552   7.487 -0.1108  0.1653  0.4355
 5890TIP3    H139305   5.795   6.493   7.540 -0.9288 -1.1273 -1.6817
 5890TIP3    H239306   5.917   6.496   7.451 -0.5297  0.5954 -1.1057
 5891TIP3   OH239307   4.784   6.836   6.329  0.1497  0.5082  0.1563
 5891TIP3    H139308   4.778   6.756   6.276  0.4506 -0.1762  1.1304
 5891TIP3    H239309   4.720   6.895   6.289  0.9912  0.3467 -1.5098
 5892TIP3   OH239310   4.315   2.031   7.775 -0.2519  0.2215 -0.3372
 5892TIP3    H139311   4.331   1.937   7.766 -2.0225 -0.0976 -0.5539
 5892TIP3    H239312   4.224   2.037   7.803 -0.6688  1.9253 -1.8659
 5893TIP3   OH239313   3.971   3.951   2.085  0.2325  0.2756 -0.3400
 5893TIP3    H139314   4.044   3.932   2.145 -1.4023 -0.4653  1.5205
 5893TIP3    H239315   3.897   3.904   2.122 -1.4741  1.8609 -1.5648
 5894TIP3   OH239316   3.195   3.206   8.359 -0.2317  0.0239 -0.5868
 5894TIP3    H139317   3.167   3.131   8.411  0.5619 -0.4091 -0.7642
 5894TIP3    H239318   3.143   3.279   8.392 -2.3734 -0.9300 -1.6343
 5895TIP3   OH239319   6.451   1.803   1.014 -0.1411 -0.1197 -0.4517
 5895TIP3    H139320   6.464   1.833   0.924 -2.8707 -0.9523 -1.2316
 5895TIP3    H239321   6.426   1.882   1.062  1.8449  0.4241 -0.2599
 5896TIP3   OH239322   5.887   0.687   7.938  0.5932  1.0982 -0.0622
 5896TIP3    H139323   5.850   0.668   8.024  1.9506  1.1173  0.5452
 5896TIP3    H239324   5.967   0.636   7.934 -0.6336 -0.8447 -2.3215
 5897TIP3   OH239325   3.770   0.524   0.558 -0.7454 -0.2960  0.1793
 5897TIP3    H139326   3.843   0.462   0.566 -0.2960  0.1743 -0.1930
 5897TIP3    H239327   3.808   0.599   0.512 -1.0650  0.6336  1.4009
 5898TIP3   OH239328   0.278   6.060   6.630  0.2366  0.1175 -0.1167
 5898TIP3    H139329   0.288   6.021   6.543  0.9168 -0.1647  0.0873
 5898TIP3    H239330   0.282   6.154   6.614  0.4892  0.0637 -0.3718
 5899TIP3   OH239331   2.724   6.677   1.085  0.2192  0.5790  0.2820
 5899TIP3    H139332   2.654   6.632   1.039  0.4538 -0.1433  0.6240
 5899TIP3    H239333   2.744   6.622   1.160  0.2690  1.4312  0.9127
 5900TIP3   OH239334   2.072   2.855   1.522  0.0686  0.0348 -0.4962
 5900TIP3    H139335   2.164   2.866   1.549  0.4316 -3.0990 -0.0922
 5900TIP3    H239336   2.021   2.893   1.594  1.0415  0.1756  0.1416
 5901TIP3   OH239337   5.255   3.387   8.298 -0.3767  0.4389 -0.2023
 5901TIP3    H139338   5.202   3.421   8.225 -1.2549 -1.6683 -0.6218
 5901TIP3    H239339   5.335   3.356   8.257 -1.4552 -2.0677 -0.5943
 5902TIP3   OH239340   1.016   3.117   7.265  0.2409  0.1345 -0.0691
 5902TIP3    H139341   1.017   3.149   7.175  0.8477  0.1335 -0.0643
 5902TIP3    H239342   1.074   3.041   7.265 -2.3506 -1.9725 -0.4263
 5903TIP3   OH239343   6.265   1.764   8.597  0.3690 -0.4068  0.2185
 5903TIP3    H139344   6.203   1.697   8.567  0.5605 -0.6765  0.4168
 5903TIP3    H239345   6.340   1.714   8.629  0.2563 -0.1172  0.9516
 5904TIP3   OH239346   3.293   0.249   0.109 -0.2432 -0.3262 -0.0447
 5904TIP3    H139347   3.249   0.332   0.092  0.3301 -0.0703 -0.3392
 5904TIP3    H239348   3.384   0.273   0.125 -0.1327 -0.8715  0.1935
 5905TIP3   OH239349   2.079   3.223   0.123  0.4166  0.0856  0.5425
 5905TIP3    H139350   2.112   3.313   0.127  0.5973 -0.0022  1.0739
 5905TIP3    H239351   2.025   3.213   0.201 -0.8369  0.2073 -0.2917
 5906TIP3   OH239352   4.758   0.634   6.783 -0.7759 -0.2248  0.1745
 5906TIP3    H139353   4.673   0.676   6.779 -1.5912 -1.9035 -1.6975
 5906TIP3    H239354   4.777   0.608   6.693  0.4008 -2.3393  0.9468
 5907TIP3   OH239355   4.723   1.931   8.278 -0.3728  0.0711  0.4844
 5907TIP3    H139356   4.801   1.883   8.251 -0.1891  0.4316  0.3664
 5907TIP3    H239357   4.688   1.881   8.352 -1.2110 -1.2568 -0.7567
 5908TIP3   OH239358   4.541   0.693   7.290  0.0938  0.0111 -0.1202
 5908TIP3    H139359   4.561   0.761   7.354 -1.6900 -0.5029  1.0424
 5908TIP3    H239360   4.480   0.635   7.334 -1.1063 -0.4500 -2.2443
 5909TIP3   OH239361   5.283   0.475   0.575 -0.0195 -0.5520  0.0138
 5909TIP3    H139362   5.246   0.559   0.602 -0.2369  0.9638 -4.3172
 5909TIP3    H239363   5.223   0.443   0.508  2.5191 -1.8206 -1.8007
 5910TIP3   OH239364   6.810   6.030   8.332  0.3945 -0.0493  0.4396
 5910TIP3    H139365   6.877   6.002   8.270  0.1385 -0.2276  0.2428
 5910TIP3    H239366   6.795   5.954   8.388 -1.6591 -1.0212 -1.2643
 5911TIP3   OH239367   5.877   3.462   2.029 -0.3091 -0.1734 -0.1085
 5911TIP3    H139368   5.800   3.410   2.006  0.0460 -0.3724 -0.8498
 5911TIP3    H239369   5.865   3.482   2.122 -1.1508 -0.3800 -0.1644
 5912TIP3   OH239370   2.577   5.744   1.156 -0.9707 -0.5128 -0.7516
 5912TIP3    H139371   2.502   5.685   1.167 -0.6914 -0.8976 -0.8901
 5912TIP3    H239372   2.581   5.792   1.239 -0.7203 -1.2539 -0.3305
 5913TIP3   OH239373   3.866   0.118   2.242 -0.0921  0.0432 -0.4727
 5913TIP3    H139374   3.817   0.197   2.218  0.8879  0.6101 -0.6721
 5913TIP3    H239375   3.801   0.060   2.281 -0.9752  0.6510 -1.0081
 5914TIP3   OH239376   0.773   3.084   6.595 -0.0480  0.2435  0.1201
 5914TIP3    H139377   0.838   3.065   6.527  0.8721  0.7182  0.8456
 5914TIP3    H239378   0.792   3.023   6.666  0.5879  1.3678  0.9551
 5915TIP3   OH239379   5.754   2.232   6.273 -0.0526  0.5324  0.6345
 5915TIP3    H139380   5.784   2.268   6.190  0.7286  1.4084  1.2708
 5915TIP3    H239381   5.812   2.271   6.338 -1.3092  0.7063  1.7075
 5916TIP3   OH239382   4.207   6.516   6.190  0.0396 -0.3587 -0.5144
 5916TIP3    H139383   4.256   6.437   6.168 -1.0975 -0.7158 -1.8969
 5916TIP3    H239384   4.122   6.484   6.220  0.0560  0.3028  0.2695
 5917TIP3   OH239385   2.520   1.585   0.728  0.5009 -0.2647 -0.8035
 5917TIP3    H139386   2.538   1.527   0.654 -0.3611 -1.2400 -0.2733
 5917TIP3    H239387   2.468   1.532   0.788 -0.6928  1.1953 -0.4952
 5918TIP3   OH239388   3.485   6.392   6.346  0.3200 -0.0772  0.1507
 5918TIP3    H139389   3.503   6.305   6.383 -2.5839 -0.8947 -0.0572
 5918TIP3    H239390   3.393   6.408   6.368  1.2486  3.8763  1.8807
 5919TIP3   OH239391   5.191   4.931   8.542  0.5929 -0.1033  0.4088
 5919TIP3    H139392   5.154   4.851   8.580 -1.3450 -0.2928 -1.6603
 5919TIP3    H239393   5.120   4.967   8.489  2.0743  1.9291 -0.3264
 5920TIP3   OH239394   4.468   5.069   2.446 -0.1689  0.2076  0.2681
 5920TIP3    H139395   4.492   5.066   2.353  0.4512 -3.1896  0.3921
 5920TIP3    H239396   4.373   5.081   2.446 -0.0277  1.5360 -0.7107
 5921TIP3   OH239397   1.790   4.630   7.507  0.4355 -0.0141 -0.1620
 5921TIP3    H139398   1.715   4.677   7.471  0.1153 -0.5655 -0.2238
 5921TIP3    H239399   1.778   4.539   7.478  0.0110 -0.5457  1.5576
 5922TIP3   OH239400   3.453   4.044   7.921  0.5878 -0.5239  0.2506
 5922TIP3    H139401   3.501   4.121   7.953 -0.4754 -0.3535  1.4901
 5922TIP3    H239402   3.516   3.972   7.928  1.6472  0.2207 -1.0767
 5923TIP3   OH239403   6.088   3.713   0.212 -0.2462 -0.2412  0.2414
 5923TIP3    H139404   6.125   3.800   0.199 -1.6915  0.1190 -2.0005
 5923TIP3    H239405   6.142   3.674   0.281  1.2510  1.9323  0.3995
 5924TIP3   OH239406   6.618   2.792   8.197  0.1781 -0.4063  0.3072
 5924TIP3    H139407   6.613   2.859   8.129 -0.6890 -1.0647 -0.3073
 5924TIP3    H239408   6.641   2.712   8.150  0.6982 -0.6432  0.9559
 5925TIP3   OH239409   0.895   3.808   7.959  0.3604 -0.1160  0.3633
 5925TIP3    H139410   0.929   3.893   7.932 -0.3850  0.1621  0.2662
 5925TIP3    H239411   0.968   3.766   8.004  0.2587  1.2390  1.8848
 5926TIP3   OH239412   4.659   0.885   6.107 -0.3361 -0.2981 -0.0377
 5926TIP3    H139413   4.718   0.866   6.180  0.7156 -3.0140 -1.4384
 5926TIP3    H239414   4.696   0.836   6.033 -2.2156  1.0740 -2.0146
 5927TIP3   OH239415   2.756   4.386   0.640  0.6263 -0.4633  0.2625
 5927TIP3    H139416   2.667   4.419   0.624 -0.3657 -2.5485  1.0988
 5927TIP3    H239417   2.779   4.341   0.559  0.4230 -0.9422  0.4685
 5928TIP3   OH239418   6.360   2.216   6.827 -0.1550  0.3659  0.2014
 5928TIP3    H139419   6.376   2.185   6.738  0.1360 -0.9953  0.7118
 5928TIP3    H239420   6.324   2.304   6.815 -1.6734 -0.3998 -1.3483
 5929TIP3   OH239421   1.862   5.928   0.399  0.0559 -0.0315  0.0399
 5929TIP3    H139422   1.771   5.957   0.391 -0.6304 -1.6977  1.2648
 5929TIP3    H239423   1.889   5.961   0.485  0.3349 -0.2492  0.0353
 5930TIP3   OH239424   0.552   1.980   2.198 -0.3216 -0.5283  0.8404
 5930TIP3    H139425   0.617   2.009   2.134 -0.8575 -1.4015 -0.1170
 5930TIP3    H239426   0.548   2.052   2.261 -3.5276  2.9678 -2.7621
 5931TIP3   OH239427   4.320   3.401   6.377 -0.0727 -0.2154  0.9430
 5931TIP3    H139428   4.339   3.495   6.380  0.9006 -0.3460 -0.3935
 5931TIP3    H239429   4.285   3.381   6.464 -0.0901  1.3354  1.3199
 5932TIP3   OH239430   0.167   0.526   0.575  0.6690  0.0529 -0.6371
 5932TIP3    H139431   0.161   0.456   0.641  2.9198  1.1074  0.8035
 5932TIP3    H239432   0.076   0.550   0.558 -0.0466 -0.0201  2.4308
 5933TIP3   OH239433   0.488   1.743   7.704  0.2037  0.6874  0.4730
 5933TIP3    H139434   0.480   1.777   7.615  1.6779 -0.4994 -0.1654
 5933TIP3    H239435   0.461   1.815   7.760 -0.2782  1.6338 -0.9136
 5934TIP3   OH239436   1.808   3.602   2.154  0.7172  0.2975  0.2647
 5934TIP3    H139437   1.765   3.670   2.207  1.1553 -0.3588  1.5090
 5934TIP3    H239438   1.864   3.651   2.093  0.9826  1.0740  1.0973
 5935TIP3   OH239439   6.072   1.529   7.020 -0.3694  0.2998 -0.0824
 5935TIP3    H139440   6.005   1.587   6.982  0.4914  0.9646 -0.6249
 5935TIP3    H239441   6.092   1.569   7.104  1.0888  1.5175 -0.9659
 5936TIP3   OH239442   5.219   1.926   0.604 -0.7463  0.0132  0.5811
 5936TIP3    H139443   5.242   1.979   0.681  0.1678  0.2810  0.1407
 5936TIP3    H239444   5.131   1.893   0.623 -1.0498  1.1080  1.1818
 5937TIP3   OH239445   3.561   3.704   2.474 -0.3556 -0.0798 -0.1392
 5937TIP3    H139446   3.488   3.766   2.481 -1.0086 -0.8618  0.1658
 5937TIP3    H239447   3.558   3.673   2.383  1.7728  2.4452 -1.1922
 5938TIP3   OH239448   1.744   4.958   6.607  0.2343  0.4419  0.2983
 5938TIP3    H139449   1.735   4.923   6.696  0.6100  1.6087  0.8260
 5938TIP3    H239450   1.700   5.043   6.611  0.2042  0.4743 -0.6558
 5939TIP3   OH239451   2.564   5.023   6.824 -0.2584 -0.3457 -0.1104
 5939TIP3    H139452   2.644   5.066   6.792 -0.3486 -0.3033 -0.2804
 5939TIP3    H239453   2.593   4.934   6.847 -0.0598 -0.1766  0.3044
 5940TIP3   OH239454   5.974   2.125   6.586  0.3067 -0.0490  0.0708
 5940TIP3    H139455   6.031   2.122   6.509 -0.1072 -0.8747 -0.2254
 5940TIP3    H239456   5.924   2.206   6.576 -0.0284 -0.3487 -0.7545
 5941TIP3   OH239457   1.146   0.005   1.938  0.5019  0.4662  0.3602
 5941TIP3    H139458   1.098   0.038   2.014  1.4615  1.3058  0.6373
 5941TIP3    H239459   1.203  -0.063   1.974 -0.5288 -0.5976  0.0168
 5942TIP3   OH239460   6.143   5.759   0.295 -0.0066  1.1889 -0.1231
 5942TIP3    H139461   6.152   5.706   0.374  0.6701  0.4033 -0.7107
 5942TIP3    H239462   6.053   5.745   0.267  0.7506 -1.6110 -1.5720
 5943TIP3   OH239463   3.024   2.961   1.473 -0.2006 -0.0228  0.2537
 5943TIP3    H139464   2.962   2.922   1.534  0.1929 -0.0089  0.6738
 5943TIP3    H239465   3.033   3.052   1.503 -1.9187  0.7299 -1.3551
 5944TIP3   OH239466   3.619   1.533   0.633 -0.3364 -0.5587 -0.5799
 5944TIP3    H139467   3.607   1.535   0.728  1.6360  1.4554 -0.3133
 5944TIP3    H239468   3.647   1.621   0.610 -1.5141 -0.7732 -3.1923
 5945TIP3   OH239469   2.094   4.208   1.440  0.1199 -0.5645  0.2135
 5945TIP3    H139470   2.131   4.295   1.458  0.6922 -0.6844 -0.3264
 5945TIP3    H239471   2.170   4.150   1.440  0.1967 -0.6102 -2.3125
 5946TIP3   OH239472   5.616   2.751   7.674  0.2361 -0.0846  0.4323
 5946TIP3    H139473   5.652   2.717   7.756  0.1575 -1.9965 -0.2748
 5946TIP3    H239474   5.539   2.697   7.657  0.3619  0.1431 -0.9907
 5947TIP3   OH239475   6.341   6.055   7.817 -0.2675 -0.0398 -0.2586
 5947TIP3    H139476   6.413   6.113   7.842  0.4597 -0.6718 -0.8279
 5947TIP3    H239477   6.342   6.056   7.721 -0.9801 -0.1142 -0.2725
 5948TIP3   OH239478   5.202   6.172   7.144  0.2781  0.2362  0.4587
 5948TIP3    H139479   5.129   6.117   7.171 -0.7124  0.5752 -1.4054
 5948TIP3    H239480   5.237   6.130   7.065  3.6112 -1.1786  2.4253
 5949TIP3   OH239481   4.046   2.798   0.429 -0.2556  0.6187  0.6536
 5949TIP3    H139482   4.060   2.715   0.382 -1.8567  0.3757  0.5497
 5949TIP3    H239483   4.092   2.785   0.512  0.3170  0.0014  0.2614
 5950TIP3   OH239484   1.092   3.166   7.576  0.1216  0.3533 -0.5542
 5950TIP3    H139485   1.096   3.157   7.480 -1.6895 -0.2025 -0.6147
 5950TIP3    H239486   1.130   3.252   7.593  0.2820  0.5541 -1.7980
 5951TIP3   OH239487   6.471   1.126   0.715 -0.4593  0.2776 -0.3923
 5951TIP3    H139488   6.554   1.133   0.763 -1.0003  1.0467  0.4478
 5951TIP3    H239489   6.406   1.107   0.782 -1.3129  1.8567 -0.7434
 5952TIP3   OH239490   4.024   4.356   0.482  0.3558 -0.2675  0.3641
 5952TIP3    H139491   4.069   4.349   0.398 -0.7256 -0.7953 -0.1835
 5952TIP3    H239492   4.074   4.299   0.541  0.0685 -1.3213 -0.3855
 5953TIP3   OH239493   6.183   4.103   0.600 -0.1940 -0.3547 -0.1767
 5953TIP3    H139494   6.179   4.198   0.615  0.4238 -0.5186  1.1217
 5953TIP3    H239495   6.128   4.089   0.522  0.6918  1.2082 -1.1329
 5954TIP3   OH239496   1.848   4.677   7.128 -0.1489  0.2645  0.5901
 5954TIP3    H139497   1.771   4.620   7.122  0.3670 -0.3933  0.1022
 5954TIP3    H239498   1.813   4.761   7.158 -0.8977 -0.3455  1.5030
 5955TIP3   OH239499   1.598   1.689   7.709  0.1067  0.1112  0.4445
 5955TIP3    H139500   1.536   1.625   7.747 -2.4131  1.4828 -1.1006
 5955TIP3    H239501   1.607   1.756   7.777  2.5109 -1.5492  1.9448
 5956TIP3   OH239502   2.019   6.220   7.234 -0.1640 -0.1516  0.5649
 5956TIP3    H139503   2.065   6.155   7.182 -0.8893 -0.9332  0.8667
 5956TIP3    H239504   1.949   6.251   7.177 -1.7946 -1.9699  1.4238
 5957TIP3   OH239505   1.661   2.151   1.385  0.2885 -0.7563 -0.0078
 5957TIP3    H139506   1.588   2.117   1.436  0.7402 -0.9126  0.5504
 5957TIP3    H239507   1.620   2.201   1.314 -0.3581 -1.2064  0.0425
 5958TIP3   OH239508   2.638   4.324   7.134 -1.0622 -0.3031 -0.2752
 5958TIP3    H139509   2.694   4.397   7.106  0.0687  0.1255  2.7978
 5958TIP3    H239510   2.549   4.359   7.131 -0.7766  0.3842 -1.1427
 5959TIP3   OH239511   6.855   6.525   0.274 -0.4467 -0.0308 -0.1450
 5959TIP3    H139512   6.884   6.461   0.339 -2.7609 -0.0669  0.9753
 5959TIP3    H239513   6.885   6.609   0.307 -0.0362 -0.2301 -0.0081
 5960TIP3   OH239514   5.892   0.575   6.129  0.5136  0.2224  0.3089
 5960TIP3    H139515   5.964   0.523   6.094 -0.1210 -0.7079  0.3264
 5960TIP3    H239516   5.922   0.606   6.214  0.6632 -0.6745  0.5869
 5961TIP3   OH239517   4.006   5.950   7.427 -0.2421  0.7174  0.6810
 5961TIP3    H139518   3.985   5.885   7.494 -1.2562  0.9902  0.6547
 5961TIP3    H239519   3.983   5.908   7.344 -0.2877  0.8700  0.6147
 5962TIP3   OH239520   3.026   6.540   8.031  0.5255  0.0009 -0.2785
 5962TIP3    H139521   3.087   6.483   8.077 -0.3334 -0.2338  0.5951
 5962TIP3    H239522   2.939   6.505   8.051  0.0157  1.1751 -0.3146
 5963TIP3   OH239523   2.964   6.217   1.164  0.1255 -0.0904 -0.3593
 5963TIP3    H139524   2.878   6.181   1.187 -0.0821  1.3826  1.4823
 5963TIP3    H239525   3.027   6.162   1.210 -0.0676  0.6338  0.8237
 5964TIP3   OH239526   1.886   2.459   0.415 -0.6828  0.0522  0.1444
 5964TIP3    H139527   1.896   2.369   0.445 -1.0275 -0.1124 -0.2271
 5964TIP3    H239528   1.953   2.469   0.347 -0.6502  0.0711  0.1797
 5965TIP3   OH239529   2.678   2.136   7.416  0.1769 -0.4802  0.7355
 5965TIP3    H139530   2.620   2.106   7.486  0.1515 -0.9121  0.5301
 5965TIP3    H239531   2.761   2.093   7.433  0.1099 -0.7583  0.3822
 5966TIP3   OH239532   5.944   3.528   0.096  0.0397  0.4119  0.0495
 5966TIP3    H139533   5.942   3.549   0.002 -2.3664  0.7210  0.1247
 5966TIP3    H239534   5.981   3.606   0.137 -1.9469  1.6558 -0.3797
 5967TIP3   OH239535   3.208   2.843   1.042  0.2142 -0.5601 -0.0900
 5967TIP3    H139536   3.249   2.777   1.099  0.4878 -0.8725 -0.6386
 5967TIP3    H239537   3.135   2.877   1.094  0.6054 -0.6592  0.5433
 5968TIP3   OH239538   6.892   4.460   7.753  0.4600  0.0199 -0.6247
 5968TIP3    H139539   6.834   4.495   7.685  0.6126  0.6913 -0.4182
 5968TIP3    H239540   6.942   4.536   7.782 -1.3881  0.3588  2.0680
 5969TIP3   OH239541   2.534   6.816   0.128 -0.7331 -0.1206 -0.3908
 5969TIP3    H139542   2.513   6.907   0.148  0.4579  0.1050 -0.0918
 5969TIP3    H239543   2.461   6.766   0.164 -0.3387  0.5592  1.4692
 5970TIP3   OH239544   1.340   3.977   8.090 -0.2107  0.2013 -0.6886
 5970TIP3    H139545   1.407   3.999   8.025 -1.2549  1.3419 -1.4128
 5970TIP3    H239546   1.280   4.051   8.089 -0.0118  0.5071  1.9602
 5971TIP3   OH239547   1.768   0.723   6.456 -0.0121  0.2617 -0.8698
 5971TIP3    H139548   1.723   0.780   6.518 -1.1300  1.5118 -2.7150
 5971TIP3    H239549   1.821   0.783   6.403  0.4127 -0.6698 -1.5224
 5972TIP3   OH239550   4.983   3.354   1.249 -0.2211  0.1657 -0.2816
 5972TIP3    H139551   4.916   3.292   1.220 -1.7174  1.3405  0.5422
 5972TIP3    H239552   4.938   3.410   1.313  0.7961  2.6866 -1.6516
 5973TIP3   OH239553   0.351   4.600   7.940  0.1419 -0.0138 -0.0281
 5973TIP3    H139554   0.403   4.630   8.015  0.5908  1.1424 -0.7691
 5973TIP3    H239555   0.260   4.621   7.965  0.3802  1.3397 -0.2080
 5974TIP3   OH239556   6.768   4.043   2.108  0.4868 -0.3626 -0.1442
 5974TIP3    H139557   6.726   4.031   2.193 -0.4338  0.9030 -0.3872
 5974TIP3    H239558   6.700   4.019   2.045  0.5720  0.3771 -0.5289
 5975TIP3   OH239559   3.063   5.889   7.923 -0.3817 -0.2567 -1.0174
 5975TIP3    H139560   3.089   5.918   8.010  2.1932 -0.9843 -1.4517
 5975TIP3    H239561   3.143   5.851   7.886 -1.4722 -0.2533 -3.5784
 5976TIP3   OH239562   1.400   2.121   8.546 -0.2961  0.4568 -0.7391
 5976TIP3    H139563   1.396   2.066   8.468 -1.4295  0.3149 -0.6019
 5976TIP3    H239564   1.465   2.079   8.602 -1.6868 -1.2289 -0.2946
 5977TIP3   OH239565   4.972   3.367   1.640  0.3817 -0.1136 -0.8925
 5977TIP3    H139566   5.033   3.342   1.710  1.3410  1.3400 -1.1745
 5977TIP3    H239567   4.956   3.285   1.592 -1.2590 -1.4568  1.6741
 5978TIP3   OH239568   2.884   3.253   1.468 -0.1112 -0.7090 -0.1698
 5978TIP3    H139569   2.827   3.184   1.433  0.1660 -1.1284  0.1905
 5978TIP3    H239570   2.847   3.273   1.554 -0.3406 -0.2238 -0.3786
 5979TIP3   OH239571   0.508   0.748   1.253  0.2339 -0.0528  0.2679
 5979TIP3    H139572   0.526   0.696   1.331 -0.5081  1.5316  1.5550
 5979TIP3    H239573   0.593   0.758   1.210  0.6465 -0.9539  0.8443
 5980TIP3   OH239574   5.114   0.217   8.322 -0.5390  0.2016  0.7442
 5980TIP3    H139575   5.186   0.153   8.325  0.0111  0.7231 -0.6916
 5980TIP3    H239576   5.155   0.301   8.343 -0.7229  0.4998 -0.0691
 5981TIP3   OH239577   6.019   0.446   7.716 -0.4241 -0.1545  0.2584
 5981TIP3    H139578   6.003   0.360   7.755  1.7754 -0.9164 -0.3752
 5981TIP3    H239579   6.062   0.495   7.786  0.5912 -0.4387 -0.1508
 5982TIP3   OH239580   3.545   3.185   0.313 -0.0898  0.0378 -0.1184
 5982TIP3    H139581   3.598   3.256   0.277 -0.5249  2.2135  3.1674
 5982TIP3    H239582   3.455   3.215   0.303 -0.6206 -1.8435 -1.9998
 5983TIP3   OH239583   2.191   0.609   1.072  0.2653  0.5056 -0.4941
 5983TIP3    H139584   2.239   0.567   1.000 -1.7584 -2.4469 -0.3089
 5983TIP3    H239585   2.234   0.575   1.151 -0.1440  0.3564 -0.3346
 5984TIP3   OH239586   5.918   5.598   0.338 -0.2595  0.3651  0.6348
 5984TIP3    H139587   5.916   5.575   0.245 -1.3002  0.7579  0.5392
 5984TIP3    H239588   5.905   5.515   0.384  1.4384 -0.0162  0.4919
 5985TIP3   OH239589   4.383   4.744   7.786  0.1894  0.0431 -0.8355
 5985TIP3    H139590   4.340   4.706   7.862  0.6929 -1.7459 -1.3995
 5985TIP3    H239591   4.411   4.669   7.733  2.7426  1.1110 -1.1898
 5986TIP3   OH239592   6.627   0.929   1.985  0.1041  0.1453 -0.1379
 5986TIP3    H139593   6.625   0.967   1.898  0.3135  2.2699  0.7303
 5986TIP3    H239594   6.709   0.960   2.024 -0.2934 -0.2170  1.0434
 5987TIP3   OH239595   3.437   5.253   8.089 -0.6605  0.1644 -0.0915
 5987TIP3    H139596   3.525   5.284   8.070 -1.3677  2.0558 -0.4995
 5987TIP3    H239597   3.416   5.194   8.017 -0.6483  1.6981 -1.4048
 5988TIP3   OH239598   6.346   1.718   7.317  0.4826 -0.0023  0.7048
 5988TIP3    H139599   6.387   1.802   7.293  0.1533  0.7857  2.7052
 5988TIP3    H239600   6.412   1.674   7.370  0.1320 -0.3820  0.8258
 5989TIP3   OH239601   1.663   4.910   1.203  0.3768  0.6170 -0.1610
 5989TIP3    H139602   1.713   4.980   1.243  0.1500  0.0163  1.2262
 5989TIP3    H239603   1.712   4.888   1.124  1.9590  0.4989  0.8077
 5990TIP3   OH239604   4.261   3.284   1.463 -0.2678 -0.2951 -0.1414
 5990TIP3    H139605   4.346   3.244   1.482  0.0998  0.5838  0.0972
 5990TIP3    H239606   4.225   3.231   1.392  0.9886 -0.0012 -1.0244
 5991TIP3   OH239607   3.446   5.404   0.404 -0.2550  0.5033  0.2755
 5991TIP3    H139608   3.354   5.394   0.378 -0.6098 -1.3718  1.9968
 5991TIP3    H239609   3.443   5.463   0.480 -0.0429  0.3541  0.4002
 5992TIP3   OH239610   5.452   0.213   0.534  0.2289 -0.3893 -0.6371
 5992TIP3    H139611   5.451   0.118   0.519 -0.4267 -0.2689 -1.3833
 5992TIP3    H239612   5.477   0.251   0.450 -2.0305  0.2194 -1.0804
 5993TIP3   OH239613   4.211   0.301   1.226  0.1624 -0.0364  0.0741
 5993TIP3    H139614   4.300   0.322   1.254  0.5411 -0.3238 -0.8668
 5993TIP3    H239615   4.162   0.382   1.238  0.3991 -0.0477  1.1726
 5994TIP3   OH239616   5.271   3.632   0.375  0.5707 -0.3767  0.1910
 5994TIP3    H139617   5.202   3.620   0.309 -0.3448  0.3117  0.9800
 5994TIP3    H239618   5.278   3.547   0.418 -0.0633 -0.3576  0.3465
 5995TIP3   OH239619   2.141   3.472   2.051 -0.3823  0.3952  0.0797
 5995TIP3    H139620   2.099   3.392   2.020 -0.9703  0.7652 -0.0881
 5995TIP3    H239621   2.220   3.442   2.095  0.9478 -0.1162 -2.4439
 5996TIP3   OH239622   6.679   4.681   1.090 -0.0280 -0.0634  0.1470
 5996TIP3    H139623   6.592   4.673   1.129  0.2643 -1.4181  0.5625
 5996TIP3    H239624   6.706   4.771   1.110 -1.4804  0.5230 -0.3512
 5997TIP3   OH239625   2.650   4.644   8.539  0.3049  0.0991  0.2422
 5997TIP3    H139626   2.685   4.635   8.627  2.5418  2.0310 -0.3277
 5997TIP3    H239627   2.642   4.738   8.525  1.0152 -0.0873 -1.9268
 5998TIP3   OH239628   1.541   4.544   1.632 -1.1465  0.9578  0.6184
 5998TIP3    H139629   1.530   4.616   1.571 -0.5445  0.9470  0.4926
 5998TIP3    H239630   1.558   4.586   1.716  1.3597  1.0054  0.1648
 5999TIP3   OH239631   4.582   3.829   1.659  0.0896 -0.1381  0.1901
 5999TIP3    H139632   4.542   3.743   1.650 -3.3662  1.2576  0.8308
 5999TIP3    H239633   4.569   3.852   1.751  1.1054  1.0394  0.0692
 6000TIP3   OH239634   2.228   3.756   1.671 -0.3710  0.4999  0.1740
 6000TIP3    H139635   2.318   3.778   1.647 -0.4324  2.4894  1.5434
 6000TIP3    H239636   2.234   3.730   1.763 -0.8823 -1.8715 -0.3864
 6001TIP3   OH239637   3.348   5.481   7.835  0.4808  0.1831  0.3567
 6001TIP3    H139638   3.355   5.427   7.756 -0.2369 -0.6654  0.8603
 6001TIP3    H239639   3.276   5.442   7.884 -1.3562  2.6929 -0.1426
 6002TIP3   OH239640   0.224   3.572   0.985  0.0076 -0.3311  0.2656
 6002TIP3    H139641   0.228   3.610   0.897  1.1563  1.4636  1.0187
 6002TIP3    H239642   0.134   3.584   1.013 -0.5290 -1.4847 -0.8577
 6003TIP3   OH239643   2.638   2.173   7.025  0.4659  0.2237 -0.2072
 6003TIP3    H139644   2.668   2.106   6.964 -0.4571 -0.3598 -0.0389
 6003TIP3    H239645   2.665   2.256   6.985 -0.1598 -0.1425 -1.4376
 6004TIP3   OH239646   2.593   4.049   8.210 -0.0004 -0.2519 -0.2582
 6004TIP3    H139647   2.649   3.972   8.225  1.4646  0.5093 -1.5728
 6004TIP3    H239648   2.610   4.105   8.286  0.7052 -0.2197 -0.4319
 6005TIP3   OH239649   5.463   4.915   1.789 -0.0690 -0.4036 -0.2968
 6005TIP3    H139650   5.530   4.847   1.797 -0.4673 -0.6803  0.9685
 6005TIP3    H239651   5.511   4.994   1.765  0.4197 -1.0844 -1.6044
 6006TIP3   OH239652   0.350   6.114   7.830 -0.2344 -0.3299  0.1692
 6006TIP3    H139653   0.404   6.050   7.878 -1.6661 -2.0527 -0.4116
 6006TIP3    H239654   0.262   6.102   7.865 -0.6818  0.8132 -0.5061
 6007TIP3   OH239655   1.395   4.649   0.073 -0.5852 -0.0921 -0.5469
 6007TIP3    H139656   1.330   4.643   0.144  0.1194  0.6562  0.1801
 6007TIP3    H239657   1.452   4.572   0.087 -0.2245  0.2561 -0.0608
 6008TIP3   OH239658   6.746   0.038   1.495 -0.4567 -0.5844  0.3441
 6008TIP3    H139659   6.822   0.026   1.438 -1.4976  0.2359 -1.3009
 6008TIP3    H239660   6.671   0.013   1.441 -1.5155  0.5354  1.2280
 6009TIP3   OH239661   6.625   1.068   0.112  0.1782 -0.4901 -0.2024
 6009TIP3    H139662   6.540   1.111   0.103  0.5490  0.4979  0.7226
 6009TIP3    H239663   6.645   1.076   0.205  0.9473 -1.3890 -0.2793
 6010TIP3   OH239664   6.809   5.013   6.761 -0.1474  0.5569 -0.0557
 6010TIP3    H139665   6.887   5.039   6.811 -0.9508  0.5957  1.2120
 6010TIP3    H239666   6.820   4.919   6.747  0.6089  0.7401 -0.7750
 6011TIP3   OH239667   0.937   4.285   8.417  0.9351  0.2095 -0.3201
 6011TIP3    H139668   0.886   4.366   8.421 -0.7460 -0.8199  0.1929
 6011TIP3    H239669   0.930   4.249   8.505 -0.4514 -1.6939 -1.1558
 6012TIP3   OH239670   0.587   4.942   1.959  0.3772  0.4127 -0.0036
 6012TIP3    H139671   0.530   5.015   1.983  0.9135  0.0106  2.8361
 6012TIP3    H239672   0.572   4.876   2.026  2.0012 -0.9370 -0.8765
 6013TIP3   OH239673   5.192   3.959   1.076 -0.0547 -0.9709  0.8502
 6013TIP3    H139674   5.266   3.903   1.100 -0.6358 -1.7518  0.8300
 6013TIP3    H239675   5.146   3.911   1.007 -0.7433 -0.6152  1.0555
 6014TIP3   OH239676   5.040   5.792   0.743  0.2781 -0.2539  0.4564
 6014TIP3    H139677   4.959   5.802   0.693  0.3506 -1.7658 -0.0390
 6014TIP3    H239678   5.053   5.697   0.748  1.7540 -0.0532  0.9627
 6015TIP3   OH239679   2.975   5.321   0.542 -0.0715 -0.5457  0.1998
 6015TIP3    H139680   2.956   5.391   0.605 -2.6011  0.2814 -1.3280
 6015TIP3    H239681   2.983   5.243   0.596 -1.2509  0.2721  1.6504
 6016TIP3   OH239682   5.655   4.702   2.167 -0.0643 -0.2106 -0.0952
 6016TIP3    H139683   5.562   4.713   2.145 -0.9682 -1.5016  2.6425
 6016TIP3    H239684   5.690   4.791   2.165 -1.8083  0.5440  0.5299
 6017TIP3   OH239685   0.934   1.241   1.439  0.3459 -0.3855  0.2035
 6017TIP3    H139686   0.979   1.205   1.515  0.0037  0.0492  0.6209
 6017TIP3    H239687   0.971   1.195   1.364  1.0318 -0.4759  0.5945
 6018TIP3   OH239688   3.461   1.911   1.752 -0.4178  0.1684 -0.1670
 6018TIP3    H139689   3.407   1.845   1.709 -0.7449 -0.9198  1.7983
 6018TIP3    H239690   3.519   1.861   1.809 -0.5129  1.5411  1.1932
 6019TIP3   OH239691   5.313   4.610   0.695 -0.3529 -0.8130  0.2320
 6019TIP3    H139692   5.338   4.525   0.731  1.7880 -0.5559 -0.5176
 6019TIP3    H239693   5.295   4.665   0.771  1.9809 -0.8938  0.9146
 6020TIP3   OH239694   4.397   3.938   8.664 -0.2046 -0.4995  0.0985
 6020TIP3    H139695   4.484   3.934   8.704  0.3695  1.3843 -0.8546
 6020TIP3    H239696   4.336   3.936   8.739  0.6766 -0.7142  0.8306
 6021TIP3   OH239697   5.255   2.098   0.827 -0.1089 -0.1929  0.4144
 6021TIP3    H139698   5.171   2.095   0.872  0.7590 -1.1101  2.0292
 6021TIP3    H239699   5.317   2.129   0.892  0.6919  1.3778 -1.0070
 6022TIP3   OH239700   3.085   4.808   1.298  0.9321 -0.0120  0.0966
 6022TIP3    H139701   3.147   4.843   1.234 -1.4114  2.0240 -1.2401
 6022TIP3    H239702   3.038   4.739   1.251 -0.6474  1.3436 -0.4109
 6023TIP3   OH239703   1.666   1.082   0.835  0.0960  0.6058 -0.3668
 6023TIP3    H139704   1.705   1.100   0.749 -1.5907  0.6604 -1.1559
 6023TIP3    H239705   1.585   1.133   0.836  0.7665  1.8014  1.8781
 6024TIP3   OH239706   2.022   6.359   0.813  0.3362 -0.5846 -0.0352
 6024TIP3    H139707   2.075   6.414   0.870 -2.2276 -0.1107  2.1276
 6024TIP3    H239708   1.992   6.287   0.870  1.5347 -2.9005 -2.1173
 6025TIP3   OH239709   0.540   0.565   0.343  0.3854  0.0245 -0.2847
 6025TIP3    H139710   0.609   0.504   0.369  0.0084 -0.2647  0.0713
 6025TIP3    H239711   0.463   0.509   0.333 -0.2809  0.5977  1.3026
 6026TIP3   OH239712   2.850   1.259   0.566  0.2396 -0.1797  0.2379
 6026TIP3    H139713   2.824   1.264   0.658 -1.1713 -0.3525 -0.1370
 6026TIP3    H239714   2.787   1.200   0.526  0.8370 -0.1091 -0.8525
 6027TIP3   OH239715   2.355   6.367   8.611 -0.1082  0.0905 -0.2136
 6027TIP3    H139716   2.380   6.346   8.701  0.9818 -0.5025 -0.6321
 6027TIP3    H239717   2.312   6.288   8.579  0.5452 -0.1275 -0.5718
 6028TIP3   OH239718   0.685   0.582   0.685  0.6631 -0.9331  0.0094
 6028TIP3    H139719   0.735   0.532   0.749 -1.0995 -2.0072  0.6375
 6028TIP3    H239720   0.649   0.515   0.626 -3.1820 -0.7782  1.8771
 6029TIP3   OH239721   5.796   4.504   2.039 -0.5273  0.5750  0.3547
 6029TIP3    H139722   5.884   4.540   2.028  0.6011 -0.5058  4.2564
 6029TIP3    H239723   5.751   4.568   2.094 -1.6161  0.2280 -0.1042
 6030TIP3   OH239724   1.975   2.608   8.602 -0.8303  0.5319 -0.3085
 6030TIP3    H139725   1.887   2.595   8.639 -1.6154  1.1110 -1.8811
 6030TIP3    H239726   1.983   2.703   8.592  0.2517  0.5344  0.3945
 6031TIP3   OH239727   6.294   3.150   7.689 -0.1424 -0.1574  0.5375
 6031TIP3    H139728   6.303   3.239   7.654 -0.1342 -0.2562  0.2816
 6031TIP3    H239729   6.338   3.095   7.624 -0.5483 -0.3938  0.4596
 6032TIP3   OH239730   3.395   4.910   0.683 -0.1889 -0.2440 -0.0699
 6032TIP3    H139731   3.327   4.866   0.633  0.1744  1.0266 -1.7981
 6032TIP3    H239732   3.474   4.858   0.666 -0.5065 -1.1853  1.1854
 6033TIP3   OH239733   3.351   2.270   2.148 -0.6785  0.2816 -0.0675
 6033TIP3    H139734   3.428   2.298   2.098  0.2929  0.3298  1.4041
 6033TIP3    H239735   3.362   2.309   2.235 -2.7176  0.8436  0.0071
 6034TIP3   OH239736   2.459   4.133   0.585  0.0292  0.6409  0.4440
 6034TIP3    H139737   2.508   4.134   0.667 -0.2417  0.8499  0.6073
 6034TIP3    H239738   2.487   4.053   0.541  0.6419  0.8406  0.4556
 6035TIP3   OH239739   5.797   2.228   0.684  0.2754 -0.1005  0.2804
 6035TIP3    H139740   5.850   2.180   0.620  0.7401 -0.5428  0.9907
 6035TIP3    H239741   5.799   2.174   0.762 -0.8374  0.1175  0.4726
 6036TIP3   OH239742   5.412   6.747   1.014  0.3005  0.2827 -0.1026
 6036TIP3    H139743   5.360   6.787   1.084  0.9842  0.3309  0.3916
 6036TIP3    H239744   5.496   6.728   1.055  0.7672  0.4527 -0.9545
 6037TIP3   OH239745   0.467   5.340   0.062  0.1851  0.2914 -0.1694
 6037TIP3    H139746   0.433   5.274   0.001  0.5991  0.1467 -0.2472
 6037TIP3    H239747   0.484   5.291   0.143  0.3050  0.3407 -0.1639
 6038TIP3   OH239748   1.132   3.168   0.412  0.0160  0.5593 -0.3475
 6038TIP3    H139749   1.218   3.153   0.453  0.0658 -1.1326 -0.9979
 6038TIP3    H239750   1.152   3.217   0.332  0.0901  2.2977  0.6634
 6039TIP3   OH239751   4.135   2.682   8.598 -0.4562 -0.2972  0.5228
 6039TIP3    H139752   4.192   2.708   8.526 -0.9475 -0.3076  0.1269
 6039TIP3    H239753   4.091   2.763   8.624 -2.9631 -0.8441 -1.5597
 6040TIP3   OH239754   1.920   2.402   1.249  0.4336 -0.4740 -0.4425
 6040TIP3    H139755   1.966   2.479   1.217 -2.0012 -0.1848 -3.8221
 6040TIP3    H239756   1.848   2.437   1.301  1.3736 -0.7088  1.0638
 6041TIP3   OH239757   4.399   5.387   8.102 -0.1782  0.6219  0.4373
 6041TIP3    H139758   4.454   5.365   8.026 -0.4114  1.7081 -0.0594
 6041TIP3    H239759   4.325   5.326   8.095  0.3293 -0.0063  0.4055
 6042TIP3   OH239760   5.525   1.852   7.714  0.2945  0.1239  0.4691
 6042TIP3    H139761   5.567   1.777   7.757  1.6690  0.8527  0.4706
 6042TIP3    H239762   5.483   1.900   7.785  0.3774 -0.0411  0.6303
 6043TIP3   OH239763   5.452   2.568   7.783 -0.2900 -0.0118  0.0450
 6043TIP3    H139764   5.367   2.602   7.810 -0.2608  0.8542 -0.9291
 6043TIP3    H239765   5.488   2.529   7.863 -1.0993  0.6420  0.7469
 6044TIP3   OH239766   0.486   1.191   6.943 -0.1213 -0.2247  0.1598
 6044TIP3    H139767   0.418   1.209   7.008  3.3678 -0.5357  4.3496
 6044TIP3    H239768   0.523   1.277   6.922 -1.0434 -0.1558 -1.3728
 6045TIP3   OH239769   1.867   3.640   7.937 -0.1042  0.0447 -0.2255
 6045TIP3    H139770   1.941   3.701   7.940  0.6108 -0.7343 -1.1494
 6045TIP3    H239771   1.907   3.553   7.940 -1.0842 -0.4035  0.7749
 6046TIP3   OH239772   1.977   1.582   0.344  0.1277 -0.7946  0.0061
 6046TIP3    H139773   1.916   1.510   0.357 -2.0486  0.9422  0.0508
 6046TIP3    H239774   2.009   1.602   0.432 -3.5723  1.7315  1.0423
 6047TIP3   OH239775   4.245   2.508   7.234  0.3586 -0.3227 -0.3184
 6047TIP3    H139776   4.264   2.534   7.324 -1.7051  0.2997 -0.0087
 6047TIP3    H239777   4.231   2.591   7.188  4.7265 -0.3543 -2.1710
 6048TIP3   OH239778   2.232   1.732   0.804  0.0960  0.2641  0.0661
 6048TIP3    H139779   2.173   1.794   0.846 -1.6402 -0.3911 -1.2561
 6048TIP3    H239780   2.317   1.747   0.845 -1.4440 -0.5115  3.9933
 6049TIP3   OH239781   1.444   2.337   7.599  0.2196 -0.0720  0.2933
 6049TIP3    H139782   1.438   2.324   7.504 -0.4513  0.0138  0.3158
 6049TIP3    H239783   1.535   2.319   7.620  0.5932  0.7921 -0.5033
 6050TIP3   OH239784   5.790   0.633   8.187 -0.2608  0.3043  0.3518
 6050TIP3    H139785   5.805   0.561   8.248 -1.4601 -0.3767 -0.1256
 6050TIP3    H239786   5.755   0.703   8.242 -0.3837  0.0497  0.6017
 6051TIP3   OH239787   2.578   4.150   6.790 -0.4639  0.3281 -0.4043
 6051TIP3    H139788   2.605   4.108   6.871 -0.2025 -1.4366 -1.3680
 6051TIP3    H239789   2.659   4.161   6.741 -0.8438 -0.4181 -1.2285
 6052TIP3   OH239790   0.258   3.786   2.536  0.2357  0.1394  1.1506
 6052TIP3    H139791   0.297   3.749   2.457 -0.6304 -0.2693  0.9063
 6052TIP3    H239792   0.218   3.867   2.507 -0.2056 -0.0815  1.1392
 6053TIP3   OH239793   0.925   4.390   0.135 -0.4604  0.0866 -0.4062
 6053TIP3    H139794   0.961   4.383   0.223  0.8145 -0.1784 -0.9250
 6053TIP3    H239795   0.905   4.300   0.109  2.2810 -0.3009 -1.5851
 6054TIP3   OH239796   3.674   6.218   6.549  0.9709 -0.2512  0.1746
 6054TIP3    H139797   3.725   6.203   6.629  0.4304 -1.3165  0.3395
 6054TIP3    H239798   3.712   6.157   6.485  0.4886 -0.4176  0.0437
 6055TIP3   OH239799   5.123   4.626   7.290 -0.0150 -0.2975 -0.1458
 6055TIP3    H139800   5.211   4.608   7.256  0.4733 -1.5939  1.6799
 6055TIP3    H239801   5.137   4.684   7.364 -0.5878 -1.2696  0.7495
 6056TIP3   OH239802   3.151   3.969   1.936 -0.4624  0.3548  0.1795
 6056TIP3    H139803   3.129   3.897   1.996 -1.2598  1.1198  0.8350
 6056TIP3    H239804   3.209   4.026   1.986 -0.2505  0.4374 -0.1576
 6057TIP3   OH239805   2.087   0.743   7.687 -0.7164 -0.0406 -0.4114
 6057TIP3    H139806   2.084   0.682   7.761  0.4204  1.0328  0.5738
 6057TIP3    H239807   2.177   0.736   7.654 -1.3050 -0.7532 -1.9305
 6058TIP3   OH239808   3.095   0.126   0.321  0.1167  0.2303 -0.4934
 6058TIP3    H139809   3.029   0.181   0.280  0.0795 -0.2078 -1.0359
 6058TIP3    H239810   3.178   0.155   0.284  0.5147  2.0939  1.5929
 6059TIP3   OH239811   2.659   2.378   7.859  0.2519  0.6660 -0.5354
 6059TIP3    H139812   2.750   2.405   7.871 -0.1755  1.7298  0.4783
 6059TIP3    H239813   2.659   2.284   7.878  0.7851  1.0478  1.6534
 6060TIP3   OH239814   2.865   2.968   6.776 -0.6297 -0.7187  0.0702
 6060TIP3    H139815   2.944   3.000   6.731 -1.3622  1.1213  0.0230
 6060TIP3    H239816   2.831   3.044   6.822 -1.6426 -1.8258  1.2185
 6061TIP3   OH239817   2.381   1.081   0.162 -0.0982  0.2150  0.5681
 6061TIP3    H139818   2.291   1.080   0.131 -0.3463  0.3105  1.2841
 6061TIP3    H239819   2.424   1.148   0.109 -0.7157  0.9476  0.9788
 6062TIP3   OH239820   4.310   5.946   6.964  0.7218 -0.4213 -0.5822
 6062TIP3    H139821   4.320   5.973   6.873  2.6242 -4.0435 -1.6310
 6062TIP3    H239822   4.372   6.001   7.012 -0.0636  1.3040 -1.4354
 6063TIP3   OH239823   2.625   3.383   8.631 -0.0930  0.0525  0.4968
 6063TIP3    H139824   2.588   3.467   8.658  2.2132  0.9553  1.0665
 6063TIP3    H239825   2.623   3.385   8.535  0.4281  0.9960  0.5017
 6064TIP3   OH239826   6.246   2.102   7.259  0.4940 -0.1943 -0.1021
 6064TIP3    H139827   6.214   2.096   7.169 -0.0329  1.7480 -0.0914
 6064TIP3    H239828   6.171   2.077   7.313  0.6531 -0.8537 -0.1772
 6065TIP3   OH239829   3.287   1.804   2.017 -0.0534  0.2832 -0.4703
 6065TIP3    H139830   3.318   1.724   2.060 -1.5695 -0.2751 -0.3452
 6065TIP3    H239831   3.350   1.871   2.043 -0.6467 -0.1101  2.3196
 6066TIP3   OH239832   2.290   4.379   8.395  0.2232  0.7978 -0.0009
 6066TIP3    H139833   2.234   4.303   8.382 -0.8003  1.4423  0.5145
 6066TIP3    H239834   2.251   4.448   8.341  0.1312  1.4436  0.8691
 6067TIP3   OH239835   2.473   2.595   6.444  1.2859 -0.3051  0.4503
 6067TIP3    H139836   2.517   2.595   6.529  3.3781 -0.7317 -0.5752
 6067TIP3    H239837   2.435   2.508   6.437 -1.8746  0.7683  2.3115
 6068TIP3   OH239838   2.220   2.741   7.080 -0.0686  0.1217 -0.2035
 6068TIP3    H139839   2.167   2.762   7.157  0.7932  1.1226  0.1452
 6068TIP3    H239840   2.277   2.817   7.069  0.1833 -0.2362 -1.5285
 6069TIP3   OH239841   0.025   2.401   0.867  0.2989  0.0118 -0.2852
 6069TIP3    H139842   0.050   2.405   0.959 -2.0084 -0.2832  0.4180
 6069TIP3    H239843   0.044   2.310   0.841  1.1996  0.1669 -0.1960
 6070TIP3   OH239844   2.057   4.436   7.384  0.2928  0.6173  0.3495
 6070TIP3    H139845   2.099   4.376   7.323  0.1920  1.4028 -0.5120
 6070TIP3    H239846   1.967   4.403   7.393  1.1464 -1.3885  2.6213
 6071TIP3   OH239847   4.653   4.820   6.126 -0.4943 -0.0154 -0.3727
 6071TIP3    H139848   4.610   4.895   6.085 -1.5675 -1.3470 -1.7895
 6071TIP3    H239849   4.599   4.801   6.203 -0.1053  0.7424  0.1094
 6072TIP3   OH239850   2.620   4.934   6.298  0.2300 -0.1798  0.0774
 6072TIP3    H139851   2.679   4.917   6.224 -0.2861 -1.1986 -0.1108
 6072TIP3    H239852   2.633   4.860   6.357  0.6127  0.6076  1.0171
 6073TIP3   OH239853   6.399   5.255   0.433 -0.1662 -0.2831  0.1757
 6073TIP3    H139854   6.351   5.324   0.479 -1.2653 -1.2716  0.5551
 6073TIP3    H239855   6.385   5.275   0.340 -0.0059  0.3078  0.2717
 6074TIP3   OH239856   4.872   6.330   1.828 -0.1716 -0.0186 -0.2196
 6074TIP3    H139857   4.807   6.263   1.809  0.6775 -1.7129  2.3344
 6074TIP3    H239858   4.955   6.293   1.796  0.2200  0.0417  0.6884
 6075TIP3   OH239859   2.223   4.783   7.740 -0.0000 -0.7061 -0.6442
 6075TIP3    H139860   2.191   4.744   7.821 -0.6936  1.2591  0.1016
 6075TIP3    H239861   2.176   4.736   7.671 -0.3893 -1.5350  0.1638
 6076TIP3   OH239862   3.231   4.629   0.366 -0.1798 -0.1065  0.1239
 6076TIP3    H139863   3.202   4.543   0.333 -1.3645  0.7437 -1.1604
 6076TIP3    H239864   3.166   4.652   0.432  0.2427 -0.2557  0.6010
 6077TIP3   OH239865   2.266   2.362   0.411 -0.1002 -0.2959  0.0818
 6077TIP3    H139866   2.198   2.341   0.348  2.0539  0.5363 -2.7215
 6077TIP3    H239867   2.296   2.278   0.444 -0.8834 -0.7811 -0.4310
 6078TIP3   OH239868   1.804   3.171   0.883 -0.2646 -0.7777 -0.0773
 6078TIP3    H139869   1.753   3.245   0.851  0.1875 -0.1219  0.6635
 6078TIP3    H239870   1.838   3.200   0.968  0.3596 -1.6357 -0.0128
 6079TIP3   OH239871   4.267   1.056   8.582  0.5041  0.2347  0.5580
 6079TIP3    H139872   4.311   1.118   8.524  1.6767 -0.8447  0.2645
 6079TIP3    H239873   4.322   0.978   8.581 -1.1534 -1.0038  0.5657
 6080TIP3   OH239874   1.346   0.019   7.760  0.2215 -0.2455 -0.4228
 6080TIP3    H139875   1.268   0.059   7.798  0.8816  1.0493 -0.3963
 6080TIP3    H239876   1.329   0.019   7.665  0.3173  0.3026 -0.4389
 6081TIP3   OH239877   3.735   2.022   1.702 -0.9768  0.0273  0.4617
 6081TIP3    H139878   3.781   2.106   1.698 -1.0900  0.0661 -0.2304
 6081TIP3    H239879   3.650   2.042   1.741 -0.8374  0.1570  0.6987
 6082TIP3   OH239880   3.913   3.711   7.907  0.0852  0.5546 -1.1039
 6082TIP3    H139881   3.891   3.679   7.820  1.6103  1.4878 -1.8766
 6082TIP3    H239882   3.897   3.636   7.965 -2.3933  0.3743 -1.9158
 6083TIP3   OH239883   4.215   6.793   8.078 -0.1048  0.1296 -0.4777
 6083TIP3    H139884   4.169   6.781   7.995  1.4643 -1.2689 -1.2078
 6083TIP3    H239885   4.281   6.859   8.059 -0.6173  0.8164  0.0688
 6084TIP3   OH239886   1.722   0.814   0.787 -0.6918 -0.2192  0.0652
 6084TIP3    H139887   1.690   0.902   0.807 -0.8242 -0.2856  0.1486
 6084TIP3    H239888   1.801   0.805   0.839 -1.2097 -0.5130  0.8242
 6085TIP3   OH239889   2.083   5.182   6.663 -0.3288  0.1198 -0.6906
 6085TIP3    H139890   2.176   5.202   6.671  0.2338 -2.7245  3.4448
 6085TIP3    H239891   2.081   5.093   6.627 -1.6311  0.6963 -2.1748
 6086TIP3   OH239892   4.806   1.110   1.182  0.0144  0.0586  0.2688
 6086TIP3    H139893   4.769   1.096   1.095 -0.4238  2.1841  0.0632
 6086TIP3    H239894   4.738   1.081   1.242 -0.7765  1.0484 -0.1190
 6087TIP3   OH239895   1.560   5.213   8.122  0.2265 -0.0326 -0.5366
 6087TIP3    H139896   1.506   5.250   8.052 -0.1009  0.0500 -0.2450
 6087TIP3    H239897   1.623   5.157   8.077 -0.3556 -0.4391 -0.8579
 6088TIP3   OH239898   1.735   1.661   1.529  0.2087 -0.1157 -0.1144
 6088TIP3    H139899   1.804   1.694   1.472  0.7427  1.4282  1.3270
 6088TIP3    H239900   1.741   1.717   1.607 -2.2086 -0.4121  0.3404
 6089TIP3   OH239901   3.809   0.486   0.874 -0.5723 -0.0381 -0.4492
 6089TIP3    H139902   3.733   0.482   0.816  0.3469 -0.2796 -1.6895
 6089TIP3    H239903   3.864   0.413   0.846  0.6226  0.7774 -0.3113
 6090TIP3   OH239904   3.832   5.838   0.279 -0.6420  0.3897 -0.2379
 6090TIP3    H139905   3.844   5.748   0.309  2.5558  1.0032  0.7377
 6090TIP3    H239906   3.749   5.865   0.318 -1.4278 -1.9411 -0.1231
 6091TIP3   OH239907   4.248   3.989   7.851  0.1455  0.2827 -0.4314
 6091TIP3    H139908   4.220   3.898   7.860 -0.0802  0.3090 -0.8280
 6091TIP3    H239909   4.170   4.036   7.822 -0.1217  0.8838  1.2002
 6092TIP3   OH239910   3.194   2.826   8.291 -0.9794 -0.0677 -0.3005
 6092TIP3    H139911   3.180   2.777   8.372  0.7342 -0.5759 -0.2563
 6092TIP3    H239912   3.273   2.877   8.308  0.1958 -1.1743 -2.0347
 6093TIP3   OH239913   6.127   4.681   1.477  0.5707  0.6724 -0.3700
 6093TIP3    H139914   6.042   4.715   1.448 -0.8920 -1.8366  0.6601
 6093TIP3    H239915   6.145   4.728   1.559  0.9268  2.2245 -1.3006
 6094TIP3   OH239916   1.520   3.756   2.422  0.7158  0.3593  0.8059
 6094TIP3    H139917   1.487   3.822   2.482  1.6996  0.3250  1.4164
 6094TIP3    H239918   1.484   3.674   2.455  1.1662  0.3536  1.2930
 6095TIP3   OH239919   1.636   3.730   8.049 -0.4424 -0.1704  0.0127
 6095TIP3    H139920   1.719   3.717   8.004  0.2267  2.4441  0.3364
 6095TIP3    H239921   1.652   3.700   8.138  0.7509  1.7517  0.5157
 6096TIP3   OH239922   6.086   5.053   1.630  0.5341  0.3341 -0.1048
 6096TIP3    H139923   6.144   5.023   1.560 -0.5815  1.7885 -1.7523
 6096TIP3    H239924   6.114   5.142   1.648 -0.5561  0.7380 -0.2872
 6097TIP3   OH239925   6.472   6.595   1.954 -0.0413 -0.4723  0.3568
 6097TIP3    H139926   6.399   6.654   1.973  0.7166 -0.3388  3.2518
 6097TIP3    H239927   6.543   6.653   1.927 -0.8152 -0.5825 -2.1825
 6098TIP3   OH239928   6.558   6.370   0.955  0.5033 -0.5183 -0.3268
 6098TIP3    H139929   6.498   6.419   0.898 -0.2030 -0.3535  0.5349
 6098TIP3    H239930   6.543   6.278   0.932 -0.5023 -0.5175  0.2547
 6099TIP3   OH239931   4.529   6.475   8.375  0.2936 -0.0272  0.2243
 6099TIP3    H139932   4.511   6.531   8.451 -1.5181 -1.5985  1.0518
 6099TIP3    H239933   4.478   6.513   8.304  3.7250  2.7963 -1.0301
 6100TIP3   OH239934   0.484   1.472   7.742 -0.2424  0.2277 -0.4063
 6100TIP3    H139935   0.495   1.565   7.764 -0.0518  0.2686 -0.6590
 6100TIP3    H239936   0.430   1.473   7.662 -0.8851  0.0858  0.0199
 6101TIP3   OH239937   1.009   4.811   7.563 -0.1185 -0.0517 -0.1676
 6101TIP3    H139938   0.953   4.860   7.623  0.2448 -0.7382  0.7555
 6101TIP3    H239939   0.957   4.734   7.540 -0.1064  0.0169 -0.4170
 6102TIP3   OH239940   6.885   5.010   2.179 -0.3135 -0.1995 -0.0346
 6102TIP3    H139941   6.894   4.956   2.258  0.5912 -2.2352 -1.4576
 6102TIP3    H239942   6.968   5.059   2.175 -0.5766  0.3117  0.5274
 6103TIP3   OH239943   6.635   4.811   7.515  0.0784 -0.5383 -0.0521
 6103TIP3    H139944   6.548   4.842   7.490  0.6533  0.5378 -0.8057
 6103TIP3    H239945   6.665   4.874   7.582  0.4834 -0.5895 -0.1820
 6104TIP3   OH239946   1.388   2.941   0.074  0.1731  0.0938 -0.3724
 6104TIP3    H139947   1.304   2.959   0.032  0.2659  1.0503 -0.1633
 6104TIP3    H239948   1.451   2.996   0.027  0.2131  1.5225  1.2766
 6105TIP3   OH239949   2.088   0.063   7.641 -0.0960  0.1527  0.0028
 6105TIP3    H139950   2.021   0.017   7.591  2.9205 -1.2363 -3.2230
 6105TIP3    H239951   2.097   0.148   7.597  0.6125  0.1048  0.0401
 6106TIP3   OH239952   1.729   0.148   1.614  0.3846  0.1301  0.1200
 6106TIP3    H139953   1.651   0.204   1.619  0.9618  1.1233 -1.2530
 6106TIP3    H239954   1.722   0.105   1.529  2.2618  1.7427 -0.9259
 6107TIP3   OH239955   1.447   6.432   6.964  0.3129 -0.1216 -0.7323
 6107TIP3    H139956   1.506   6.404   7.034  1.1650  0.6728 -1.1048
 6107TIP3    H239957   1.359   6.410   6.995  0.8665 -3.0323 -0.9392
 6108TIP3   OH239958   3.642   4.949   7.014 -0.1795 -0.2020  0.1276
 6108TIP3    H139959   3.693   4.989   6.943  1.7780 -2.7936 -0.0578
 6108TIP3    H239960   3.680   4.985   7.094 -1.3105  1.4679 -0.0155
 6109TIP3   OH239961   1.360   0.929   1.712  0.0798 -0.2354 -0.6809
 6109TIP3    H139962   1.347   0.912   1.805 -0.2839 -0.9912 -0.8553
 6109TIP3    H239963   1.370   1.024   1.705 -1.0588 -0.0432 -0.0100
 6110TIP3   OH239964   0.001   2.493   7.674 -0.1036 -0.3133  0.1926
 6110TIP3    H139965  -0.027   2.521   7.587  1.9061  1.1156 -0.0671
 6110TIP3    H239966  -0.057   2.420   7.696 -0.9540 -0.4079 -2.1259
 6111TIP3   OH239967   5.258   2.472   7.506  0.4746  0.5322 -0.2352
 6111TIP3    H139968   5.166   2.484   7.529  0.3732 -1.0127  0.2356
 6111TIP3    H239969   5.303   2.546   7.548 -0.3066  0.2325  1.1758
 6112TIP3   OH239970   0.259   3.698   8.032 -0.2052 -0.3633  0.3807
 6112TIP3    H139971   0.350   3.727   8.025 -0.7716  2.3270  2.2488
 6112TIP3    H239972   0.224   3.706   7.944  0.8018  0.8689  0.0637
 6113TIP3   OH239973   2.521   0.441   1.536  0.3825  0.4101  0.1312
 6113TIP3    H139974   2.587   0.510   1.541  0.5390  0.2129  0.9239
 6113TIP3    H239975   2.546   0.378   1.603  0.3014 -0.4820 -0.6442
 6114TIP3   OH239976   1.289   4.570   2.079  0.4957  0.4687  0.1551
 6114TIP3    H139977   1.341   4.648   2.056  1.3310  0.0328  0.5364
 6114TIP3    H239978   1.239   4.597   2.156  2.0916  0.1148  1.3683
 6115TIP3   OH239979   4.227   5.162   8.012  0.3147 -0.4060  0.0069
 6115TIP3    H139980   4.284   5.105   7.959  0.3096  0.9529 -1.5445
 6115TIP3    H239981   4.148   5.172   7.959  0.2845  0.9675  0.2730
 6116TIP3   OH239982   1.826   0.877   8.050  0.2788 -0.1113  0.4570
 6116TIP3    H139983   1.891   0.820   8.091  0.7030  0.0499  0.0227
 6116TIP3    H239984   1.743   0.831   8.062  0.4315 -0.1820  1.2698
 6117TIP3   OH239985   1.399   1.484   2.600  0.4040 -0.2151 -0.0921
 6117TIP3    H139986   1.443   1.399   2.600 -0.0731 -0.5132  2.1193
 6117TIP3    H239987   1.306   1.464   2.610 -0.0062  0.5319 -1.8534
 6118TIP3   OH239988   2.132   3.540   7.892 -0.1973  0.5530  0.6845
 6118TIP3    H139989   2.135   3.635   7.884  0.2114  0.4533 -0.4918
 6118TIP3    H239990   2.169   3.522   7.979 -0.1863  1.4519  0.8749
 6119TIP3   OH239991   6.300   1.378   2.142 -0.4831 -0.3191  0.1857
 6119TIP3    H139992   6.265   1.295   2.175 -1.0814  0.0714  0.5730
 6119TIP3    H239993   6.348   1.355   2.063  3.2062 -1.7074  2.5685
 6120TIP3   OH239994   5.319   5.687   0.339  0.1754 -0.0537 -0.0660
 6120TIP3    H139995   5.292   5.701   0.430  0.4194 -2.7195  0.5013
 6120TIP3    H239996   5.392   5.626   0.345  0.1593 -0.3442 -2.0782
 6121TIP3   OH239997   3.606   4.962   6.408  0.2230 -0.0334  0.2694
 6121TIP3    H139998   3.543   5.032   6.426  0.2927  0.5948 -1.6190
 6121TIP3    H239999   3.559   4.903   6.349  1.1637  0.0876 -0.6285
 6122TIP3   OH240000   3.382   1.444   7.757 -0.0867  0.4642 -0.7269
 6122TIP3    H140001   3.470   1.453   7.721 -0.4993 -1.4682 -2.3773
 6122TIP3    H240002   3.328   1.501   7.703 -0.3197 -0.6700 -1.7255
 6123TIP3   OH240003   0.636   3.443   1.282  0.0921  1.0409 -0.1048
 6123TIP3    H140004   0.623   3.488   1.365  0.5808  2.5064 -0.7786
 6123TIP3    H240005   0.616   3.510   1.216  4.5038  1.6096 -1.1978
 6124TIP3   OH240006   5.009   0.534   2.142 -0.2614 -0.3261  0.2532
 6124TIP3    H140007   4.954   0.558   2.217 -0.7477 -1.9811  0.4727
 6124TIP3    H240008   4.971   0.452   2.110  0.9148 -0.4872 -0.8201
 6125TIP3   OH240009   0.564   2.190   7.918  0.1606 -0.1659  0.2049
 6125TIP3    H140010   0.566   2.284   7.900  1.0903 -0.1806  0.1702
 6125TIP3    H240011   0.604   2.150   7.840 -1.3471 -0.6909 -0.3258
 6126TIP3   OH240012   0.647   1.087   7.898  0.3537  0.5874 -0.0767
 6126TIP3    H140013   0.570   1.031   7.893  1.0369 -0.4642  0.6912
 6126TIP3    H240014   0.684   1.086   7.809  0.2010  0.0365 -0.1368
 6127TIP3   OH240015   0.294   2.619   6.908  0.0086  0.2208  0.2974
 6127TIP3    H140016   0.380   2.660   6.895 -0.3470  0.8434 -0.1137
 6127TIP3    H240017   0.262   2.602   6.819  0.6744 -2.0932  0.4370
 6128TIP3   OH240018   5.208   0.390   0.083  0.2301  0.2261 -0.2704
 6128TIP3    H140019   5.113   0.404   0.084  0.1132 -0.5083  0.4161
 6128TIP3    H240020   5.243   0.464   0.033 -0.8527 -0.5158 -2.2062
 6129TIP3   OH240021   3.891   1.732   0.783  0.4249 -0.0946  0.0287
 6129TIP3    H140022   3.924   1.705   0.697  0.0268 -0.8403  0.1013
 6129TIP3    H240023   3.809   1.777   0.763  0.7111  0.4027 -0.0357
 6130TIP3   OH240024   6.337   6.011   7.305 -0.0739 -0.1286 -0.3413
 6130TIP3    H140025   6.374   6.098   7.289 -1.9662  1.1067  1.4947
 6130TIP3    H240026   6.267   6.003   7.240 -1.1304  0.5698  0.6750
 6131TIP3   OH240027   4.837   2.611   1.643 -0.3632  0.1167 -0.6081
 6131TIP3    H140028   4.889   2.604   1.723 -0.7199  2.0744 -0.1448
 6131TIP3    H240029   4.888   2.563   1.577 -0.9000 -3.0831  1.0926
 6132TIP3   OH240030   3.562   0.767   0.689 -0.0280 -0.3599  0.3542
 6132TIP3    H140031   3.534   0.781   0.598 -1.1653  0.5694  0.8047
 6132TIP3    H240032   3.615   0.844   0.710 -0.4403 -0.1662  0.7112
 6133TIP3   OH240033   5.373   3.336   7.567  0.2872 -0.5313 -0.4776
 6133TIP3    H140034   5.397   3.244   7.552 -2.0936 -1.5361  1.1875
 6133TIP3    H240035   5.399   3.352   7.658  3.5728  1.5859 -1.5852
 6134TIP3   OH240036   6.033   6.429   0.695  0.2601  0.0744 -0.3493
 6134TIP3    H140037   5.947   6.469   0.685  0.0190 -0.6817 -1.5377
 6134TIP3    H240038   6.083   6.458   0.618  1.9376  2.4927  1.5240
 6135TIP3   OH240039   5.423   5.316   7.177 -0.1730  0.4685 -0.3640
 6135TIP3    H140040   5.510   5.318   7.137  0.6148 -0.0143  1.2274
 6135TIP3    H240041   5.438   5.345   7.267 -0.8372 -3.5543  1.2714
 6136TIP3   OH240042   3.117   4.871   6.856  0.3504 -0.0202 -0.6650
 6136TIP3    H140043   3.201   4.847   6.817  1.4403  0.6588  1.1021
 6136TIP3    H240044   3.125   4.846   6.948 -0.9021  1.1869 -0.1770
 6137TIP3   OH240045   2.857   2.695   0.473 -0.3081  0.0931  0.0096
 6137TIP3    H140046   2.778   2.731   0.433 -2.3272 -3.2888  0.5422
 6137TIP3    H240047   2.912   2.671   0.398 -1.2126 -0.4094 -0.5138
 6138TIP3   OH240048   3.761   1.200   8.335 -0.5173 -0.5215 -0.0907
 6138TIP3    H140049   3.667   1.186   8.323 -0.8944  0.7505  1.0378
 6138TIP3    H240050   3.802   1.125   8.293 -2.0636 -1.4622 -0.0062
 6139TIP3   OH240051   6.218   1.472   1.320 -0.2061 -0.4641 -0.0489
 6139TIP3    H140052   6.286   1.493   1.384 -1.3080  1.4213  0.5985
 6139TIP3    H240053   6.264   1.463   1.237  1.1622 -2.1657  0.8144
 6140TIP3   OH240054   0.146   0.853   0.983  0.6683  0.1064 -0.5080
 6140TIP3    H140055   0.240   0.839   0.992  0.5787 -1.0065 -1.0855
 6140TIP3    H240056   0.137   0.917   0.912  0.9724 -0.4605 -1.0687
 6141TIP3   OH240057   4.722   1.786   1.133  0.1936  0.1336 -0.9507
 6141TIP3    H140058   4.757   1.847   1.198  0.8435  1.1927 -2.2449
 6141TIP3    H240059   4.634   1.820   1.113 -0.6776 -1.1374  0.5325
 6142TIP3   OH240060   6.616   4.279   0.741  0.1867  0.7823  0.1008
 6142TIP3    H140061   6.658   4.197   0.714  0.0794  1.0289 -0.8633
 6142TIP3    H240062   6.668   4.309   0.815  0.0933 -0.2638  0.6128
 6143TIP3   OH240063   2.069   1.776   7.086 -0.3054  0.3898  0.2022
 6143TIP3    H140064   2.068   1.808   6.996 -1.4248 -1.2823 -0.4260
 6143TIP3    H240065   2.162   1.771   7.108 -0.0439  1.5668 -0.5628
 6144TIP3   OH240066   2.739   4.482   8.352  0.3292  0.1893 -0.4033
 6144TIP3    H140067   2.766   4.544   8.284 -0.3219  0.6269 -0.2749
 6144TIP3    H240068   2.735   4.535   8.432  1.4392 -0.3976  0.0548
 6145TIP3   OH240069   0.896   1.153   0.504  0.0056  0.4358  0.1498
 6145TIP3    H140070   0.987   1.173   0.484  1.2864 -1.4623  3.3819
 6145TIP3    H240071   0.879   1.070   0.458 -0.5284  1.2957 -1.2933
 6146TIP3   OH240072   0.910   1.015   0.996 -0.4592  0.5960  0.0606
 6146TIP3    H140073   0.847   0.998   0.926  0.7670  0.1974 -0.9838
 6146TIP3    H240074   0.951   0.930   1.012 -1.3461  0.4771  1.9222
 6147TIP3   OH240075   3.108   1.606   8.585  0.2928 -0.3415 -0.3125
 6147TIP3    H140076   3.057   1.683   8.559  0.5147  0.0593  0.4304
 6147TIP3    H240077   3.196   1.640   8.603  0.0970 -0.5521  1.1810
 6148TIP3   OH240078   4.444   5.977   6.710  0.3642 -0.3130 -0.1623
 6148TIP3    H140079   4.434   5.889   6.674  5.3758 -1.0525 -0.3544
 6148TIP3    H240080   4.415   6.035   6.640 -1.7177 -1.6733 -0.5366
 6149TIP3   OH240081   0.687   3.042   1.243  0.0077  0.0257  0.1420
 6149TIP3    H140082   0.670   3.122   1.193 -0.4767  0.0635  0.3628
 6149TIP3    H240083   0.642   2.973   1.193  0.4369 -0.1112 -0.0563
 6150TIP3   OH240084   0.350   0.147   8.633 -0.0116  0.1518  0.3533
 6150TIP3    H140085   0.323   0.154   8.724  0.9144  2.5530  0.5127
 6150TIP3    H240086   0.446   0.153   8.635 -0.0489  2.5841 -0.8403
 6151TIP3   OH240087   1.731   1.105   0.560 -0.1651  0.0163 -0.1351
 6151TIP3    H140088   1.785   1.118   0.482 -1.2308 -1.1559 -1.1142
 6151TIP3    H240089   1.641   1.121   0.529 -0.6277 -0.7349  0.7773
 6152TIP3   OH240090   5.064   5.608   0.171 -0.7903 -0.1219  0.5030
 6152TIP3    H140091   5.142   5.596   0.117 -0.4728 -0.6127  1.0481
 6152TIP3    H240092   5.038   5.518   0.195 -2.1824 -0.0291 -0.5842
 6153TIP3   OH240093   6.150   4.912   7.713 -0.0942 -0.0200 -0.6541
 6153TIP3    H140094   6.062   4.901   7.750  0.5323 -0.2957  0.8425
 6153TIP3    H240095   6.192   4.975   7.772  1.1578 -0.9524 -0.5129
 6154TIP3   OH240096   5.511   5.193   8.105 -0.3198 -0.3436  0.2205
 6154TIP3    H140097   5.483   5.145   8.027  0.7559  0.3245 -0.6158
 6154TIP3    H240098   5.467   5.277   8.098  0.3316 -0.0162 -0.0683
 6155TIP3   OH240099   0.395   4.503   1.453  0.0346  0.3699 -0.0421
 6155TIP3    H140100   0.428   4.413   1.456 -0.2250  0.2771 -0.0064
 6155TIP3    H240101   0.419   4.533   1.365 -1.0580 -0.1816 -0.5492
 6156TIP3   OH240102   2.085   1.035   8.329 -0.3820 -0.0870 -0.3194
 6156TIP3    H140103   2.148   1.031   8.257 -0.9344  0.7951 -0.8680
 6156TIP3    H240104   2.037   1.117   8.315  0.3975  0.8110  1.7959
 6157TIP3   OH240105   3.459   3.730   7.436  0.5931 -0.4903  0.2232
 6157TIP3    H140106   3.457   3.777   7.520  0.8240 -1.9880  1.0930
 6157TIP3    H240107   3.462   3.800   7.370  2.3723  0.7444  1.5083
 6158TIP3   OH240108   6.803   4.996   8.139 -0.1248 -0.1097  0.0246
 6158TIP3    H140109   6.784   4.932   8.071 -0.9889 -1.4261  1.4244
 6158TIP3    H240110   6.722   5.003   8.189  0.7971 -0.0407  1.5727
 6159TIP3   OH240111   0.091   2.268   0.324  0.4443  0.2608  0.2417
 6159TIP3    H140112   0.039   2.199   0.365  0.2834 -0.1617 -0.6545
 6159TIP3    H240113   0.176   2.263   0.368  0.2309 -0.0853  0.6186
 6160TIP3   OH240114   0.864   1.775   1.814  0.2512  0.0197 -0.8188
 6160TIP3    H140115   0.787   1.801   1.864  1.4781 -0.3238  1.3750
 6160TIP3    H240116   0.938   1.809   1.865  1.7059 -2.9872 -0.7321
 6161TIP3   OH240117   4.605   4.397   7.108 -0.1607 -0.6626  0.0357
 6161TIP3    H140118   4.656   4.417   7.186 -1.3770 -0.6819  0.8600
 6161TIP3    H240119   4.611   4.476   7.054  1.0072 -0.7946 -0.0546
 6162TIP3   OH240120   6.582   4.026   0.427  0.1339  0.2605  0.1546
 6162TIP3    H140121   6.513   4.067   0.375 -0.0712  1.1211  1.0895
 6162TIP3    H240122   6.547   3.939   0.448  0.1288 -0.0145 -0.9490
 6163TIP3   OH240123   1.248   1.250   2.042  0.1428 -0.5062  0.6186
 6163TIP3    H140124   1.315   1.184   2.024 -0.4890 -1.4430  1.5576
 6163TIP3    H240125   1.165   1.205   2.027 -0.2964  0.1616  0.9858
 6164TIP3   OH240126   2.776   0.020   0.064  0.0725  0.0539  0.1551
 6164TIP3    H140127   2.835  -0.027   0.123 -0.9663 -0.9258  0.4353
 6164TIP3    H240128   2.693  -0.027   0.070 -0.2636  0.3815 -1.5357
 6165TIP3   OH240129   4.018   5.311   8.208  0.2156 -0.5678 -0.3111
 6165TIP3    H140130   4.020   5.384   8.270  0.0105 -1.5270  0.8834
 6165TIP3    H240131   3.952   5.335   8.143  0.8650  0.7366 -0.5200
 6166TIP3   OH240132   4.835   4.021   7.526 -0.0192  0.0136  0.1368
 6166TIP3    H140133   4.923   4.033   7.492  0.2117  3.9932  1.5964
 6166TIP3    H240134   4.780   4.077   7.472 -0.9139  0.5928  1.5740
 6167TIP3   OH240135   3.744   0.692   1.834 -0.0806  0.3253  0.3545
 6167TIP3    H140136   3.686   0.645   1.894  0.3496  1.3301  1.6089
 6167TIP3    H240137   3.694   0.770   1.809  0.1947  0.4938  0.3292
 6168TIP3   OH240138   5.086   6.393   6.445  0.1029  0.2183  0.4537
 6168TIP3    H140139   5.128   6.476   6.466 -0.0707  0.1962  0.8941
 6168TIP3    H240140   4.996   6.417   6.424  0.6294  0.4376 -1.8234
 6169TIP3   OH240141   4.565   6.665   7.122 -0.5312 -0.0536 -0.1628
 6169TIP3    H140142   4.514   6.745   7.134 -0.1547  0.2252 -0.4070
 6169TIP3    H240143   4.651   6.695   7.095 -0.3364 -0.5375 -0.0930
 6170TIP3   OH240144   4.152   0.978   7.784  0.1709 -0.4082 -0.1210
 6170TIP3    H140145   4.068   0.964   7.740 -0.1862  0.6117  0.2006
 6170TIP3    H240146   4.200   1.036   7.725  0.0040  0.3150  0.4438
 6171TIP3   OH240147   0.074   2.831   0.514 -0.1484  0.1813 -0.7335
 6171TIP3    H140148  -0.014   2.817   0.480 -0.7521 -0.0706  0.8459
 6171TIP3    H240149   0.110   2.743   0.524 -0.6052  0.1311  0.7687
 6172TIP3   OH240150   3.112   3.141   0.705  0.1198 -0.2907  0.6005
 6172TIP3    H140151   3.153   3.060   0.736  0.1134 -0.4880  0.1136
 6172TIP3    H240152   3.107   3.197   0.782  0.9543 -0.4120  0.7538
 6173TIP3   OH240153   2.050   3.441   0.536 -0.0668  0.3735  0.3205
 6173TIP3    H140154   2.128   3.428   0.483 -0.4559  2.1192 -0.7801
 6173TIP3    H240155   2.067   3.393   0.617  1.6003 -0.3055 -0.3908
 6174TIP3   OH240156   5.947   4.618   7.042  0.7691 -0.1249 -0.3972
 6174TIP3    H140157   5.900   4.662   6.972  0.3238 -0.5897 -0.3963
 6174TIP3    H240158   5.918   4.662   7.122  0.5982 -0.1862 -0.4261
 6175TIP3   OH240159   2.819   1.001   1.034  0.4224  0.6799 -0.3020
 6175TIP3    H140160   2.893   1.056   1.059  2.0612 -1.8552  0.9210
 6175TIP3    H240161   2.859   0.916   1.013 -1.9648 -0.1617 -1.8361
 6176TIP3   OH240162   3.999   4.905   0.272  0.2677 -0.2390  0.2939
 6176TIP3    H140163   3.958   4.983   0.236 -0.7146  0.2502  2.2969
 6176TIP3    H240164   4.071   4.885   0.212  0.0900  1.7642 -0.6649
 6177TIP3   OH240165   2.673   3.371   2.468 -0.5040  0.4203  0.0052
 6177TIP3    H140166   2.763   3.404   2.467 -0.7970  1.2854  0.9169
 6177TIP3    H240167   2.669   3.312   2.543 -0.6822  0.3287 -0.0736
 6178TIP3   OH240168   6.247   5.073   7.287  0.1945  0.2114  0.0338
 6178TIP3    H140169   6.309   5.006   7.260 -1.3804 -0.6668 -1.6279
 6178TIP3    H240170   6.224   5.119   7.206 -2.4014 -0.4778  0.2879
 6179TIP3   OH240171   2.463   0.768   2.023  0.1542 -0.0662 -0.1492
 6179TIP3    H140172   2.373   0.777   2.054  0.1641  1.5861 -0.5377
 6179TIP3    H240173   2.489   0.856   1.999  1.5596 -0.6797 -0.9704
 6180TIP3   OH240174   0.264   2.959   6.869  0.1594  0.0493  0.1150
 6180TIP3    H140175   0.181   2.916   6.849  0.0155 -0.5739  1.8645
 6180TIP3    H240176   0.330   2.902   6.829 -0.2417  1.5764 -3.0146
 6181TIP3   OH240177   6.137   2.902   6.633 -0.2820 -0.3957  0.6054
 6181TIP3    H140178   6.059   2.848   6.624 -1.0823  0.6534  1.0038
 6181TIP3    H240179   6.108   2.990   6.611  1.1728 -0.2192 -0.8230
 6182TIP3   OH240180   5.558   3.980   1.368  0.1089 -0.5158  0.8243
 6182TIP3    H140181   5.487   4.042   1.351 -0.9298 -1.8250  0.2135
 6182TIP3    H240182   5.619   3.994   1.296 -1.3070 -1.8124 -0.7229
 6183TIP3   OH240183   5.217   5.815   8.172  0.0005 -0.0274  0.1694
 6183TIP3    H140184   5.179   5.889   8.126  0.7575 -0.2956 -0.9203
 6183TIP3    H240185   5.283   5.855   8.230 -0.0655  0.2001  0.0879
 6184TIP3   OH240186   6.427   3.612   7.811  0.0417  0.2355  0.0727
 6184TIP3    H140187   6.463   3.554   7.878 -1.7550 -1.1801 -0.1121
 6184TIP3    H240188   6.347   3.647   7.850 -1.0525 -0.6282 -1.2947
 6185TIP3   OH240189   6.035   5.288   0.178  0.3989 -0.0111  0.5946
 6185TIP3    H140190   6.078   5.235   0.111  2.0211  0.9147  0.8332
 6185TIP3    H240191   5.979   5.348   0.130 -0.0981 -0.7687  0.2179
 6186TIP3   OH240192   2.859   6.886   0.715  0.1958  0.2402 -0.0654
 6186TIP3    H140193   2.866   6.980   0.732 -0.0357  0.3602 -0.6042
 6186TIP3    H240194   2.766   6.872   0.697  0.5282  0.3335 -2.2289
 6187TIP3   OH240195   5.833   3.453   1.434  0.6924 -0.1846 -0.4307
 6187TIP3    H140196   5.773   3.508   1.484  1.0357 -0.6935  0.5806
 6187TIP3    H240197   5.833   3.490   1.346 -0.6097  0.2011 -0.2856
 6188TIP3   OH240198   5.950   5.550   8.466  0.3438  0.1756 -0.5859
 6188TIP3    H140199   5.939   5.645   8.473 -0.9022 -0.0189  0.5189
 6188TIP3    H240200   5.976   5.535   8.375  1.4164  1.6393 -0.5504
 6189TIP3   OH240201   6.233   5.467   0.290  0.0463  0.1949  0.1001
 6189TIP3    H140202   6.170   5.516   0.343 -0.6990 -0.5325 -0.1068
 6189TIP3    H240203   6.183   5.434   0.216  0.8104  0.1400 -0.4049
 6190TIP3   OH240204   5.296   2.785   0.334 -0.0154  0.4218  0.3858
 6190TIP3    H140205   5.288   2.858   0.394  0.9943  1.3693 -0.5739
 6190TIP3    H240206   5.264   2.819   0.250 -2.1659 -1.1090  0.4888
 6191TIP3   OH240207   1.773   2.350   7.881 -0.4475  0.1675 -0.1820
 6191TIP3    H140208   1.778   2.441   7.852 -0.8312  0.8016  1.6394
 6191TIP3    H240209   1.823   2.347   7.962 -0.1538 -1.3382 -0.3785
 6192TIP3   OH240210   3.255   4.904   7.290  0.0416 -0.1475  0.4735
 6192TIP3    H140211   3.308   4.904   7.370  1.7944  3.0363 -0.4939
 6192TIP3    H240212   3.206   4.987   7.294  2.2943  1.5630 -2.9019
 6193TIP3   OH240213   5.490   5.901   8.268  0.2364  0.4171  0.3731
 6193TIP3    H140214   5.534   5.845   8.332  0.3803 -1.1603 -1.0372
 6193TIP3    H240215   5.487   5.848   8.188 -2.1955  1.3476 -0.2251
 6194TIP3   OH240216   4.848   1.654   1.416  0.2919 -0.5875  0.1525
 6194TIP3    H140217   4.861   1.578   1.360  2.0102  0.1073 -0.4661
 6194TIP3    H240218   4.888   1.630   1.500  0.6328 -0.4404  0.0307
 6195TIP3   OH240219   5.559   3.862   6.970 -0.3123 -0.2404 -0.2713
 6195TIP3    H140220   5.582   3.830   7.057 -0.5309 -1.1274 -0.5325
 6195TIP3    H240221   5.558   3.784   6.914 -0.0401  0.3305 -1.1053
 6196TIP3   OH240222   4.572   2.323   8.395  0.0172  0.2590 -0.6471
 6196TIP3    H140223   4.613   2.309   8.310  0.2074  4.2919 -1.4115
 6196TIP3    H240224   4.514   2.397   8.382 -1.0423  0.1195  2.4594
 6197TIP3   OH240225   3.892   5.508   0.237  0.1446 -0.6508  0.8238
 6197TIP3    H140226   3.938   5.428   0.264  0.2348 -2.2370 -3.3195
 6197TIP3    H240227   3.962   5.573   0.227  0.7937 -1.4509 -0.1153
 6198TIP3   OH240228   1.115   0.509   7.464 -0.1888 -0.3613  0.5135
 6198TIP3    H140229   1.036   0.530   7.513 -1.0351 -0.8435 -0.5865
 6198TIP3    H240230   1.187   0.539   7.520 -1.1325 -0.0501  1.6059
 6199TIP3   OH240231   4.612   0.942   7.435 -0.6134  0.2958 -0.4863
 6199TIP3    H140232   4.593   1.035   7.424  0.3005  0.5673  0.0948
 6199TIP3    H240233   4.684   0.925   7.374 -0.8208 -0.0551 -0.6388
 6200TIP3   OH240234   3.321   2.272   0.565 -0.1330 -0.8990  0.0922
 6200TIP3    H140235   3.266   2.230   0.498 -1.3744  1.1383 -0.2451
 6200TIP3    H240236   3.373   2.336   0.517  0.0707 -0.4608  0.8883
 6201TIP3   OH240237   4.753   3.322   6.058 -0.1591 -0.4908 -0.0581
 6201TIP3    H140238   4.754   3.242   6.110 -0.3919 -1.4324 -1.4528
 6201TIP3    H240239   4.819   3.307   5.990 -0.0636  0.5845 -0.2175
 6202TIP3   OH240240   3.748   2.919   2.246 -0.1035  0.0741 -0.3626
 6202TIP3    H140241   3.663   2.886   2.275 -0.3808 -0.0792 -1.3181
 6202TIP3    H240242   3.759   3.001   2.294 -1.1392  0.4755 -0.7766
 6203TIP3   OH240243   5.246   2.098   8.298  0.4676 -0.0021  0.3988
 6203TIP3    H140244   5.250   2.004   8.280 -0.2227 -0.1798  1.1215
 6203TIP3    H240245   5.291   2.138   8.224  1.4332 -0.9359  0.4570
 6204TIP3   OH240246   0.349   2.049   1.458  0.3389 -0.2586 -0.5763
 6204TIP3    H140247   0.417   2.089   1.404 -0.5607  0.0485 -1.5214
 6204TIP3    H240248   0.275   2.108   1.450 -0.5407 -1.3631 -0.8305
 6205TIP3   OH240249   1.373   4.984   0.415 -0.1940 -0.0765 -0.1305
 6205TIP3    H140250   1.294   4.954   0.371  0.9364  0.1105 -2.4010
 6205TIP3    H240251   1.415   4.904   0.447 -0.1909 -0.3757 -0.8746
 6206TIP3   OH240252   0.908   4.624   1.553  0.2084  0.0985  0.1331
 6206TIP3    H140253   0.902   4.530   1.533 -1.4132 -0.0420  1.0647
 6206TIP3    H240254   0.893   4.629   1.647 -0.3349  1.3275  0.0008
 6207TIP3   OH240255   5.414   3.010   0.000  0.3776  0.2457  0.5713
 6207TIP3    H140256   5.339   3.036   0.053  0.3867  0.0778  0.6655
 6207TIP3    H240257   5.387   3.026  -0.090 -0.0234 -0.4655  0.5610
 6208TIP3   OH240258   6.652   2.950   8.603 -0.6965 -1.1389  0.3992
 6208TIP3    H140259   6.700   2.932   8.522 -0.4123  0.9589  0.0566
 6208TIP3    H240260   6.644   3.045   8.606  0.5647 -0.9986  3.5322
 6209TIP3   OH240261   5.238   1.496   1.099 -0.2568  0.2717 -0.2857
 6209TIP3    H140262   5.186   1.554   1.153  0.5721  1.4262 -0.7002
 6209TIP3    H240263   5.285   1.440   1.161 -0.9914  0.0828  0.1127
 6210TIP3   OH240264   4.848   4.233   2.503  0.2312  0.1612  0.5864
 6210TIP3    H140265   4.838   4.327   2.492 -0.0174  0.2381  1.4522
 6210TIP3    H240266   4.930   4.222   2.551  0.9064 -0.1393 -0.5856
 6211TIP3   OH240267   2.338   2.744   0.516  0.0431  0.1144 -0.2173
 6211TIP3    H140268   2.374   2.694   0.589 -0.4931 -0.3816 -0.2875
 6211TIP3    H240269   2.376   2.831   0.526  2.4982 -0.7752 -1.1949
 6212TIP3   OH240270   1.373   1.882   8.087 -0.1810  0.4755 -0.5805
 6212TIP3    H140271   1.340   1.809   8.034 -0.1158  0.1929 -0.2393
 6212TIP3    H240272   1.448   1.845   8.134 -0.5043  0.5982  0.0387
 6213TIP3   OH240273   4.014   4.185   1.118  0.0004 -0.1863  0.4163
 6213TIP3    H140274   4.056   4.269   1.138  0.9408 -0.8451  1.3284
 6213TIP3    H240275   4.085   4.122   1.121 -0.6645 -1.0047 -0.4578
 6214TIP3   OH240276   5.200   0.384   6.849  0.2626  0.1985 -0.3456
 6214TIP3    H140277   5.205   0.309   6.790 -1.0018  0.4880 -0.8574
 6214TIP3    H240278   5.106   0.400   6.860  0.4899  0.8105  0.9065
 6215TIP3   OH240279   1.523   3.789   7.401  0.3534  0.2444  0.0404
 6215TIP3    H140280   1.448   3.797   7.460 -0.8524 -0.4188 -1.3468
 6215TIP3    H240281   1.595   3.763   7.458 -0.8219 -0.6539  1.1873
 6216TIP3   OH240282   6.129   2.830   1.883 -0.9463  0.0621  0.2701
 6216TIP3    H140283   6.146   2.923   1.899  1.1503  0.3269 -2.7067
 6216TIP3    H240284   6.050   2.828   1.829 -0.4988  0.2111 -0.3996
 6217TIP3   OH240285   2.932   2.535   6.412  0.5097 -0.4070  0.5815
 6217TIP3    H140286   2.875   2.459   6.401  0.8234 -0.3827 -1.6037
 6217TIP3    H240287   2.874   2.610   6.399  0.4086 -0.2719  1.7055
 6218TIP3   OH240288   6.676   2.862   1.845  0.7275 -0.1996  0.5786
 6218TIP3    H140289   6.590   2.881   1.883 -0.9448 -0.2302 -2.8478
 6218TIP3    H240290   6.738   2.906   1.904 -1.8619  2.8489  1.3238
 6219TIP3   OH240291   3.904   0.285   1.718  0.2519  0.0065  0.6458
 6219TIP3    H140292   3.872   0.271   1.628 -0.4632 -0.9523  1.0276
 6219TIP3    H240293   3.824   0.296   1.770  0.5356 -1.7720  1.5264
 6220TIP3   OH240294   3.128   2.604   7.599  0.1653 -0.4014  0.1939
 6220TIP3    H140295   3.047   2.552   7.600  0.0299 -0.2736 -1.4286
 6220TIP3    H240296   3.166   2.588   7.513  1.3558  0.3447  0.5556
 6221TIP3   OH240297   0.950   4.006   8.178 -0.0812 -0.1046 -0.1706
 6221TIP3    H140298   0.925   4.082   8.230  1.0038  1.5679 -1.9477
 6221TIP3    H240299   0.872   3.951   8.176 -1.3674  1.6259  0.0627
 6222TIP3   OH240300   4.198   2.394   1.830  0.4665 -0.7546  0.2665
 6222TIP3    H140301   4.205   2.488   1.842 -1.1663 -0.6503  0.6208
 6222TIP3    H240302   4.261   2.374   1.760  0.4773  0.6651 -0.1580
 6223TIP3   OH240303   0.261   4.585   6.084  0.0941  0.0828 -0.1683
 6223TIP3    H140304   0.185   4.641   6.065  0.1263 -0.0627 -0.7609
 6223TIP3    H240305   0.223   4.508   6.127 -0.2306 -0.4381 -1.3469
 6224TIP3   OH240306   1.887   5.150   1.278 -0.0706  0.2047  0.2390
 6224TIP3    H140307   1.820   5.201   1.233  0.3219  1.7349  1.2885
 6224TIP3    H240308   1.965   5.159   1.223  0.4881  2.3099  1.2443
 6225TIP3   OH240309   5.547   4.333   2.541 -0.0311 -0.3298 -0.7822
 6225TIP3    H140310   5.588   4.296   2.619 -0.7947 -0.2582 -0.3445
 6225TIP3    H240311   5.479   4.270   2.517 -0.7420  0.3510 -0.5564
 6226TIP3   OH240312   5.540   2.829   8.088 -0.4823 -0.0072 -0.1092
 6226TIP3    H140313   5.478   2.758   8.073  1.0081 -2.0208  2.5846
 6226TIP3    H240314   5.608   2.816   8.022 -0.6294 -0.5929 -0.1522
 6227TIP3   OH240315   1.678   5.464   8.392  0.2768 -0.0932  0.2455
 6227TIP3    H140316   1.734   5.467   8.314  0.2311 -2.5576  0.0451
 6227TIP3    H240317   1.611   5.530   8.376  0.4951 -0.2723 -1.6196
 6228TIP3   OH240318   3.746   1.112   6.757  0.0537 -0.1498  0.6736
 6228TIP3    H140319   3.836   1.092   6.733  0.3354  1.1182  0.6130
 6228TIP3    H240320   3.698   1.032   6.738  1.4375 -1.4470  2.2724
 6229TIP3   OH240321   0.030   1.249   8.364  0.0661 -0.4534  0.3241
 6229TIP3    H140322   0.113   1.286   8.395 -0.9397  0.9433  1.4918
 6229TIP3    H240323  -0.031   1.264   8.436 -1.6331  0.1877 -1.1739
 6230TIP3   OH240324   0.685   6.442   7.029  0.0366  0.0363  0.5598
 6230TIP3    H140325   0.714   6.468   6.942  2.1458 -2.5390  0.3662
 6230TIP3    H240326   0.681   6.523   7.079  0.3343  1.3686 -1.4964
 6231TIP3   OH240327   4.608   0.272   8.151  0.3470  0.4009  0.5701
 6231TIP3    H140328   4.636   0.235   8.234  0.3075  1.3337  1.0035
 6231TIP3    H240329   4.561   0.352   8.174  0.5899  0.8251 -0.3659
 6232TIP3   OH240330   0.269   5.816   1.390  0.5858 -0.1511 -0.4509
 6232TIP3    H140331   0.236   5.744   1.443  1.7916  0.1189  0.7198
 6232TIP3    H240332   0.191   5.863   1.360 -0.2284 -1.9526 -1.3040
 6233TIP3   OH240333   3.595   2.758   0.464 -0.0032  0.1531 -0.3065
 6233TIP3    H140334   3.532   2.706   0.513 -0.6096  1.3130  0.1885
 6233TIP3    H240335   3.679   2.712   0.477 -0.6451 -1.1469 -0.6046
 6234TIP3   OH240336   2.154   5.999   7.584  0.7962  0.0280  0.0055
 6234TIP3    H140337   2.157   6.094   7.575 -5.0314  0.4644 -1.3394
 6234TIP3    H240338   2.169   5.966   7.496 -0.4314  0.0327 -0.2238
 6235TIP3   OH240339   0.700   2.075   1.080  0.5440 -0.4484  0.0531
 6235TIP3    H140340   0.628   2.023   1.043 -0.5960  2.0599 -1.5462
 6235TIP3    H240341   0.765   2.080   1.009  0.5463  0.4296  0.1014
 6236TIP3   OH240342   1.100   5.306   8.018  0.2039  0.4946  0.2816
 6236TIP3    H140343   1.085   5.401   8.016 -0.6934  0.3593 -1.3633
 6236TIP3    H240344   1.029   5.270   7.965  1.0488 -1.0259  0.1342
 6237TIP3   OH240345   2.594   4.179   2.390 -0.3772  0.9138  0.6526
 6237TIP3    H140346   2.685   4.169   2.361 -0.4423  0.3250  0.6368
 6237TIP3    H240347   2.570   4.267   2.363  0.8423  1.8721  2.4830
 6238TIP3   OH240348   5.847   0.963   7.933 -0.5113 -0.3851 -0.3795
 6238TIP3    H140349   5.906   0.976   8.007 -1.6697 -1.6736  0.8215
 6238TIP3    H240350   5.884   0.889   7.885 -0.6834 -0.6314 -0.1300
 6239TIP3   OH240351   4.129   4.704   8.266 -0.2329 -0.2819 -0.1157
 6239TIP3    H140352   4.035   4.709   8.253 -0.4178 -0.2956  1.0805
 6239TIP3    H240353   4.139   4.660   8.351  0.8767 -1.4741 -0.8294
 6240TIP3   OH240354   0.757   3.673   2.185 -0.6236 -0.1573  0.2980
 6240TIP3    H140355   0.847   3.650   2.211 -0.2138  0.1486 -0.7991
 6240TIP3    H240356   0.734   3.748   2.240 -1.0550 -1.5886  2.1652
 6241TIP3   OH240357   1.936   2.254   6.898 -0.2809 -0.0236 -0.5853
 6241TIP3    H140358   1.890   2.230   6.817 -1.3040 -1.8963  0.4940
 6241TIP3    H240359   1.945   2.172   6.946  0.3633  1.0289  1.1847
 6242TIP3   OH240360   3.048   2.152   8.162 -0.7356  0.4966  0.0980
 6242TIP3    H140361   3.064   2.094   8.236  0.5953 -0.2799 -0.7654
 6242TIP3    H240362   3.125   2.208   8.157 -0.8311  0.5806 -0.6615
 6243TIP3   OH240363   0.788   1.548   8.076  0.4468  0.2287 -0.0224
 6243TIP3    H140364   0.716   1.611   8.073 -0.2020 -0.3426  1.9947
 6243TIP3    H240365   0.744   1.463   8.086  1.2332 -0.7711 -3.6483
 6244TIP3   OH240366   1.078   0.810   8.618  0.1131 -0.1739 -0.1821
 6244TIP3    H140367   0.984   0.797   8.629 -0.1200  1.5621  0.1475
 6244TIP3    H240368   1.086   0.867   8.542  0.8398  0.2418  0.1933
 6245TIP3   OH240369   4.465   0.190   6.868 -0.2438 -1.3035 -1.0660
 6245TIP3    H140370   4.513   0.125   6.816  2.1312  0.0653 -0.7008
 6245TIP3    H240371   4.511   0.194   6.951 -0.1815  0.9683 -1.1466
 6246TIP3   OH240372   2.969   3.776   2.284 -0.9523  0.3409 -0.7410
 6246TIP3    H140373   2.949   3.818   2.368  1.1104  1.4962 -0.7585
 6246TIP3    H240374   2.938   3.837   2.218  1.0611  1.4265 -0.7640
 6247TIP3   OH240375   3.698   2.147   8.125 -0.6469 -0.3081 -0.1341
 6247TIP3    H140376   3.689   2.187   8.039  1.1942 -1.7081 -1.0682
 6247TIP3    H240377   3.790   2.161   8.148 -1.1678  0.2424  1.7336
 6248TIP3   OH240378   2.754   5.128   7.859 -0.1490 -0.1918 -0.0642
 6248TIP3    H140379   2.706   5.054   7.897 -0.4458 -0.6471 -1.2606
 6248TIP3    H240380   2.830   5.088   7.817  0.1550  0.2905  0.0188
 6249TIP3   OH240381   1.907   4.424   8.445 -0.4458 -0.1524  0.0420
 6249TIP3    H140382   1.857   4.491   8.398 -0.5183 -0.9002 -0.9564
 6249TIP3    H240383   1.869   4.424   8.533  0.3282  1.9314  0.4495
 6250TIP3   OH240384   0.979   1.554   7.867 -0.3171  0.1316 -0.3303
 6250TIP3    H140385   0.917   1.558   7.940  0.3597 -2.3780  0.4620
 6250TIP3    H240386   0.925   1.570   7.789 -2.2287 -2.6936  0.2632
 6251TIP3   OH240387   6.652   1.397   0.378  0.3931 -0.1704  0.7382
 6251TIP3    H140388   6.655   1.304   0.402  1.8763 -0.1400  0.7484
 6251TIP3    H240389   6.561   1.422   0.393 -0.3778 -1.9491 -0.5346
 6252TIP3   OH240390   5.589   2.111   7.063  0.0144 -0.2013 -0.3434
 6252TIP3    H140391   5.606   2.176   7.131  0.7753  0.5503 -1.2279
 6252TIP3    H240392   5.562   2.033   7.111 -0.4805  0.6161  0.7637
 6253TIP3   OH240393   6.422   5.585   0.755 -0.1369  0.1873 -0.2815
 6253TIP3    H140394   6.443   5.493   0.768  1.2398  0.6498  1.2309
 6253TIP3    H240395   6.401   5.617   0.843  1.0977  1.6777 -0.4867
 6254TIP3   OH240396   4.031   4.086   8.662  0.4580  0.6161 -0.2711
 6254TIP3    H140397   3.981   4.148   8.715  0.2661 -0.1847  0.4957
 6254TIP3    H240398   3.965   4.031   8.620  0.6728 -0.3935  0.6772
 6255TIP3   OH240399   1.881   3.281   8.607 -0.6442  0.1334 -0.1981
 6255TIP3    H140400   1.821   3.282   8.681  1.3439  1.9953  1.5432
 6255TIP3    H240401   1.963   3.246   8.643  0.3386  0.9450 -1.5304
 6256TIP3   OH240402   1.419   2.862   7.104  0.3500 -0.0200 -0.5590
 6256TIP3    H140403   1.408   2.796   7.035 -1.5665 -0.8235  0.4326
 6256TIP3    H240404   1.455   2.813   7.178  1.5345  0.6523 -0.6638
 6257TIP3   OH240405   0.368   1.318   0.387 -0.0215 -0.0651  0.1193
 6257TIP3    H140406   0.431   1.290   0.322 -0.7138 -1.9985  0.2234
 6257TIP3    H240407   0.420   1.364   0.453  1.3635 -1.9164  0.3906
 6258TIP3   OH240408   4.328   5.644   1.447  0.5452  0.2033  0.5913
 6258TIP3    H140409   4.422   5.652   1.428  0.1397  0.1400 -1.7241
 6258TIP3    H240410   4.301   5.566   1.399 -0.6053 -0.1526  1.7546
 6259TIP3   OH240411   1.941   1.542   8.115  0.2370  0.6117  0.0748
 6259TIP3    H140412   1.963   1.609   8.180 -0.2456  0.3476  0.5168
 6259TIP3    H240413   1.930   1.591   8.033  0.2261  1.0267  0.3219
 6260TIP3   OH240414   0.812   3.053   1.642 -0.1884  0.3315 -0.3783
 6260TIP3    H140415   0.846   3.051   1.731 -3.2896  0.0816  0.9550
 6260TIP3    H240416   0.747   2.983   1.640 -1.0634  1.1127 -2.4465
 6261TIP3   OH240417   1.645   5.377   2.469 -0.2621  0.3568  0.3233
 6261TIP3    H140418   1.734   5.356   2.440 -0.8092 -1.1348 -0.3989
 6261TIP3    H240419   1.632   5.469   2.446  1.1472  0.6441  0.6259
 6262TIP3   OH240420   2.649   5.036   1.504 -0.2586 -0.1170  0.7244
 6262TIP3    H140421   2.734   5.028   1.548 -0.8714 -0.9229  1.8292
 6262TIP3    H240422   2.659   4.985   1.424  0.3992  0.0274  0.7139
 6263TIP3   OH240423   2.074   2.846   6.842 -0.3694 -0.4538  0.0523
 6263TIP3    H140424   2.066   2.897   6.923  1.0060  1.5738 -0.9785
 6263TIP3    H240425   2.042   2.759   6.865 -0.9191  0.3005  2.4991
 6264TIP3   OH240426   4.521   3.146   2.299  0.6231  0.3358 -0.2911
 6264TIP3    H140427   4.567   3.230   2.307 -0.4957  1.0554 -1.1703
 6264TIP3    H240428   4.524   3.109   2.388 -0.4913  2.1773  0.5739
 6265TIP3   OH240429   3.505   4.960   6.013 -0.5977  0.0256 -0.2091
 6265TIP3    H140430   3.432   5.012   5.980 -0.2049  1.3354  0.9039
 6265TIP3    H240431   3.483   4.944   6.105 -0.7848 -1.9424 -0.5514
 6266TIP3   OH240432   5.197   3.705   0.022 -0.1808 -0.9414 -0.3061
 6266TIP3    H140433   5.123   3.765   0.016  0.4359 -0.1891 -0.5133
 6266TIP3    H240434   5.161   3.619  -0.002 -0.8710 -0.4914 -0.9034
 6267TIP3   OH240435   3.972   5.897   0.051  0.1814  0.1487  0.1138
 6267TIP3    H140436   3.981   5.992   0.057  0.0890  0.2489 -1.1012
 6267TIP3    H240437   3.926   5.872   0.131  3.6466  0.6160  2.4461
 6268TIP3   OH240438   6.465   4.115   5.995  0.1726 -0.0903 -0.6577
 6268TIP3    H140439   6.383   4.123   6.043  1.0316 -1.2722  1.1427
 6268TIP3    H240440   6.528   4.085   6.061  1.6453 -0.9033 -2.3522
 6269TIP3   OH240441   1.033   6.367   0.489 -0.0751 -0.4465  0.4973
 6269TIP3    H140442   1.017   6.452   0.448  0.7324  0.2368  1.5169
 6269TIP3    H240443   1.097   6.386   0.558 -0.0365 -1.8535  0.8814
 6270TIP3   OH240444   5.991   0.065   8.373  0.0865  0.4835 -0.8202
 6270TIP3    H140445   5.920   0.070   8.309 -1.6437  1.0656  1.0235
 6270TIP3    H240446   5.952   0.021   8.449  2.0116 -0.0704 -0.0852
 6271TIP3   OH240447   1.633   6.796   7.995  0.3207  0.3523  0.5736
 6271TIP3    H140448   1.625   6.701   7.986 -2.4518  0.5167  0.6161
 6271TIP3    H240449   1.705   6.820   7.937 -0.7346 -1.4732 -1.6017
 6272TIP3   OH240450   5.786   4.281   7.500  0.0653  0.3408 -0.5194
 6272TIP3    H140451   5.693   4.266   7.519  0.1256  2.3569  1.9070
 6272TIP3    H240452   5.786   4.355   7.440  0.0537  1.6563  1.0210
 6273TIP3   OH240453   4.803   5.270   8.432  0.2061 -0.0181  0.1528
 6273TIP3    H140454   4.892   5.308   8.428  0.5461 -0.8280 -0.2117
 6273TIP3    H240455   4.745   5.345   8.422  0.8763  0.3424 -1.3266
 6274TIP3   OH240456   4.936   1.010   0.105  0.4186 -0.9294  0.2652
 6274TIP3    H140457   4.982   1.076   0.053  0.6119 -1.1890  0.0995
 6274TIP3    H240458   4.880   1.060   0.164  1.1393 -0.6017  0.6748
 6275TIP3   OH240459   5.425   6.647   1.334 -0.1891 -0.1740  0.2238
 6275TIP3    H140460   5.413   6.634   1.428 -0.9127 -1.2148  0.0115
 6275TIP3    H240461   5.408   6.561   1.296  1.3661 -0.0812 -0.7640
 6276TIP3   OH240462   1.699   6.854   7.696  0.5291 -0.6652 -0.2227
 6276TIP3    H140463   1.754   6.861   7.618  0.6955 -2.8596 -0.3663
 6276TIP3    H240464   1.610   6.843   7.661  0.0550  1.7146  0.0004
 6277TIP3   OH240465   3.877   4.323   8.666 -0.3582 -0.3734 -0.1187
 6277TIP3    H140466   3.911   4.312   8.577 -1.6460  2.0888 -1.0220
 6277TIP3    H240467   3.934   4.390   8.705 -0.4526 -0.6654  0.5309
 6278TIP3   OH240468   3.971   3.538   8.307 -0.1151  0.2247 -0.0649
 6278TIP3    H140469   4.045   3.578   8.261 -0.1797  0.1294 -0.2545
 6278TIP3    H240470   3.901   3.603   8.300  0.4410  1.0265  1.5429
 6279TIP3   OH240471   1.978   4.314   1.719 -0.3412  0.4694 -0.2590
 6279TIP3    H140472   1.929   4.270   1.649 -0.5988 -0.4062  0.4613
 6279TIP3    H240473   2.065   4.274   1.715 -0.1817  0.8295 -0.4421
 6280TIP3   OH240474   5.119   3.013   8.228  0.6238 -0.4453 -0.2318
 6280TIP3    H140475   5.056   2.980   8.293  0.4102 -0.9274 -0.6690
 6280TIP3    H240476   5.205   2.996   8.267  0.5126 -1.3275 -0.3436
 6281TIP3   OH240477   1.005   4.516   8.045 -0.4572 -0.0394  0.3108
 6281TIP3    H140478   0.920   4.479   8.023 -0.6157  0.6413 -0.2518
 6281TIP3    H240479   1.057   4.505   7.965  0.1098 -0.8006  0.7736
 6282TIP3   OH240480   5.725   5.625   6.210 -0.1184 -0.1292 -0.4439
 6282TIP3    H140481   5.641   5.602   6.250 -0.0441 -1.4509 -1.0012
 6282TIP3    H240482   5.734   5.719   6.226 -1.1870 -0.1753  0.5716
 6283TIP3   OH240483   3.756   6.071   7.432  0.1516  0.0468  0.0757
 6283TIP3    H140484   3.824   6.008   7.458  0.3183  0.5057  0.7694
 6283TIP3    H240485   3.715   6.031   7.355  1.4578 -0.0662 -0.5883
 6284TIP3   OH240486   5.714   4.686   1.144  0.0342  0.4828  0.2852
 6284TIP3    H140487   5.661   4.632   1.085 -0.0884 -0.8939  1.5892
 6284TIP3    H240488   5.713   4.773   1.104 -1.5849  0.0395 -0.7552
 6285TIP3   OH240489   2.513   2.415   0.076 -0.2149  0.4851 -0.4666
 6285TIP3    H140490   2.601   2.435   0.045 -0.0327 -1.9942 -1.8416
 6285TIP3    H240491   2.458   2.418  -0.002 -0.5088 -2.0044 -0.4388
 6286TIP3   OH240492   1.084   1.946   7.973  0.0941 -0.5218 -0.5080
 6286TIP3    H140493   1.041   1.930   7.889  0.2389 -1.3687 -0.4316
 6286TIP3    H240494   1.015   1.980   8.029 -0.1589 -0.5767 -0.7824
 6287TIP3   OH240495   3.857   1.752   8.269  0.1536  0.0164  0.4946
 6287TIP3    H140496   3.823   1.820   8.327 -0.2490 -0.7384  1.1694
 6287TIP3    H240497   3.836   1.670   8.313 -0.7546 -0.6182 -1.0270
 6288TIP3   OH240498   3.888   2.500   1.199  0.0608  0.2868  0.1533
 6288TIP3    H140499   3.935   2.584   1.198  0.4743  0.0615  0.2247
 6288TIP3    H240500   3.931   2.450   1.269 -0.4563  0.1707  0.3867
 6289TIP3   OH240501   6.358   0.829   7.095 -0.3077  0.1219  0.0829
 6289TIP3    H140502   6.358   0.918   7.060  1.7113  1.3996  2.9343
 6289TIP3    H240503   6.425   0.783   7.044 -0.7053  0.4886 -0.7919
 6290TIP3   OH240504   3.067   1.484   7.441  0.1891  0.3555 -0.2688
 6290TIP3    H140505   3.006   1.538   7.492 -0.4144 -1.1474  0.6547
 6290TIP3    H240506   3.063   1.521   7.352 -0.5799  1.4909  0.2140
 6291TIP3   OH240507   2.550   2.988   7.280 -0.1989  0.0426  0.0228
 6291TIP3    H140508   2.581   2.898   7.286  0.3543  0.2310  0.0969
 6291TIP3    H240509   2.564   3.024   7.368  0.5193  0.4869 -0.2622
 6292TIP3   OH240510   4.575   2.445   0.935 -0.3175 -0.0568  0.4642
 6292TIP3    H140511   4.616   2.387   0.999  0.0970  0.8118  1.0092
 6292TIP3    H240512   4.583   2.532   0.973  0.6712  0.6041 -1.1419
 6293TIP3   OH240513   5.381   1.637   8.456 -0.3869 -0.7795  0.1596
 6293TIP3    H140514   5.346   1.551   8.478 -1.3305 -0.4116  0.1470
 6293TIP3    H240515   5.351   1.652   8.366 -2.2216  0.5197  0.9309
 6294TIP3   OH240516   5.611   6.692   8.464  0.2063 -0.6367  0.0966
 6294TIP3    H140517   5.550   6.721   8.532 -1.0058 -0.9030 -0.8328
 6294TIP3    H240518   5.623   6.599   8.482  1.1120 -0.3947  0.8371
 6295TIP3   OH240519   4.055   1.431   1.205 -0.5393 -0.0180  0.0616
 6295TIP3    H140520   3.982   1.377   1.176  0.7602 -2.3439  0.8642
 6295TIP3    H240521   4.063   1.413   1.298 -0.5284  2.2430  0.5591
 6296TIP3   OH240522   5.271   1.950   7.851 -0.1279  0.0833 -0.1004
 6296TIP3    H140523   5.276   1.854   7.848  1.8452  0.1490 -2.5733
 6296TIP3    H240524   5.178   1.969   7.838 -0.2740 -1.5597 -2.1785
 6297TIP3   OH240525   3.644   1.582   7.747  0.0617  0.1998  0.3925
 6297TIP3    H140526   3.723   1.530   7.762  0.1302  0.4961  1.0928
 6297TIP3    H240527   3.607   1.595   7.835 -0.4694  0.5215  0.1236
 6298TIP3   OH240528   1.543   0.169   7.890  0.3614 -0.4985  0.2513
 6298TIP3    H140529   1.507   0.107   7.827  2.8082  2.1497 -4.3204
 6298TIP3    H240530   1.479   0.240   7.894 -0.3798 -1.1946  1.9780
 6299TIP3   OH240531   4.073   5.445   0.661 -0.9250  0.1822 -0.4514
 6299TIP3    H140532   4.044   5.536   0.670  0.2524  0.7427 -1.8271
 6299TIP3    H240533   4.168   5.451   0.664 -0.8485 -1.2007  0.7363
 6300TIP3   OH240534   4.151   4.273   7.942 -0.1975 -0.3103  0.1597
 6300TIP3    H140535   4.174   4.320   8.022  0.1718 -0.0943 -0.0761
 6300TIP3    H240536   4.234   4.242   7.907 -0.1369  1.2565 -1.1797
 6301TIP3   OH240537   5.907   3.726   1.902 -0.4831  0.0759 -0.2574
 6301TIP3    H140538   5.958   3.788   1.955  0.0288 -0.7552  0.2522
 6301TIP3    H240539   5.890   3.653   1.961 -0.9450 -0.3385 -0.8946
 6302TIP3   OH240540   2.515   1.947   1.980 -0.6484  0.0512  0.2298
 6302TIP3    H140541   2.592   1.922   2.030 -0.8664 -0.6949  0.1981
 6302TIP3    H240542   2.504   2.040   1.999 -0.5333 -0.1429  1.3091
 6303TIP3   OH240543   3.130   3.236   0.177 -0.1171  0.1870  0.3808
 6303TIP3    H140544   3.221   3.209   0.188 -0.3046 -0.5311  0.2321
 6303TIP3    H240545   3.079   3.159   0.203 -0.6406 -0.1255 -1.4364
 6304TIP3   OH240546   6.406   3.252   0.677 -0.1285  0.0341 -0.0829
 6304TIP3    H140547   6.477   3.195   0.706  0.2932  1.3110  1.5614
 6304TIP3    H240548   6.446   3.308   0.610  0.5963  1.0527  1.1550
 6305TIP3   OH240549   4.925   0.536   1.460  0.4750 -0.4402 -0.7265
 6305TIP3    H140550   4.837   0.532   1.424  0.0477  1.2788  0.0159
 6305TIP3    H240551   4.982   0.508   1.388 -0.7062 -3.0332 -0.7624
 6306TIP3   OH240552   3.749   5.530   1.516  0.2124 -0.1470 -0.2613
 6306TIP3    H140553   3.819   5.468   1.499 -0.8962 -1.3618 -0.5999
 6306TIP3    H240554   3.683   5.480   1.565 -0.7734  0.7198 -0.6437
 6307TIP3   OH240555   2.642   1.055   1.545 -0.3401 -0.6515  0.0215
 6307TIP3    H140556   2.616   1.046   1.453 -0.9660 -0.8601  0.2109
 6307TIP3    H240557   2.650   0.966   1.577  0.4079 -0.5857  0.0340
 6308TIP3   OH240558   2.385   6.622   0.368 -0.3878 -0.0525  0.3319
 6308TIP3    H140559   2.386   6.544   0.423 -0.6264 -1.7763 -1.9752
 6308TIP3    H240560   2.454   6.607   0.303 -0.6429  1.4998 -0.3520
 6309TIP3   OH240561   3.866   5.709   8.569  0.2594 -0.2026  0.0563
 6309TIP3    H140562   3.803   5.761   8.520 -0.2284 -0.2548  0.6128
 6309TIP3    H240563   3.908   5.771   8.628  0.5131 -0.2245 -0.1013
 6310TIP3   OH240564   2.271   4.404   0.102  0.4625  0.2936  0.3924
 6310TIP3    H140565   2.357   4.367   0.120  1.2772  1.1627 -1.4252
 6310TIP3    H240566   2.226   4.335   0.051  1.1758  0.8974 -1.1145
 6311TIP3   OH240567   2.422   5.897   7.895 -0.1310 -0.0232 -0.4767
 6311TIP3    H140568   2.505   5.849   7.892  0.5989  0.8802  2.3683
 6311TIP3    H240569   2.379   5.875   7.812  2.0164 -2.1600 -1.1477
 6312TIP3   OH240570   4.064   2.101   7.802  0.1460 -0.2128  0.3417
 6312TIP3    H140571   3.987   2.048   7.784 -0.0889 -0.2312  1.3146
 6312TIP3    H240572   4.028   2.184   7.835  0.5388 -0.4055  1.2758
 6313TIP3   OH240573   6.137   5.337   1.668 -0.7862 -0.4866 -0.1342
 6313TIP3    H140574   6.205   5.386   1.714  0.3343 -1.1478 -1.0607
 6313TIP3    H240575   6.123   5.386   1.587  0.8115 -1.9612 -1.3856
 6314TIP3   OH240576   4.781   5.733   6.855  0.3528 -0.5292  0.0496
 6314TIP3    H140577   4.735   5.669   6.801  0.4030 -1.3388  0.9382
 6314TIP3    H240578   4.856   5.760   6.801  0.1774 -1.0029 -0.4462
 6315TIP3   OH240579   5.486   3.796   0.477  0.1640 -0.3743  0.2536
 6315TIP3    H140580   5.444   3.844   0.548  0.2564  0.1900 -0.0742
 6315TIP3    H240581   5.428   3.720   0.463  0.2949 -0.6391  1.1090
 6316TIP3   OH240582   0.101   4.128   0.731  0.2458 -0.5258 -0.1680
 6316TIP3    H140583   0.188   4.143   0.696  0.6088 -0.5156  0.7086
 6316TIP3    H240584   0.113   4.125   0.826 -0.5587 -1.4868 -0.0781
 6317TIP3   OH240585   0.739   0.905   1.467 -0.0711  0.8090 -0.3778
 6317TIP3    H140586   0.688   0.904   1.548 -0.1293 -1.1009 -0.3911
 6317TIP3    H240587   0.697   0.973   1.414 -1.4643  0.5483  0.3306
 6318TIP3   OH240588   5.163   2.779   0.998 -0.3926 -0.1825 -0.3306
 6318TIP3    H140589   5.206   2.698   0.972 -1.1709 -0.7294  0.0404
 6318TIP3    H240590   5.107   2.754   1.072  1.5332  1.2457  1.7538
 6319TIP3   OH240591   6.425   0.535   2.034  0.0054 -0.3619  0.7607
 6319TIP3    H140592   6.511   0.558   1.998 -0.0563  0.1779  0.9621
 6319TIP3    H240593   6.433   0.550   2.128 -0.4567  0.1358  0.7239
 6320TIP3   OH240594   3.359   2.225   7.612 -0.0222  0.2881 -0.2163
 6320TIP3    H140595   3.420   2.259   7.546 -1.3320  0.3973 -1.4267
 6320TIP3    H240596   3.410   2.159   7.660  1.7292  1.9818  0.3790
 6321TIP3   OH240597   1.463   5.621   1.008  0.2812 -0.6317  0.7645
 6321TIP3    H140598   1.376   5.620   0.968  0.7149 -1.2604 -0.2123
 6321TIP3    H240599   1.498   5.707   0.986 -0.3981 -0.0396  1.8945
 6322TIP3   OH240600   1.658   3.319   0.108  0.2921 -0.0561  0.0788
 6322TIP3    H140601   1.606   3.249   0.068 -0.7579  1.1894 -0.8237
 6322TIP3    H240602   1.647   3.306   0.202 -3.4540  1.3014  0.0115
 6323TIP3   OH240603   4.832   6.438   7.358 -0.0806  0.0604  0.5461
 6323TIP3    H140604   4.821   6.494   7.280  0.9329  0.6455  0.7937
 6323TIP3    H240605   4.781   6.360   7.339 -0.0948  0.3211 -0.5906
 6324TIP3   OH240606   6.413   3.695   6.361  0.0638 -0.1544  0.0607
 6324TIP3    H140607   6.318   3.697   6.364  0.0042 -0.2597 -1.0486
 6324TIP3    H240608   6.439   3.787   6.369 -0.2996  0.2402 -2.3959
 6325TIP3   OH240609   0.972   0.846   7.951 -0.0463  0.2181 -0.7599
 6325TIP3    H140610   0.969   0.841   7.855  0.6962 -0.8858 -0.7480
 6325TIP3    H240611   0.979   0.939   7.970 -0.8798  0.4978 -1.7525
 6326TIP3   OH240612   5.865   5.248   2.074 -0.0965  0.1087  0.6691
 6326TIP3    H140613   5.944   5.193   2.071  0.0772  0.3960 -1.1234
 6326TIP3    H240614   5.898   5.337   2.079 -0.3376  0.1818  0.9898
 6327TIP3   OH240615   1.823   4.332   6.530  0.0669 -0.4937 -0.7196
 6327TIP3    H140616   1.900   4.277   6.547  0.7380  0.4803 -0.4714
 6327TIP3    H240617   1.754   4.295   6.584  0.9597 -0.1174  0.7255
 6328TIP3   OH240618   6.208   1.786   1.876 -0.1891 -0.0306  0.0943
 6328TIP3    H140619   6.227   1.779   1.970 -1.9552  1.0935  0.5844
 6328TIP3    H240620   6.225   1.698   1.842  0.7095 -0.4024  1.4035
 6329TIP3   OH240621   2.908   3.308   0.414  0.5592  0.0842  0.1715
 6329TIP3    H140622   2.895   3.220   0.449 -0.2982 -0.1362 -0.6580
 6329TIP3    H240623   3.002   3.325   0.425  1.0207 -1.5225 -0.9697
 6330TIP3   OH240624   1.765   3.792   0.628  0.3641 -0.2543 -0.2040
 6330TIP3    H140625   1.839   3.835   0.586  0.5758 -1.7159 -1.3988
 6330TIP3    H240626   1.708   3.766   0.556  0.1254 -1.7230  0.4864
 6331TIP3   OH240627   5.507   5.258   1.577  0.0780  0.2696  0.6980
 6331TIP3    H140628   5.584   5.205   1.595 -1.1121 -1.7297  0.1719
 6331TIP3    H240629   5.434   5.206   1.609 -1.4131  0.1586 -2.5520
 6332TIP3   OH240630   4.215   4.106   7.336 -0.6813 -0.1213  0.3396
 6332TIP3    H140631   4.153   4.104   7.263  0.8057  0.0321 -0.9845
 6332TIP3    H240632   4.284   4.166   7.307  1.1167 -1.8179  0.8641
 6333TIP3   OH240633   4.856   3.254   2.276 -0.7107  0.1522  0.2470
 6333TIP3    H140634   4.928   3.219   2.223 -0.9350 -3.8453  2.2640
 6333TIP3    H240635   4.900   3.298   2.349  0.0200 -3.4892  2.2614
 6334TIP3   OH240636   4.368   0.702   1.204  0.1353 -0.9179 -0.2201
 6334TIP3    H140637   4.375   0.788   1.162 -0.5883 -1.7157 -2.0790
 6334TIP3    H240638   4.294   0.711   1.265  0.4049 -0.0795 -0.0046
 6335TIP3   OH240639   0.448   3.399   0.087 -0.1794  0.3489  0.4971
 6335TIP3    H140640   0.513   3.442   0.030  0.2371 -1.7020 -0.6952
 6335TIP3    H240641   0.473   3.307   0.085 -2.2024 -0.2656  1.3133
 6336TIP3   OH240642   6.678   2.167   1.381 -0.5197 -0.0948 -0.2079
 6336TIP3    H140643   6.663   2.227   1.454 -0.5333 -1.7751  1.2446
 6336TIP3    H240644   6.591   2.135   1.357 -0.6365  1.2836 -1.7526
 6337TIP3   OH240645   1.617   4.174   6.640 -0.7895 -0.3799  0.2783
 6337TIP3    H140646   1.611   4.104   6.706 -1.6609  0.6431  1.3284
 6337TIP3    H240647   1.531   4.215   6.641 -0.1647  0.9999  0.0186
 6338TIP3   OH240648   3.960   4.738   1.063  0.2902  0.4770  0.3495
 6338TIP3    H140649   4.028   4.764   1.125  0.2322 -1.4542  1.3008
 6338TIP3    H240650   3.952   4.813   1.003  1.2351  1.8907  1.9021
 6339TIP3   OH240651   4.880   1.627   1.735  0.2609  0.1919  0.0473
 6339TIP3    H140652   4.950   1.572   1.699 -0.3195 -0.7638  0.3364
 6339TIP3    H240653   4.891   1.621   1.830 -0.0632  0.2253  0.0889
 6340TIP3   OH240654   4.588   6.740   8.049  0.1566  0.4019 -0.1764
 6340TIP3    H140655   4.519   6.735   7.983 -2.4245  1.5944  2.1585
 6340TIP3    H240656   4.622   6.829   8.042  0.6259  0.1894 -0.5825
 6341TIP3   OH240657   3.637   2.529   7.304  0.6284  0.5604  0.4451
 6341TIP3    H140658   3.703   2.558   7.240  1.2918 -1.1464  0.3030
 6341TIP3    H240659   3.665   2.568   7.386  1.1679  0.8046  0.1509
 6342TIP3   OH240660   6.629   1.760   7.946  0.2223 -0.3011 -0.6689
 6342TIP3    H140661   6.653   1.670   7.926  1.4132  0.3506 -2.4363
 6342TIP3    H240662   6.696   1.813   7.903 -1.4579  1.4763 -1.2483
 6343TIP3   OH240663   4.938   6.727   7.393 -0.2281 -0.3022  0.6469
 6343TIP3    H140664   4.918   6.684   7.476  1.3259 -4.7583 -0.9672
 6343TIP3    H240665   5.033   6.738   7.393 -0.3063  0.5198 -0.1680
 6344TIP3   OH240666   5.141   0.702   6.110 -0.0276 -0.2568  0.2147
 6344TIP3    H140667   5.199   0.769   6.144 -0.5867  0.7676 -0.7634
 6344TIP3    H240668   5.076   0.750   6.058 -0.6536 -1.5205 -0.2346
 6345TIP3   OH240669   1.391   3.183   0.489 -0.3331 -0.0117  0.1907
 6345TIP3    H140670   1.398   3.263   0.540 -0.8545  0.4092 -0.3954
 6345TIP3    H240671   1.479   3.170   0.452  0.5664 -1.2428  2.5106
 6346TIP3   OH240672   0.933   1.609   0.701 -0.1136 -0.2551 -0.5249
 6346TIP3    H140673   0.881   1.542   0.657 -0.2609 -0.9579  0.6659
 6346TIP3    H240674   1.023   1.580   0.691 -0.2114 -1.0126  0.5213
 6347TIP3   OH240675   5.838   6.611   0.463 -0.1734 -0.0300  0.3395
 6347TIP3    H140676   5.862   6.679   0.527  1.5221 -0.6218  0.3637
 6347TIP3    H240677   5.836   6.657   0.379 -0.9330  0.4404  0.6074
 6348TIP3   OH240678   3.438   0.341   1.652  0.1398  0.3298 -0.3343
 6348TIP3    H140679   3.459   0.385   1.570 -1.4840  2.1184  0.1469
 6348TIP3    H240680   3.405   0.255   1.626  0.9537  0.3400 -1.4452
 6349TIP3   OH240681   3.845   4.222   2.212  0.3363  0.2871  0.0362
 6349TIP3    H140682   3.837   4.164   2.288  0.4189  0.6045  0.2911
 6349TIP3    H240683   3.888   4.169   2.146 -0.9000 -0.4105 -0.2400
 6350TIP3   OH240684   5.101   3.445   2.135  0.6389 -0.1730  0.6338
 6350TIP3    H140685   5.168   3.379   2.120 -0.8782 -1.7214  0.2726
 6350TIP3    H240686   5.114   3.508   2.064  0.8529 -1.1982 -0.2717
 6351TIP3   OH240687   5.443   1.945   7.449  0.3401  0.1097 -0.0653
 6351TIP3    H140688   5.477   1.924   7.536  0.5625 -0.1683 -0.2201
 6351TIP3    H240689   5.371   2.007   7.466  0.7283  0.4740  0.2778
 6352TIP3   OH240690   2.069   4.906   6.636  0.5117 -0.7716 -0.3471
 6352TIP3    H140691   1.995   4.888   6.694 -0.0044  1.5492 -0.2089
 6352TIP3    H240692   2.044   4.867   6.552  0.1313 -1.9074  0.2716
 6353TIP3   OH240693   2.540   3.331   8.373 -0.1077 -0.8201 -0.4417
 6353TIP3    H140694   2.469   3.300   8.429  0.2405  0.9002  1.0807
 6353TIP3    H240695   2.498   3.348   8.288 -1.7388  0.7565  0.5865
 6354TIP3   OH240696   1.766   0.191   0.710 -0.0920 -0.2005 -0.6014
 6354TIP3    H140697   1.772   0.101   0.676 -2.1645 -0.4623 -0.4403
 6354TIP3    H240698   1.764   0.180   0.806 -1.5252 -0.1163 -0.6036
 6355TIP3   OH240699   0.538   1.012   0.448 -0.4795 -0.2125  0.4009
 6355TIP3    H140700   0.584   1.091   0.420  0.4258 -0.4361  1.2345
 6355TIP3    H240701   0.605   0.944   0.449 -1.0565 -0.7859  0.5937
 6356TIP3   OH240702   4.076   3.181   2.825  0.3307  0.2236  0.1843
 6356TIP3    H140703   4.146   3.245   2.832  0.1352  0.4218  0.3462
 6356TIP3    H240704   4.072   3.139   2.911 -1.3835  1.9365  1.0312
 6357TIP3   OH240705   5.787   3.444   2.271 -0.1010  0.0938 -0.4644
 6357TIP3    H140706   5.743   3.363   2.297 -1.1437  0.8990  0.3453
 6357TIP3    H240707   5.837   3.470   2.348  1.1462 -0.3491 -1.0937
 6358TIP3   OH240708   0.148   5.689   7.990 -0.2228 -0.0902 -0.0578
 6358TIP3    H140709   0.130   5.757   8.055  1.6597 -0.8955  1.3969
 6358TIP3    H240710   0.238   5.661   8.009 -0.9915 -3.1643 -0.3829
 6359TIP3   OH240711   6.099   2.632   6.035 -0.3542  0.5378 -0.2452
 6359TIP3    H140712   6.114   2.724   6.014  0.5596  0.2900 -0.7089
 6359TIP3    H240713   6.179   2.587   6.009 -0.5046 -0.2935  0.6429
 6360TIP3   OH240714   0.308   1.606   0.941 -0.1233  0.1685  0.0125
 6360TIP3    H140715   0.305   1.684   0.997  1.1393  0.1777  0.0964
 6360TIP3    H240716   0.326   1.535   1.002  2.3566  0.3117 -0.4208
 6361TIP3   OH240717   3.174   5.650   0.763  0.3114 -0.5960  0.0666
 6361TIP3    H140718   3.134   5.595   0.830 -0.9216 -0.3020 -0.3990
 6361TIP3    H240719   3.119   5.729   0.761  0.2974 -0.6131 -1.3022
 6362TIP3   OH240720   4.223   0.942   1.126 -0.2697  0.6375 -0.4294
 6362TIP3    H140721   4.160   0.974   1.062  0.0975  0.4283 -0.8944
 6362TIP3    H240722   4.309   0.961   1.088 -0.0413 -0.8260 -0.6968
 6363TIP3   OH240723   3.026   4.520   2.126  0.2336  0.1793  0.3925
 6363TIP3    H140724   3.022   4.521   2.222  1.7423 -1.4665  0.5116
 6363TIP3    H240725   3.092   4.586   2.104  0.8983 -0.4119  0.5808
 6364TIP3   OH240726   0.700   3.413   7.401 -0.1042 -0.2922 -0.9401
 6364TIP3    H140727   0.675   3.332   7.447 -0.0852  0.3476  0.2117
 6364TIP3    H240728   0.620   3.466   7.401  0.8467  1.3183  1.8179
 6365TIP3   OH240729   1.100   6.678   0.955 -0.3357  0.3446  0.0313
 6365TIP3    H140730   1.103   6.585   0.932  0.0575  0.1037  1.0262
 6365TIP3    H240731   1.050   6.681   1.036 -1.4653  1.1588 -0.6631
 6366TIP3   OH240732   4.098   6.009   1.754  0.5907  0.3306 -0.0365
 6366TIP3    H140733   4.169   6.004   1.690  1.7752  1.5758  1.1106
 6366TIP3    H240734   4.123   6.081   1.813 -0.2717 -0.9440  2.0257
 6367TIP3   OH240735   3.899   0.908   7.644 -0.0126  0.0986 -0.1441
 6367TIP3    H140736   3.864   0.819   7.649  1.8143 -0.7117 -0.7774
 6367TIP3    H240737   3.843   0.952   7.580 -1.1161 -0.4986  0.3892
 6368TIP3   OH240738   2.896   2.619   2.356  0.0442  0.1823  0.2096
 6368TIP3    H140739   2.821   2.627   2.416 -0.9924  0.0499 -1.0320
 6368TIP3    H240740   2.933   2.707   2.352  0.6689  0.0189  1.6948
 6369TIP3   OH240741   6.821   1.150   8.579  0.4049 -0.0759 -0.3680
 6369TIP3    H140742   6.883   1.081   8.556  0.1956 -0.6923  0.8198
 6369TIP3    H240743   6.759   1.108   8.639 -0.4504  0.8359 -0.5877
 6370TIP3   OH240744   0.366   2.218   1.012  0.1332 -0.1916  0.1820
 6370TIP3    H140745   0.418   2.266   0.948 -2.5685 -0.3952 -2.3838
 6370TIP3    H240746   0.389   2.126   0.997  0.0023 -0.1915 -0.0220
 6371TIP3   OH240747   4.947   1.934   6.740 -0.0629 -0.1239  0.0129
 6371TIP3    H140748   4.881   1.885   6.691  0.5861 -1.5126  0.4589
 6371TIP3    H240749   5.023   1.937   6.682  0.6708 -1.6795  0.8297
 6372TIP3   OH240750   5.266   6.498   8.349 -0.0087 -0.6010 -0.1397
 6372TIP3    H140751   5.355   6.465   8.335 -0.1836 -0.2150 -2.6787
 6372TIP3    H240752   5.257   6.505   8.444  1.7212 -3.1562  0.2971
 6373TIP3   OH240753   1.200   4.919   6.696  0.7110 -0.7940  0.0053
 6373TIP3    H140754   1.244   4.993   6.738 -0.1377 -0.0948 -0.3080
 6373TIP3    H240755   1.162   4.870   6.769 -1.4713  0.8729  0.1022
 6374TIP3   OH240756   1.906   3.994   1.596  0.0138 -0.0897 -0.5622
 6374TIP3    H140757   1.810   3.989   1.604  0.1258 -0.8647  0.5733
 6374TIP3    H240758   1.933   4.048   1.670  0.3834  1.2674 -1.6411
 6375TIP3   OH240759   1.043   6.626   8.615 -0.0733 -0.6295  0.2572
 6375TIP3    H140760   1.116   6.650   8.671 -0.2708  1.3837 -0.2728
 6375TIP3    H240761   1.080   6.622   8.527 -0.5856  0.4592 -0.0217
 6376TIP3   OH240762   6.403   6.436   7.806 -0.0305  0.2237  0.0901
 6376TIP3    H140763   6.332   6.427   7.869  0.3151 -2.2197  0.2194
 6376TIP3    H240764   6.359   6.457   7.723 -0.9972 -1.5493  0.1011
 6377TIP3   OH240765   4.136   2.966   7.393  0.0442 -0.5734  0.0306
 6377TIP3    H140766   4.072   2.900   7.367 -0.3105 -0.4461  0.5610
 6377TIP3    H240767   4.126   3.036   7.328  1.3935 -1.6160 -1.3786
 6378TIP3   OH240768   3.202   0.800   1.062 -0.0355 -0.5525 -0.0124
 6378TIP3    H140769   3.145   0.856   1.114 -0.0271  0.4292 -1.0266
 6378TIP3    H240770   3.258   0.756   1.126  0.3868  1.0852  0.7869
 6379TIP3   OH240771   0.850   4.927   1.175  0.2275 -0.3348 -0.0312
 6379TIP3    H140772   0.882   4.850   1.129 -0.1007 -0.5929  0.1741
 6379TIP3    H240773   0.828   4.896   1.263 -3.2142 -0.8042 -0.9346
 6380TIP3   OH240774   3.415   2.284   7.897 -0.0769 -0.3247  0.2257
 6380TIP3    H140775   3.445   2.266   7.808 -0.6631  2.3623 -0.5931
 6380TIP3    H240776   3.495   2.301   7.947  0.1209  1.4399 -0.6314
 6381TIP3   OH240777   1.585   6.520   1.394 -0.3131 -0.0423 -0.2382
 6381TIP3    H140778   1.498   6.539   1.430 -1.1627 -0.7636 -1.8311
 6381TIP3    H240779   1.570   6.511   1.300  1.2763 -1.4566 -0.3875
 6382TIP3   OH240780   4.381   6.277   1.545  0.3607  0.5875  0.0659
 6382TIP3    H140781   4.390   6.253   1.637  3.1584 -2.1349 -0.7676
 6382TIP3    H240782   4.303   6.230   1.515  1.2913 -1.2125  0.3504
 6383TIP3   OH240783   5.780   6.666   6.419 -0.4699  0.3276 -0.5164
 6383TIP3    H140784   5.817   6.583   6.388  0.6473  1.1535 -1.4687
 6383TIP3    H240785   5.746   6.708   6.340  0.5613  1.5510 -0.3281
 6384TIP3   OH240786   2.972   1.162   8.542  0.2271 -0.3550  0.3728
 6384TIP3    H140787   2.924   1.089   8.503 -0.5450  0.5905 -0.5112
 6384TIP3    H240788   2.914   1.238   8.530  0.9670  0.3887  1.3456
 6385TIP3   OH240789   3.954   6.462   6.302  0.8493  0.0834 -0.1259
 6385TIP3    H140790   3.956   6.432   6.393  1.0534  0.4762 -0.0006
 6385TIP3    H240791   3.956   6.381   6.251 -1.6814 -0.2921  0.2067
 6386TIP3   OH240792   6.160   1.934   6.725 -0.2526  0.0096  0.0414
 6386TIP3    H140793   6.093   1.999   6.703 -0.1444 -0.0425 -0.4530
 6386TIP3    H240794   6.223   1.939   6.653 -1.5096 -2.4020 -1.3464
 6387TIP3   OH240795   5.588   2.519   1.633 -0.2163 -0.6101 -0.4995
 6387TIP3    H140796   5.675   2.489   1.658  0.7133  1.7191 -0.6859
 6387TIP3    H240797   5.529   2.450   1.662  1.6933 -2.3439 -0.5475
 6388TIP3   OH240798   1.268   0.039   6.764  0.4860  0.5495 -0.7223
 6388TIP3    H140799   1.357   0.004   6.768  0.1751 -0.1742  0.1709
 6388TIP3    H240800   1.259   0.070   6.674  1.4072  0.0143 -1.0168
 6389TIP3   OH240801   4.051   4.546   0.073 -0.1258 -0.0467 -1.2626
 6389TIP3    H140802   4.118   4.579   0.134 -0.7238 -0.5368 -0.3148
 6389TIP3    H240803   4.082   4.573  -0.013  0.1529  1.6796 -0.6570
 6390TIP3   OH240804   2.285   0.224   8.158  0.0260  0.5840  0.1211
 6390TIP3    H140805   2.286   0.152   8.221  0.1995  0.2722 -0.2278
 6390TIP3    H240806   2.350   0.198   8.092 -0.3146  0.7963 -0.3027
 6391TIP3   OH240807   5.937   6.299   8.226  0.0631 -0.3082  0.3373
 6391TIP3    H140808   5.996   6.269   8.157  0.7846 -1.6364  1.4586
 6391TIP3    H240809   5.989   6.359   8.278  0.2787 -1.0598  1.0119
 6392TIP3   OH240810   3.628   4.289   0.086 -0.1408 -0.4355  0.1593
 6392TIP3    H140811   3.633   4.377   0.123  1.4600 -0.2160 -0.5074
 6392TIP3    H240812   3.706   4.281   0.032 -1.5772 -1.2905 -1.9484
 6393TIP3   OH240813   0.588   3.215   7.547 -0.2593  0.2557  0.2347
 6393TIP3    H140814   0.610   3.135   7.594 -0.6564  0.7693  1.3379
 6393TIP3    H240815   0.597   3.284   7.612 -0.7621  1.0060 -0.4719
 6394TIP3   OH240816   3.663   1.376   7.208 -0.1796  0.0326 -0.0066
 6394TIP3    H140817   3.578   1.401   7.172  0.5194  2.3326 -0.2082
 6394TIP3    H240818   3.706   1.328   7.138 -0.9339 -0.2931 -0.2515
 6395TIP3   OH240819   0.470   4.694   0.455  0.1898  0.6965 -0.2078
 6395TIP3    H140820   0.533   4.625   0.435 -1.9329 -1.3090 -0.3448
 6395TIP3    H240821   0.516   4.775   0.432  2.6741 -0.6421 -0.3107
 6396TIP3   OH240822   3.660   3.028   6.164  0.2299  0.3168  0.4469
 6396TIP3    H140823   3.752   3.054   6.157  0.1775  0.8499  1.5279
 6396TIP3    H240824   3.638   3.041   6.256 -0.9522  0.2661  0.1921
 6397TIP3   OH240825   3.684   3.213   0.800 -0.4570 -0.5048 -0.3626
 6397TIP3    H140826   3.593   3.237   0.819 -0.7351 -1.1884 -0.7806
 6397TIP3    H240827   3.702   3.140   0.859  0.1925  0.3442  0.5041
 6398TIP3   OH240828   4.280   1.407   0.670  0.1964 -0.3867  0.3330
 6398TIP3    H140829   4.311   1.369   0.752 -0.5105 -0.3650  0.6206
 6398TIP3    H240830   4.304   1.343   0.603  0.3759 -0.6208  0.6181
 6399TIP3   OH240831   6.142   3.359   1.414  0.3462  0.4031  0.0980
 6399TIP3    H140832   6.046   3.351   1.409  0.4651 -0.5386 -1.9757
 6399TIP3    H240833   6.170   3.361   1.322  2.3593  0.3266  0.6693
 6400TIP3   OH240834   6.466   6.257   7.255  0.2476  0.5282 -0.5467
 6400TIP3    H140835   6.505   6.238   7.169  1.0877  0.3873 -0.1409
 6400TIP3    H240836   6.424   6.342   7.243  2.6855  1.8461 -0.3892
 6401TIP3   OH240837   5.302   0.617   7.787  0.0267  0.6691 -0.1338
 6401TIP3    H140838   5.285   0.539   7.734 -2.1969  1.4907 -0.7171
 6401TIP3    H240839   5.217   0.641   7.824  1.0969  1.4275  2.0440
 6402TIP3   OH240840   0.029   0.455   7.651 -0.7543 -0.2530 -0.7823
 6402TIP3    H140841   0.039   0.370   7.609 -1.0180  0.2138 -1.8444
 6402TIP3    H240842   0.118   0.480   7.677 -0.5658 -0.5228 -1.1604
 6403TIP3   OH240843   1.280   4.750   7.593 -0.7176  0.3031 -0.2337
 6403TIP3    H140844   1.217   4.813   7.558 -1.5134 -1.4088 -2.0070
 6403TIP3    H240845   1.356   4.758   7.535 -0.2080  0.6698  0.4655
 6404TIP3   OH240846   0.119   0.594   8.587 -0.2870 -0.2958 -0.5182
 6404TIP3    H140847   0.208   0.625   8.567 -0.4304 -1.2423 -3.0172
 6404TIP3    H240848   0.133   0.510   8.632  0.1101 -0.5604 -1.1154
 6405TIP3   OH240849   4.062   2.826   1.826 -0.0893 -0.4131 -0.3468
 6405TIP3    H140850   4.036   2.871   1.746  0.6583  4.0342  1.5980
 6405TIP3    H240851   3.982   2.782   1.856 -1.4073  0.9951 -1.6387
 6406TIP3   OH240852   4.446   6.335   6.239  0.8121  0.0653 -0.1922
 6406TIP3    H140853   4.379   6.268   6.252  0.1880  0.5410 -0.8645
 6406TIP3    H240854   4.518   6.290   6.195 -0.3917  0.2176 -2.4517
 6407TIP3   OH240855   3.209   5.865   1.034  0.5381  0.3805 -0.3047
 6407TIP3    H140856   3.182   5.774   1.051  1.0581 -0.0126 -1.4924
 6407TIP3    H240857   3.168   5.915   1.104  1.4535 -0.9700  1.2797
 6408TIP3   OH240858   2.426   1.960   1.728  0.1596  0.0128 -0.3759
 6408TIP3    H140859   2.452   1.961   1.820 -2.7072 -1.9833  0.6077
 6408TIP3    H240860   2.333   1.981   1.729 -0.0136 -0.3634 -2.7877
 6409TIP3   OH240861   3.570   4.881   1.388  0.1275 -0.1992 -0.0087
 6409TIP3    H140862   3.622   4.842   1.318  0.3738 -0.3014  0.2282
 6409TIP3    H240863   3.590   4.828   1.465  0.2268  0.2070  0.2493
 6410TIP3   OH240864   2.588   0.674   0.636  0.0109 -0.2746  0.5143
 6410TIP3    H140865   2.617   0.604   0.694  0.9359  0.1211  0.5502
 6410TIP3    H240866   2.578   0.633   0.551  2.5718 -0.0685  0.0546
 6411TIP3   OH240867   6.889   5.361   7.026 -0.1487  0.7675  0.0056
 6411TIP3    H140868   6.948   5.318   6.963  0.1110 -0.5204  1.0766
 6411TIP3    H240869   6.802   5.353   6.986 -0.0830 -0.6695  0.0936
 6412TIP3   OH240870   3.612   6.895   1.622 -0.2436 -0.1131  0.2307
 6412TIP3    H140871   3.702   6.915   1.596  0.1833 -0.0763  1.6415
 6412TIP3    H240872   3.574   6.979   1.647 -0.0963 -0.3430  1.2832
 6413TIP3   OH240873   1.165   2.238   8.505  0.0358 -0.6447 -0.0655
 6413TIP3    H140874   1.244   2.218   8.554 -0.2175 -0.7691  0.2987
 6413TIP3    H240875   1.194   2.294   8.433  0.4281 -0.5492  0.1666
 6414TIP3   OH240876   4.632   4.411   1.283  0.1949 -0.3684  0.4078
 6414TIP3    H140877   4.538   4.421   1.267  0.2058 -1.0188 -0.1339
 6414TIP3    H240878   4.644   4.437   1.375 -0.2268  1.3629  0.0079
 6415TIP3   OH240879   0.555   3.245   1.134 -0.2419 -0.0783  0.4074
 6415TIP3    H140880   0.461   3.252   1.151 -0.5198  0.2339 -1.0996
 6415TIP3    H240881   0.592   3.324   1.173 -0.6190 -0.1746  0.9656
 6416TIP3   OH240882   4.059   2.968   1.570  0.0376  0.0867  0.1147
 6416TIP3    H140883   4.126   3.015   1.520  1.4903 -1.4276  0.5389
 6416TIP3    H240884   4.037   2.893   1.515 -2.0218  0.9915 -0.4124
 6417TIP3   OH240885   4.383   0.204   6.552 -0.3767 -0.8737 -0.1278
 6417TIP3    H140886   4.303   0.151   6.551  0.5058 -2.3436  1.6444
 6417TIP3    H240887   4.418   0.197   6.463 -1.7624 -0.8911 -0.6912
 6418TIP3   OH240888   6.368   2.750   1.983 -0.0150 -0.0474 -0.7953
 6418TIP3    H140889   6.305   2.798   1.929 -0.4822 -0.1587 -0.3575
 6418TIP3    H240890   6.426   2.818   2.017 -0.7436  0.2321 -0.0896
 6419TIP3   OH240891   1.654   5.449   7.566  0.3338  0.0063 -0.1627
 6419TIP3    H140892   1.664   5.414   7.478  1.3279 -1.6602  0.5724
 6419TIP3    H240893   1.712   5.396   7.620 -2.2813 -0.8917  1.9965
 6420TIP3   OH240894   2.304   3.632   1.896 -0.0030 -0.4328  0.2524
 6420TIP3    H140895   2.237   3.582   1.942 -0.5199  1.0788  1.2236
 6420TIP3    H240896   2.322   3.706   1.953  0.0207  1.0205 -1.5225
 6421TIP3   OH240897   6.299   0.893   8.106  0.2026 -0.5551 -0.3042
 6421TIP3    H140898   6.298   0.915   8.013  1.6135  0.5830 -0.1031
 6421TIP3    H240899   6.392   0.884   8.127  0.0561  1.1597  1.3867
 6422TIP3   OH240900   0.709   5.742   1.103  0.2750 -0.0440 -0.7605
 6422TIP3    H140901   0.697   5.648   1.116  2.4409 -0.6439 -2.4349
 6422TIP3    H240902   0.621   5.777   1.095 -0.5780 -1.9236 -0.1092
 6423TIP3   OH240903   2.376   4.137   7.313 -0.0269  0.0600 -0.5822
 6423TIP3    H140904   2.428   4.065   7.276  0.2298 -0.7458  1.2375
 6423TIP3    H240905   2.422   4.159   7.395  0.0180  2.4568 -1.1908
 6424TIP3   OH240906   0.938   5.529   1.393 -0.1262 -0.8498 -0.6835
 6424TIP3    H140907   0.909   5.614   1.360  0.1312  0.7947  2.8632
 6424TIP3    H240908   1.010   5.549   1.453 -2.2369 -3.0426  3.0072
 6425TIP3   OH240909   2.763   2.750   7.600 -0.1714  0.2073 -0.2875
 6425TIP3    H140910   2.814   2.830   7.585 -2.1954  1.1655 -2.7452
 6425TIP3    H240911   2.818   2.680   7.565  0.6944  0.8123 -0.1753
 6426TIP3   OH240912   2.156   1.962   7.929  0.4930 -0.2077 -0.2581
 6426TIP3    H140913   2.173   2.023   8.001  0.8589  0.6473 -1.0450
 6426TIP3    H240914   2.081   1.999   7.883 -0.2226 -1.1557  0.1101
 6427TIP3   OH240915   0.842   0.022   0.109 -0.0111  0.0683 -0.4153
 6427TIP3    H140916   0.845   0.087   0.179  1.6697 -1.6986  1.2816
 6427TIP3    H240917   0.918   0.042   0.054  1.1198 -0.9808  0.6943
 6428TIP3   OH240918   1.550   3.790   0.139 -0.6721 -0.4033 -0.1828
 6428TIP3    H140919   1.560   3.885   0.149 -0.1663 -0.5691  0.9922
 6428TIP3    H240920   1.458   3.779   0.113 -1.8308  0.2212  3.1684
 6429TIP3   OH240921   6.246   3.565   8.178  0.7412  0.1308 -0.1746
 6429TIP3    H140922   6.265   3.490   8.235  0.6177 -0.2681 -0.6569
 6429TIP3    H240923   6.333   3.599   8.155  0.8333 -0.5222 -0.8215
 6430TIP3   OH240924   6.592   4.144   1.712 -0.2649 -0.1357 -0.4985
 6430TIP3    H140925   6.568   4.074   1.773 -0.7637  0.9742  0.6203
 6430TIP3    H240926   6.590   4.102   1.626 -0.2676 -1.5611  0.1593
 6431TIP3   OH240927   3.866   3.941   8.504  0.3109 -0.1730 -0.1843
 6431TIP3    H140928   3.854   3.891   8.424 -1.2370  0.6389 -0.4984
 6431TIP3    H240929   3.849   3.878   8.575 -1.9906 -0.0649 -0.5749
 6432TIP3   OH240930   3.068   3.683   0.245  0.2836 -0.8635 -0.2130
 6432TIP3    H140931   3.001   3.616   0.253 -1.7846  0.9638 -1.3469
 6432TIP3    H240932   3.102   3.694   0.334 -1.1356 -1.6147  0.4403
 6433TIP3   OH240933   2.978   6.564   6.517 -0.4895  0.5745  0.3102
 6433TIP3    H140934   2.979   6.513   6.436 -1.4568 -0.5922  1.0020
 6433TIP3    H240935   2.888   6.594   6.525  0.1637  2.9396 -0.3662
 6434TIP3   OH240936   4.875   1.650   8.387  0.1950  0.5058 -0.0919
 6434TIP3    H140937   4.792   1.632   8.342  0.9566  0.0707 -1.3570
 6434TIP3    H240938   4.926   1.701   8.325 -0.2924  3.6325  1.8522
 6435TIP3   OH240939   2.011   6.719   0.006  0.5145  0.1222  0.0117
 6435TIP3    H140940   2.022   6.638  -0.044  1.1963  0.4390 -0.3656
 6435TIP3    H240941   1.928   6.708   0.052  0.4473 -0.6576 -0.2853
 6436TIP3   OH240942   5.974   4.228   1.453 -0.0962  0.6066 -0.1928
 6436TIP3    H140943   6.049   4.280   1.424  0.1093  1.0195  0.9865
 6436TIP3    H240944   5.960   4.256   1.544 -0.3781 -0.9432  0.2746
 6437TIP3   OH240945   5.591   6.862   8.241 -0.5072 -0.7976 -0.2097
 6437TIP3    H140946   5.510   6.910   8.257 -0.7222 -1.0154 -0.6214
 6437TIP3    H240947   5.604   6.809   8.320 -0.5238 -0.4222  0.0439
 6438TIP3   OH240948   1.236   5.518   1.544 -0.0270  0.2439 -0.0983
 6438TIP3    H140949   1.287   5.439   1.529 -0.6105 -0.0768 -0.4437
 6438TIP3    H240950   1.298   5.590   1.534  0.2392 -0.1114 -1.0717
 6439TIP3   OH240951   3.940   0.749   6.643 -0.4870  0.4037 -0.0756
 6439TIP3    H140952   3.857   0.710   6.670 -0.3004  0.3623  0.4513
 6439TIP3    H240953   3.925   0.844   6.653 -0.1664  0.3601  0.9513
 6440TIP3   OH240954   0.608   3.417   1.890 -0.3455 -0.0182 -0.1024
 6440TIP3    H140955   0.660   3.380   1.961  0.3556  0.8825 -0.1257
 6440TIP3    H240956   0.535   3.460   1.933  0.1843  0.6945  0.0940
 6441TIP3   OH240957   2.017   6.492   0.540  0.0412 -0.0353 -0.0055
 6441TIP3    H140958   1.995   6.410   0.584  1.0836  0.5772  1.7555
 6441TIP3    H240959   2.074   6.538   0.601  0.5358  1.4528 -1.4955
 6442TIP3   OH240960   2.319   5.093   7.468  0.5592 -0.0603 -0.3264
 6442TIP3    H140961   2.246   5.032   7.463  0.3645  0.0675  0.6771
 6442TIP3    H240962   2.391   5.040   7.504  0.4435  0.2533  0.3685
 6443TIP3   OH240963   2.948   4.670   1.838 -0.2165  0.5765  0.3586
 6443TIP3    H140964   2.879   4.725   1.875 -0.5287 -0.4409  1.3806
 6443TIP3    H240965   3.017   4.670   1.905  0.5507  1.1323 -0.4053
 6444TIP3   OH240966   0.760   0.902   7.227  0.6831  0.5737 -0.6622
 6444TIP3    H140967   0.759   0.989   7.187 -0.4116  0.2348 -1.4101
 6444TIP3    H240968   0.695   0.852   7.178  1.0314 -0.5651 -0.0015
 6445TIP3   OH240969   0.583   0.250   6.831 -0.2723  0.1782 -0.3668
 6445TIP3    H140970   0.664   0.199   6.832 -0.3596  0.0289 -0.6890
 6445TIP3    H240971   0.603   0.324   6.774 -0.0014  0.7525  0.4544
 6446TIP3   OH240972   4.904   6.019   6.742  0.4638  0.2255 -0.6150
 6446TIP3    H140973   4.976   5.956   6.741 -0.0330 -0.3545 -1.8600
 6446TIP3    H240974   4.910   6.061   6.828  0.7503 -1.5863  0.3039
 6447TIP3   OH240975   3.371   4.685   7.164  0.5555 -0.7400 -0.6358
 6447TIP3    H140976   3.314   4.670   7.088 -0.3940 -0.3135 -0.0280
 6447TIP3    H240977   3.337   4.766   7.204  1.7253 -0.3576 -0.3735
 6448TIP3   OH240978   4.653   6.253   8.464 -0.0567  0.4933 -0.3589
 6448TIP3    H140979   4.722   6.253   8.398  1.7228  1.8405  1.3891
 6448TIP3    H240980   4.599   6.329   8.442  0.8599  1.2755 -0.0122
 6449TIP3   OH240981   0.088   2.416   8.008  0.2927 -0.5865 -0.7968
 6449TIP3    H140982   0.118   2.487   7.952  0.3501 -0.5008 -0.6572
 6449TIP3    H240983   0.107   2.336   7.959 -0.7638 -0.4630 -1.4346
 6450TIP3   OH240984   4.301   2.241   8.133  0.4194 -0.8410  0.3590
 6450TIP3    H140985   4.327   2.179   8.201  0.7239  0.4291  1.4247
 6450TIP3    H240986   4.377   2.247   8.075  0.3409 -1.5413  0.1734
 6451TIP3   OH240987   6.197   4.249   6.093 -0.0658  0.7425 -0.0853
 6451TIP3    H140988   6.251   4.218   6.167  0.0272 -0.5116 -0.6473
 6451TIP3    H240989   6.134   4.308   6.133 -0.1646 -0.0921  1.0504
 6452TIP3   OH240990   1.229   0.606   0.029 -0.2527  0.2340 -0.0961
 6452TIP3    H140991   1.318   0.581   0.003  0.8222 -0.9471  3.9815
 6452TIP3    H240992   1.221   0.697   0.000  1.8607  0.0571 -1.4821
 6453TIP3   OH240993   0.022   6.223   2.386  0.3550  0.3354 -0.0084
 6453TIP3    H140994   0.088   6.192   2.448  0.0278  1.7471  1.0840
 6453TIP3    H240995   0.017   6.317   2.400  1.6794  1.1054 -3.5629
 6454TIP3   OH240996   6.475   4.164   0.034 -0.3855  0.4059 -0.3738
 6454TIP3    H140997   6.494   4.083   0.081 -0.5669  0.6797  0.1894
 6454TIP3    H240998   6.392   4.195   0.072  0.2714  1.4613  0.2631
 6455TIP3   OH240999   0.198   1.108   7.726 -0.2576 -0.3784  0.2350
 6455TIP3    H141000   0.219   1.039   7.789 -0.7758 -0.2136  0.5876
 6455TIP3    H241001   0.221   1.190   7.771 -2.0181 -0.1595  0.7969
 6456TIP3   OH241002   4.061   0.498   1.333 -0.0794  0.4771  0.0882
 6456TIP3    H141003   4.073   0.588   1.303 -1.1450  1.1221  1.4853
 6456TIP3    H241004   4.053   0.506   1.428 -2.3613 -0.8245  0.0749
 6457TIP3   OH241005   0.888   0.444   1.736  0.0033 -0.1380  0.6962
 6457TIP3    H141006   0.875   0.538   1.752 -0.1848 -0.0731  0.1738
 6457TIP3    H241007   0.936   0.414   1.813  1.2358  0.6595  0.2768
 6458TIP3   OH241008   1.112   4.149   1.559  0.2010  0.1197  0.2264
 6458TIP3    H141009   1.166   4.212   1.607  0.5935 -0.3269  0.3791
 6458TIP3    H241010   1.084   4.086   1.625  0.3972 -0.2623 -0.0545
 6459TIP3   OH241011   1.560   5.664   7.309  0.2816 -0.1411 -0.4470
 6459TIP3    H141012   1.641   5.614   7.313 -0.5549 -1.4901  0.6230
 6459TIP3    H241013   1.529   5.654   7.219  1.1264  0.1551 -0.7849
 6460TIP3   OH241014   4.676   0.483   7.980  0.0865 -0.0905  0.5489
 6460TIP3    H141015   4.657   0.469   7.887 -0.0869 -0.4068  0.6322
 6460TIP3    H241016   4.660   0.399   8.021  1.2280 -0.2469  0.7066
 6461TIP3   OH241017   0.095   4.620   8.036  0.3308 -0.3735 -0.1795
 6461TIP3    H141018   0.040   4.611   8.114 -0.0012 -2.2648 -0.5697
 6461TIP3    H241019   0.052   4.687   7.983 -0.1731 -0.0223  0.6537
 6462TIP3   OH241020   1.163   1.831   0.694  0.0607  0.1179 -0.5110
 6462TIP3    H141021   1.170   1.884   0.773 -0.7198 -1.6393  0.8140
 6462TIP3    H241022   1.070   1.812   0.685 -0.0286  1.2172 -2.5599
 6463TIP3   OH241023   3.050   6.664   8.338  0.3166 -0.2028  0.7495
 6463TIP3    H141024   2.960   6.696   8.339  0.9523  1.7058  1.4149
 6463TIP3    H241025   3.043   6.571   8.360 -1.4361  0.0374  1.3541
 6464TIP3   OH241026   5.599   3.271   7.955 -0.1401 -0.3382  0.1967
 6464TIP3    H141027   5.527   3.224   7.913 -0.2845  0.6054 -0.6650
 6464TIP3    H241028   5.646   3.204   8.005  0.0052 -1.5260 -1.4315
 6465TIP3   OH241029   6.264   2.354   1.699 -0.3043  0.0103 -0.2005
 6465TIP3    H141030   6.293   2.296   1.770 -0.5864 -1.5212 -1.2870
 6465TIP3    H241031   6.170   2.338   1.693 -0.6307  1.5245  0.2637
 6466TIP3   OH241032   3.325   3.039   1.345  0.4021 -0.1796  0.3179
 6466TIP3    H141033   3.234   3.061   1.324 -0.3377  0.2915  3.5275
 6466TIP3    H241034   3.336   3.068   1.436  2.3913 -4.1639  1.5511
 6467TIP3   OH241035   1.227   1.719   6.660  0.1755 -0.4732 -0.5679
 6467TIP3    H141036   1.271   1.639   6.685 -0.2769 -0.6685 -0.3758
 6467TIP3    H241037   1.206   1.708   6.567  1.1770 -0.0680 -0.8579
 6468TIP3   OH241038   6.286   1.081   7.549 -0.2295 -0.6572  0.1119
 6468TIP3    H141039   6.242   1.068   7.465 -1.7688  0.6972  0.6716
 6468TIP3    H241040   6.216   1.103   7.610  1.1794  1.5398  1.0588
 6469TIP3   OH241041   4.080   0.485   7.857 -0.0035  0.3614  0.2468
 6469TIP3    H141042   3.993   0.470   7.819  0.5406 -0.5951 -0.6635
 6469TIP3    H241043   4.116   0.557   7.805  0.3423 -0.2681 -0.3953
 6470TIP3   OH241044   5.438   1.774   0.827  0.2696  0.2042 -0.0903
 6470TIP3    H141045   5.467   1.862   0.804 -0.4046  0.3304 -0.4819
 6470TIP3    H241046   5.407   1.736   0.744  3.0662 -1.4069 -0.5157
 6471TIP3   OH241047   4.074   3.374   7.701  0.4070  0.0706  0.8387
 6471TIP3    H141048   4.000   3.331   7.743  0.4119 -0.1694  0.6062
 6471TIP3    H241049   4.061   3.358   7.607  0.2588  0.8121  0.7213
 6472TIP3   OH241050   3.001   0.502   1.118 -0.1672  0.2950 -0.7717
 6472TIP3    H141051   2.928   0.441   1.109 -0.9694  1.1508 -0.1795
 6472TIP3    H241052   3.075   0.456   1.078 -0.5664 -1.3743  0.2837
 6473TIP3   OH241053   4.071   2.600   0.192  0.4048  0.6141  0.5274
 6473TIP3    H141054   4.097   2.620   0.102 -0.2043 -0.1511  0.1742
 6473TIP3    H241055   3.976   2.612   0.192  0.3659  0.3095  0.9874
 6474TIP3   OH241056   4.838   2.990   0.589  0.3663 -0.5698 -0.1719
 6474TIP3    H141057   4.742   2.994   0.593  0.3094 -1.3036 -0.6299
 6474TIP3    H241058   4.858   2.899   0.567  1.1881 -0.5118  0.2965
 6475TIP3   OH241059   0.170   4.947   1.114 -0.0994  0.2732 -0.1684
 6475TIP3    H141060   0.145   4.865   1.157 -1.0720  1.2156  1.0908
 6475TIP3    H241061   0.120   4.946   1.032 -0.7109 -0.0273  0.2002
 6476TIP3   OH241062   0.328   6.024   2.263 -0.3103  0.0435  0.2540
 6476TIP3    H141063   0.320   6.104   2.315  0.4863  1.8803 -2.2193
 6476TIP3    H241064   0.383   5.967   2.316  0.7062  1.8994  1.3248
 6477TIP3   OH241065   4.005   6.424   6.820  0.2764  0.2069 -0.4457
 6477TIP3    H141066   4.096   6.411   6.793 -0.9508 -1.3364 -4.6954
 6477TIP3    H241067   3.976   6.338   6.849  0.5382  1.1109  2.9405
 6478TIP3   OH241068   1.497   5.103   2.414 -0.0851  0.5824 -0.4135
 6478TIP3    H141069   1.410   5.132   2.385  0.0646 -0.3737 -1.9102
 6478TIP3    H241070   1.536   5.180   2.454 -0.4491  1.9043 -2.4893
 6479TIP3   OH241071   1.770   4.669   8.394  0.1919  0.9113 -0.3225
 6479TIP3    H141072   1.691   4.621   8.368  0.8552 -1.0570  1.0494
 6479TIP3    H241073   1.786   4.730   8.322 -1.5638  0.1139 -1.4581
 6480TIP3   OH241074   5.692   2.245   1.231  0.1054  0.7846  0.0303
 6480TIP3    H141075   5.748   2.305   1.279 -0.8067  0.5537  1.4793
 6480TIP3    H241076   5.629   2.214   1.297  0.2449 -1.3683 -0.7731
 6481TIP3   OH241077   5.242   2.054   1.661 -0.5961 -0.1896  0.6510
 6481TIP3    H141078   5.204   2.013   1.739  1.5353  0.0009  1.8611
 6481TIP3    H241079   5.297   1.986   1.622 -0.9570 -0.0032 -0.2132
 6482TIP3   OH241080   6.291   5.905   7.560 -0.0821  0.3136 -0.3808
 6482TIP3    H141081   6.333   5.821   7.543  1.2310  0.6692  0.8907
 6482TIP3    H241082   6.278   5.944   7.473  0.6890 -0.5484 -0.8969
 6483TIP3   OH241083   1.243   4.659   1.771 -0.1488  0.1041 -0.1955
 6483TIP3    H141084   1.237   4.592   1.703  0.0744 -0.0682 -0.0509
 6483TIP3    H241085   1.337   4.666   1.789 -0.1738  0.4586 -0.2120
 6484TIP3   OH241086   5.023   6.066   0.041 -0.5182  0.9331  0.0806
 6484TIP3    H141087   4.930   6.089   0.035 -0.7796  0.1713  0.8802
 6484TIP3    H241088   5.029   5.980  -0.000 -0.7180 -0.3063  2.4748
 6485TIP3   OH241089   4.055   3.178   7.207  0.6955 -0.0372  0.2413
 6485TIP3    H141090   4.123   3.239   7.180 -0.4556  0.9266 -0.6094
 6485TIP3    H241091   4.024   3.139   7.125  0.6237 -0.9187  0.6682
 6486TIP3   OH241092   3.573   3.578   2.728 -0.0739  0.1096  0.2351
 6486TIP3    H141093   3.595   3.653   2.673  0.7424  0.0012  0.4073
 6486TIP3    H241094   3.633   3.509   2.700 -0.1185 -0.1593  0.7969
 6487TIP3   OH241095   4.842   4.878   2.660  0.1444 -0.0822  0.1787
 6487TIP3    H141096   4.887   4.808   2.612  1.2009  0.0990  0.8748
 6487TIP3    H241097   4.910   4.917   2.715 -0.6281  0.9314  0.4415
 6488TIP3   OH241098   6.410   4.962   1.194  0.1569 -0.0769 -0.0519
 6488TIP3    H141099   6.394   5.003   1.109 -1.7004  0.1833  0.3802
 6488TIP3    H241100   6.504   4.973   1.209  0.1635  1.7292 -1.1392
 6489TIP3   OH241101   1.575   5.441   0.338  0.0364 -0.3369 -0.2675
 6489TIP3    H141102   1.492   5.413   0.376 -0.3290  0.1630 -0.6812
 6489TIP3    H241103   1.627   5.361   0.330 -0.8530 -0.8450 -1.1195
 6490TIP3   OH241104   6.309   5.493   7.215 -0.3012 -0.3805 -0.2483
 6490TIP3    H141105   6.287   5.584   7.196 -0.9660 -0.3157  0.7546
 6490TIP3    H241106   6.251   5.468   7.287 -0.8541 -1.9178 -1.1783
 6491TIP3   OH241107   4.002   1.643   0.547 -0.4068 -0.0986 -0.1709
 6491TIP3    H141108   4.045   1.718   0.506  2.0594 -1.3170 -0.0070
 6491TIP3    H241109   4.038   1.567   0.502  1.6357 -1.4570  3.3098
 6492TIP3   OH241110   0.263   0.624   1.022  0.8095  0.3731  0.2209
 6492TIP3    H141111   0.332   0.631   0.957  0.4444  0.3945 -0.1690
 6492TIP3    H241112   0.187   0.666   0.981  0.2686 -0.5766  0.2224
 6493TIP3   OH241113   2.593   2.696   2.198  0.1252 -0.2395 -0.3025
 6493TIP3    H141114   2.599   2.761   2.128  1.0606 -0.8453 -0.8015
 6493TIP3    H241115   2.679   2.655   2.199 -0.0419 -0.5665  0.8932
 6494TIP3   OH241116   5.435   4.086   2.241 -0.4926  0.3891  0.0968
 6494TIP3    H141117   5.510   4.067   2.297  0.7210  0.2379 -1.5099
 6494TIP3    H241118   5.363   4.104   2.302  0.7497  0.1990  1.6749
 6495TIP3   OH241119   4.556   6.503   0.770 -0.1708  0.0690  0.0068
 6495TIP3    H141120   4.518   6.588   0.746  1.3964  0.3507 -1.6629
 6495TIP3    H241121   4.643   6.503   0.730 -0.3966 -2.6235 -0.6755
 6496TIP3   OH241122   4.581   4.784   2.439  0.0335  0.3369  0.2663
 6496TIP3    H141123   4.586   4.799   2.344 -0.5546 -0.3478  0.1136
 6496TIP3    H241124   4.507   4.723   2.449  0.2774  0.1767  1.1379
 6497TIP3   OH241125   6.874   6.852   0.811  0.3585 -0.2960 -0.1386
 6497TIP3    H141126   6.798   6.907   0.829  0.8326  0.5049 -0.5516
 6497TIP3    H241127   6.863   6.776   0.868 -2.3346 -1.6982 -2.2424
 6498TIP3   OH241128   0.468   2.094   6.858  0.3148 -0.5861  0.3288
 6498TIP3    H141129   0.507   2.136   6.781  0.7183 -0.6847  0.4783
 6498TIP3    H241130   0.381   2.133   6.865 -1.3231 -3.2267 -2.4724
 6499TIP3   OH241131   2.982   4.924   8.260 -0.6889  0.1441  0.5268
 6499TIP3    H141132   3.044   4.879   8.318 -0.4989  0.1739  0.3477
 6499TIP3    H241133   2.945   4.994   8.314 -2.3454 -1.3264  1.3959
 6500TIP3   OH241134   2.912   2.714   8.532  0.0090  0.7987  0.1410
 6500TIP3    H141135   2.866   2.781   8.482 -0.6902  0.2648  0.0566
 6500TIP3    H241136   2.997   2.706   8.489  0.2766  1.9515  0.4353
 6501TIP3   OH241137   0.358   3.026   1.066  0.4740 -0.2428 -0.4201
 6501TIP3    H141138   0.330   3.057   1.152  1.9345  1.6155 -0.5622
 6501TIP3    H241139   0.423   2.958   1.085  1.4929  0.8220 -0.0170
 6502TIP3   OH241140   4.444   3.623   7.004  0.0822 -0.2719 -0.2765
 6502TIP3    H141141   4.487   3.705   6.981  1.9959 -0.7449  1.3796
 6502TIP3    H241142   4.498   3.555   6.963 -1.0868 -0.7797 -1.0460
 6503TIP3   OH241143   2.754   6.700   7.379 -0.0795  0.0279 -0.7389
 6503TIP3    H141144   2.793   6.786   7.394  0.3917 -0.3303  0.2337
 6503TIP3    H241145   2.802   6.642   7.438  0.6221 -1.1923 -2.4526
 6504TIP3   OH241146   1.501   3.703   2.157  0.2412 -0.3136 -0.0742
 6504TIP3    H141147   1.407   3.682   2.161  0.6253 -1.9775  1.2791
 6504TIP3    H241148   1.521   3.732   2.246  1.1399 -0.5585 -0.1962
 6505TIP3   OH241149   0.118   5.350   1.540 -0.1681  0.7080 -0.4857
 6505TIP3    H141150   0.099   5.256   1.549 -0.0369  0.6527 -0.7870
 6505TIP3    H241151   0.205   5.360   1.578  0.0499  0.6115 -0.9527
 6506TIP3   OH241152   4.059   5.423   6.989 -0.9593 -0.5058  0.1011
 6506TIP3    H141153   4.117   5.495   6.965  0.4601 -1.1439  1.4187
 6506TIP3    H241154   4.014   5.454   7.068 -1.4607 -0.4961 -0.1883
 6507TIP3   OH241155   5.632   6.161   0.624  0.0910  0.2725 -0.1285
 6507TIP3    H141156   5.598   6.212   0.697  0.0158  1.4476 -0.9572
 6507TIP3    H241157   5.555   6.142   0.570  0.5465  2.2167 -1.5687
 6508TIP3   OH241158   2.166   3.469   1.118  0.4962 -0.7368  0.4081
 6508TIP3    H141159   2.163   3.544   1.058  2.2701 -2.4334 -1.9996
 6508TIP3    H241160   2.196   3.506   1.201 -0.4039  1.4518 -0.1556
 6509TIP3   OH241161   1.884   4.787   6.818 -0.1024  0.3890 -0.4259
 6509TIP3    H141162   1.910   4.696   6.830  0.0953  0.6077  1.0813
 6509TIP3    H241163   1.790   4.788   6.839  0.0836  0.6580  0.4522
 6510TIP3   OH241164   5.385   5.943   1.377  0.2249  0.0247 -0.1003
 6510TIP3    H141165   5.472   5.968   1.408 -0.5893  1.5050  1.1457
 6510TIP3    H241166   5.340   5.911   1.456 -0.8102  0.6484 -0.4144
 6511TIP3   OH241167   6.087   1.708   7.218  0.2089  0.8784  0.2151
 6511TIP3    H141168   6.038   1.790   7.221 -0.4351  0.4732  2.0684
 6511TIP3    H241169   6.170   1.728   7.261 -0.7941  0.1183  2.7317
 6512TIP3   OH241170   4.395   4.124   8.462 -0.4766 -0.7600  0.4241
 6512TIP3    H141171   4.307   4.128   8.425 -0.2182  0.0279 -0.1382
 6512TIP3    H241172   4.396   4.043   8.512 -1.5607 -0.7194  0.5390
 6513TIP3   OH241173   3.977   2.285   2.037  0.0647  0.4061 -0.6701
 6513TIP3    H141174   4.022   2.359   2.079 -1.7081  1.5182 -0.6067
 6513TIP3    H241175   3.889   2.287   2.074  0.7405 -3.7110  1.7027
 6514TIP3   OH241176   4.302   3.002   1.355  0.9227  0.1472  0.8811
 6514TIP3    H141177   4.384   3.052   1.361  0.8872  0.3762 -0.4044
 6514TIP3    H241178   4.302   2.965   1.267 -1.2897  1.8055  0.0954
 6515TIP3   OH241179   4.979   1.055   6.131  0.0272  0.2036  0.6165
 6515TIP3    H141180   4.950   1.141   6.100  1.4570  0.4426 -0.1286
 6515TIP3    H241181   4.978   0.999   6.053 -0.1406 -0.2502  0.9399
 6516TIP3   OH241182   0.791   6.127   7.356  0.4611 -0.3061  0.0731
 6516TIP3    H141183   0.799   6.164   7.268  0.3690  1.4744  0.7532
 6516TIP3    H241184   0.864   6.066   7.364  2.0134  1.4013 -0.3798
 6517TIP3   OH241185   0.947   5.934   8.091 -0.3477  0.5584  0.2659
 6517TIP3    H141186   1.042   5.924   8.098 -0.2640  1.3307  0.2896
 6517TIP3    H241187   0.923   5.988   8.166 -0.9027 -0.1843  0.6306
 6518TIP3   OH241188   3.563   6.899   8.468  0.4396  0.2943  0.0326
 6518TIP3    H141189   3.603   6.914   8.383  0.5654 -0.4679 -0.0411
 6518TIP3    H241190   3.473   6.873   8.449  0.8488 -1.2027  0.0736
 6519TIP3   OH241191   4.875   1.943   1.314  0.2557 -0.2038 -0.3253
 6519TIP3    H141192   4.948   1.981   1.265  0.3001 -0.8587 -0.7785
 6519TIP3    H241193   4.901   1.853   1.331 -0.5080 -0.4887 -0.6214
 6520TIP3   OH241194   2.465   2.289   1.367  0.0802 -0.0262 -0.4915
 6520TIP3    H141195   2.501   2.239   1.440 -3.1078  0.7063  1.7401
 6520TIP3    H241196   2.542   2.307   1.311  2.6385 -0.8130  2.4839
 6521TIP3   OH241197   4.153   3.777   1.125 -0.3939  0.3744  0.5077
 6521TIP3    H141198   4.194   3.858   1.096  1.1829 -0.3879  0.4876
 6521TIP3    H241199   4.109   3.799   1.206  1.5708  0.8936  1.4973
 6522TIP3   OH241200   4.124   4.104   8.388 -0.1030  0.0201 -0.1185
 6522TIP3    H141201   4.058   4.168   8.363 -1.8194 -1.6502 -0.1286
 6522TIP3    H241202   4.121   4.103   8.484 -0.2701 -0.1909 -0.1226
 6523TIP3   OH241203   0.658   3.015   7.796 -0.4389  0.4853 -0.3754
 6523TIP3    H141204   0.699   3.102   7.793  2.1225 -0.6191 -0.1683
 6523TIP3    H241205   0.607   3.016   7.877  0.3388  1.4858  0.1295
 6524TIP3   OH241206   2.291   4.438   0.358  0.2451 -0.2356  0.3472
 6524TIP3    H141207   2.252   4.433   0.271 -1.0191  2.4798  0.6522
 6524TIP3    H241208   2.253   4.365   0.407 -2.9373  1.0108 -0.0201
 6525TIP3   OH241209   5.470   2.802   7.198 -0.0026  0.5096 -0.3358
 6525TIP3    H141210   5.458   2.816   7.104  0.6248 -2.0679 -0.8774
 6525TIP3    H241211   5.408   2.863   7.239 -0.5372  1.4621 -2.3919
 6526TIP3   OH241212   2.100   4.307   7.143  0.3484 -0.4531 -0.1853
 6526TIP3    H141213   2.036   4.239   7.166 -0.6569  0.3617 -0.4961
 6526TIP3    H241214   2.048   4.376   7.101  1.3875  0.3764 -0.1542
 6527TIP3   OH241215   5.445   6.873   7.707  0.2654  1.0064  0.0173
 6527TIP3    H141216   5.443   6.879   7.611  0.9551  1.0190  0.0018
 6527TIP3    H241217   5.536   6.853   7.728 -0.1593 -0.4396  0.5889
 6528TIP3   OH241218   2.708   4.327   0.114 -0.6690  0.5627  0.0504
 6528TIP3    H141219   2.656   4.332   0.034 -0.2072 -1.1300 -0.3984
 6528TIP3    H241220   2.736   4.417   0.130  0.0425  0.8295 -2.2678
 6529TIP3   OH241221   2.153   3.022   8.433  0.1649 -0.0307  0.2240
 6529TIP3    H141222   2.071   2.989   8.470  0.6618 -0.3553  1.0556
 6529TIP3    H241223   2.205   2.944   8.417  0.4759  0.2019  0.0924
 6530TIP3   OH241224   1.342   6.169   6.855  0.1499 -0.1573  0.2163
 6530TIP3    H141225   1.348   6.259   6.821  1.8389 -0.6586 -0.9230
 6530TIP3    H241226   1.278   6.175   6.926 -1.0252  1.6114 -0.8999
 6531TIP3   OH241227   6.474   5.809   0.594 -0.1154 -0.1444  0.0651
 6531TIP3    H141228   6.561   5.802   0.554 -0.6832 -0.6330 -1.1212
 6531TIP3    H241229   6.479   5.752   0.671  1.0250  0.8985  0.8068
 6532TIP3   OH241230   3.815   1.259   1.869  0.7225  0.1609  0.2979
 6532TIP3    H141231   3.829   1.349   1.842 -0.5698  0.2476 -0.1191
 6532TIP3    H241232   3.895   1.213   1.841 -0.5106  0.2116 -3.9142
 6533TIP3   OH241233   2.304   5.981   1.220 -0.6486 -0.4776 -0.4908
 6533TIP3    H141234   2.333   6.050   1.279  1.0427 -1.1080 -0.5519
 6533TIP3    H241235   2.327   6.012   1.133 -0.8500 -0.6666 -0.6154
 6534TIP3   OH241236   1.454   4.374   0.811  0.0451 -0.0917  0.5314
 6534TIP3    H141237   1.527   4.410   0.761 -0.3869  0.7092  0.4690
 6534TIP3    H241238   1.445   4.430   0.887  0.5162 -1.1433  1.3938
 6535TIP3   OH241239   4.300   5.612   8.248  0.2886  0.2965 -0.1189
 6535TIP3    H141240   4.234   5.652   8.191  1.8044  2.0968 -0.7045
 6535TIP3    H241241   4.329   5.535   8.200 -0.2920  0.3413 -0.5608
 6536TIP3   OH241242   3.561   3.424   7.562  0.1332 -0.4025  0.6930
 6536TIP3    H141243   3.483   3.379   7.595 -0.1249 -0.1740  0.3953
 6536TIP3    H241244   3.546   3.516   7.585 -0.0053 -0.2545  0.0258
 6537TIP3   OH241245   6.472   3.589   0.602  0.7209  0.3607 -0.7755
 6537TIP3    H141246   6.541   3.602   0.668  0.3676  2.4359 -0.7454
 6537TIP3    H241247   6.391   3.593   0.652  0.5109 -1.5737 -0.8877
 6538TIP3   OH241248   2.763   1.236   6.539 -0.2448 -0.5407  0.2756
 6538TIP3    H141249   2.792   1.289   6.465 -0.4524  0.6785  1.0500
 6538TIP3    H241250   2.676   1.205   6.514 -0.1890 -0.3760 -0.1224
 6539TIP3   OH241251   1.109   2.795   1.648 -0.1008  0.6922  0.0897
 6539TIP3    H141252   1.087   2.880   1.610 -0.2970  0.7318  0.2904
 6539TIP3    H241253   1.205   2.790   1.641 -0.2721 -0.2383 -2.3755
 6540TIP3   OH241254   5.594   1.605   7.249 -0.1189  0.6790 -0.0210
 6540TIP3    H141255   5.562   1.608   7.339  2.0327  0.8957  0.7815
 6540TIP3    H241256   5.689   1.599   7.257  0.1445  0.9544 -2.2883
 6541TIP3   OH241257   5.991   4.958   8.299 -0.1914 -0.0091 -0.1505
 6541TIP3    H141258   5.921   4.893   8.294 -0.1948 -0.1258  1.1508
 6541TIP3    H241259   5.945   5.042   8.304 -0.2499 -0.0813  0.6382
 6542TIP3   OH241260   5.924   2.013   7.693  0.3831 -0.3203  0.1645
 6542TIP3    H141261   5.894   1.941   7.748  1.0842  1.1047  2.5775
 6542TIP3    H241262   5.844   2.060   7.670 -0.1148 -1.9596 -1.6855
 6543TIP3   OH241263   1.062   4.902   6.458  0.0869  0.7049  0.0708
 6543TIP3    H141264   1.113   4.917   6.538 -0.4482  2.0340  0.1849
 6543TIP3    H241265   0.992   4.842   6.485  1.2946 -0.7855  0.0105
 6544TIP3   OH241266   0.835   1.755   1.281 -0.4521  0.3059  0.6550
 6544TIP3    H141267   0.784   1.748   1.362 -0.8824  0.3813  0.3962
 6544TIP3    H241268   0.770   1.745   1.211 -0.0346 -0.1087  0.3180
 6545TIP3   OH241269   6.026   4.505   1.213 -0.0940  0.5105  0.3913
 6545TIP3    H141270   5.958   4.537   1.154 -0.2940  0.7442  0.7461
 6545TIP3    H241271   6.022   4.564   1.289 -0.1710 -0.0858  0.8565
 6546TIP3   OH241272   5.771   6.659   8.112 -0.5167  0.2105 -0.2228
 6546TIP3    H141273   5.680   6.682   8.133 -0.8494 -1.2414  0.0673
 6546TIP3    H241274   5.771   6.563   8.108  0.2999  0.2299 -3.4145
 6547TIP3   OH241275   0.812   6.564   0.193 -0.1426  0.2760  0.3770
 6547TIP3    H141276   0.774   6.609   0.118 -0.0477 -0.5739 -0.1975
 6547TIP3    H241277   0.738   6.545   0.250 -0.5603 -1.1165 -0.5989
 6548TIP3   OH241278   2.607   4.863   8.161 -0.3552 -0.3107  0.1564
 6548TIP3    H141279   2.579   4.950   8.132  0.4057  0.2639  1.0655
 6548TIP3    H241280   2.554   4.846   8.238  2.5538  1.4304  2.7959
 6549TIP3   OH241281   5.745   5.313   0.130  0.7014  0.3922  0.0985
 6549TIP3    H141282   5.777   5.232   0.170 -0.5777 -0.5219 -0.6392
 6549TIP3    H241283   5.678   5.284   0.068  0.7654  1.9643 -0.7635
 6550TIP3   OH241284   0.799   0.811   8.569  0.6965  0.0233  0.0226
 6550TIP3    H141285   0.778   0.790   8.660 -0.6228  2.8379  0.4548
 6550TIP3    H241286   0.740   0.882   8.546  2.7604  1.1698 -2.1870
 6551TIP3   OH241287   3.049   6.621   0.200  0.7917 -0.1530  0.2981
 6551TIP3    H141288   3.050   6.660   0.113 -0.2191  0.0185  0.3522
 6551TIP3    H241289   3.123   6.560   0.200  1.5626  0.7528 -0.2441
 6552TIP3   OH241290   2.496   2.776   8.436 -0.0324  0.3157 -0.0222
 6552TIP3    H141291   2.499   2.709   8.368  0.6377  0.3506 -0.0315
 6552TIP3    H241292   2.467   2.855   8.391 -1.0035 -0.0031  0.0262
 6553TIP3   OH241293   5.114   0.774   8.471  0.0868 -0.3497 -0.3234
 6553TIP3    H141294   5.046   0.713   8.444 -0.9849  0.5725  0.1834
 6553TIP3    H241295   5.150   0.808   8.389 -1.5711  0.7363 -0.6660
 6554TIP3   OH241296   3.460   2.173   0.154 -0.4670  0.2277  0.2500
 6554TIP3    H141297   3.426   2.127   0.231 -1.9299 -0.7325 -0.9079
 6554TIP3    H241298   3.388   2.169   0.091  0.4918  1.4959 -0.9721
 6555TIP3   OH241299   3.669   6.732   7.521 -0.4906 -0.1386  0.1698
 6555TIP3    H141300   3.584   6.711   7.482  1.2644 -0.5911 -3.7921
 6555TIP3    H241301   3.691   6.818   7.487  1.6591 -1.0402 -0.8953
 6556TIP3   OH241302   0.949   4.362   1.498  0.0686  0.0471  0.2745
 6556TIP3    H141303   0.884   4.323   1.440 -0.0290  2.4469 -1.3555
 6556TIP3    H241304   1.001   4.288   1.529 -0.5681 -1.4516 -2.0081
 6557TIP3   OH241305   4.291   1.266   0.891  0.4569 -0.1876 -0.0412
 6557TIP3    H141306   4.327   1.179   0.870  0.7778 -0.4479  1.4248
 6557TIP3    H241307   4.315   1.279   0.983 -0.3009  1.1147 -0.0129
 6558TIP3   OH241308   2.203   4.773   2.332 -0.7455  0.8645  0.3639
 6558TIP3    H141309   2.260   4.696   2.336 -2.2359 -0.2484  1.1388
 6558TIP3    H241310   2.228   4.826   2.408 -0.1852  0.8292  0.2117
 6559TIP3   OH241311   0.588   4.774   1.732 -0.8201  0.3853 -0.5154
 6559TIP3    H141312   0.670   4.729   1.754 -0.3379  1.5199  0.1042
 6559TIP3    H241313   0.568   4.826   1.809 -0.3605  2.6704 -1.8490
 6560TIP3   OH241314   2.604   4.884   0.791 -0.4959  0.7052  0.1039
 6560TIP3    H141315   2.522   4.887   0.743 -2.6175  1.5898  3.4331
 6560TIP3    H241316   2.661   4.946   0.745 -2.9374  2.7741 -0.3563
 6561TIP3   OH241317   4.237   3.121   0.165 -0.6581  0.1081  0.4612
 6561TIP3    H141318   4.220   3.215   0.159  0.5279  0.7116  4.0543
 6561TIP3    H241319   4.170   3.088   0.224 -0.1676 -1.0295  0.4135
 6562TIP3   OH241320   6.748   0.807   0.140 -0.2845  0.4126  0.0234
 6562TIP3    H141321   6.811   0.744   0.174 -0.1397  0.7014  0.2997
 6562TIP3    H241322   6.784   0.833   0.055  0.1614  0.8443  0.3366
 6563TIP3   OH241323   1.457   5.489   7.039  0.2915 -0.5762 -0.4669
 6563TIP3    H141324   1.427   5.425   6.975 -0.3490  0.6186 -1.3997
 6563TIP3    H241325   1.538   5.524   7.002 -0.9725  1.3751 -1.5653
 6564TIP3   OH241326   3.621   5.479   0.191  0.2660 -0.0101 -0.2734
 6564TIP3    H141327   3.579   5.464   0.276 -2.8821  0.0074 -1.6934
 6564TIP3    H241328   3.710   5.506   0.213  0.3583 -2.3440  2.9209
 6565TIP3   OH241329   2.169   3.072   6.402  0.2532  0.0779 -0.0487
 6565TIP3    H141330   2.096   3.033   6.354  0.8266 -0.7337 -0.2908
 6565TIP3    H241331   2.209   2.998   6.449  1.9041  0.1545 -1.2190
 6566TIP3   OH241332   1.137   1.270   0.696 -0.1287  0.4790 -0.2427
 6566TIP3    H141333   1.155   1.223   0.615  3.9888 -0.0882  0.7818
 6566TIP3    H241334   1.148   1.363   0.674  1.1627  0.3152 -0.3491
 6567TIP3   OH241335   0.141   5.122   7.956  0.1788  0.5812 -0.0570
 6567TIP3    H141336   0.168   5.212   7.938 -2.7457  1.6907  0.4517
 6567TIP3    H241337   0.061   5.110   7.903 -0.4460 -1.0933  1.1801
 6568TIP3   OH241338   5.640   1.200   6.834  0.3036  0.0266 -0.3408
 6568TIP3    H141339   5.728   1.164   6.845 -0.4748 -1.2680  2.6810
 6568TIP3    H241340   5.649   1.293   6.854  0.6908 -0.5002  2.1917
 6569TIP3   OH241341   5.885   2.398   1.404 -0.3726  0.3888  0.3017
 6569TIP3    H141342   5.979   2.378   1.405 -0.0392  1.8593  0.1817
 6569TIP3    H241343   5.867   2.434   1.491  0.1271  3.9842 -0.9034
 6570TIP3   OH241344   5.119   6.458   0.765  0.0370 -0.3507 -0.0626
 6570TIP3    H141345   5.030   6.428   0.783 -0.3720  0.9981  0.3332
 6570TIP3    H241346   5.142   6.418   0.681 -2.3193  1.9350 -1.9707
 6571TIP3   OH241347   2.645   4.537   0.962 -0.4163 -0.1537  0.4903
 6571TIP3    H141348   2.578   4.513   0.898 -2.3346  1.3433  1.8102
 6571TIP3    H241349   2.679   4.621   0.930 -1.7675  0.8752  1.6223
 6572TIP3   OH241350   2.861   5.824   7.786 -0.0402 -0.2154  0.2280
 6572TIP3    H141351   2.806   5.897   7.813  1.0668  0.4118  0.8738
 6572TIP3    H241352   2.950   5.851   7.810  0.4966 -1.3934 -0.3478
 6573TIP3   OH241353   1.824   5.544   1.434  0.2916 -0.0343 -0.8048
 6573TIP3    H141354   1.745   5.491   1.444 -0.6833  1.6308  1.2013
 6573TIP3    H241355   1.887   5.487   1.390 -0.8950 -2.5800  0.6231
 6574TIP3   OH241356   3.047   4.307   1.583 -0.1223  0.0655 -0.3660
 6574TIP3    H141357   3.043   4.402   1.594 -1.1011  0.0233 -0.2882
 6574TIP3    H241358   3.050   4.294   1.488 -0.0526  0.1713 -0.3785
 6575TIP3   OH241359   3.056   3.498   7.144 -0.3765 -0.2097  0.1220
 6575TIP3    H141360   3.020   3.533   7.063 -0.2195  0.8824  0.5122
 6575TIP3    H241361   3.086   3.575   7.192  0.2936 -0.9126  0.8515
 6576TIP3   OH241362   3.283   6.133   1.338 -0.2370  0.1536 -0.2020
 6576TIP3    H141363   3.354   6.091   1.290 -0.4814 -0.1637 -0.2920
 6576TIP3    H241364   3.325   6.201   1.390  0.3028 -0.8090  0.6722
 6577TIP3   OH241365   5.112   3.333   7.868 -0.0779  0.7591  0.3940
 6577TIP3    H141366   5.103   3.384   7.788 -1.5111 -0.9980 -0.6478
 6577TIP3    H241367   5.023   3.319   7.898  0.2884 -0.6835  0.8997
 6578TIP3   OH241368   3.089   0.218   6.931  0.4820  0.0005 -0.0500
 6578TIP3    H141369   2.998   0.191   6.916  0.4869 -0.0416 -0.0050
 6578TIP3    H241370   3.134   0.196   6.849  0.7918 -1.4586  0.4871
 6579TIP3   OH241371   2.116   6.465   6.689  0.1471  0.3342  0.2725
 6579TIP3    H141372   2.075   6.383   6.719  0.0660 -0.2795 -1.3992
 6579TIP3    H241373   2.048   6.507   6.636  0.6790  0.7573 -0.0782
 6580TIP3   OH241374   0.042   0.279   7.224  0.9597 -0.4517 -0.0507
 6580TIP3    H141375   0.061   0.274   7.318  1.9279  0.3003 -0.1859
 6580TIP3    H241376   0.124   0.311   7.186 -0.4797  2.8163 -0.7293
 6581TIP3   OH241377   2.981   1.340   8.074 -0.0952  0.1870  0.1550
 6581TIP3    H141378   3.046   1.404   8.046  0.2723 -0.8240 -1.3945
 6581TIP3    H241379   3.030   1.276   8.125 -0.3357  0.6857  1.0527
 6582TIP3   OH241380   4.582   0.784   8.036  0.2417  0.5981  0.0820
 6582TIP3    H141381   4.646   0.730   8.083  1.1886  2.1364  0.6364
 6582TIP3    H241382   4.590   0.870   8.077  0.0378  1.6255 -1.9524
 6583TIP3   OH241383   0.054   2.248   8.471 -0.5249 -0.2133 -0.5423
 6583TIP3    H141384   0.062   2.283   8.383 -0.7780 -0.0209 -0.4908
 6583TIP3    H241385   0.131   2.281   8.517 -0.4531 -0.2180 -0.6585
 6584TIP3   OH241386   5.384   5.632   7.405  0.4058 -0.0424 -0.2958
 6584TIP3    H141387   5.473   5.654   7.379  0.1367  0.8820 -0.4569
 6584TIP3    H241388   5.353   5.709   7.453 -1.2717  0.8407 -2.6482
 6585TIP3   OH241389   4.451   5.613   8.468 -0.0095 -0.2387  0.1556
 6585TIP3    H141390   4.409   5.614   8.382 -0.1257  0.6274  0.2128
 6585TIP3    H241391   4.381   5.632   8.530  0.1915 -0.2192  0.3816
 6586TIP3   OH241392   1.043   2.744   6.456 -0.5133 -0.3419  0.0630
 6586TIP3    H141393   0.970   2.773   6.401  0.0763 -1.1419 -1.1998
 6586TIP3    H241394   1.022   2.778   6.543 -3.2773 -2.0161  0.1808
 6587TIP3   OH241395   5.193   6.127   8.198  0.3132  0.6699  0.1564
 6587TIP3    H141396   5.210   6.093   8.110  0.1926 -0.7860  0.6605
 6587TIP3    H241397   5.133   6.201   8.184  0.4341  0.5675 -0.9905
 6588TIP3   OH241398   3.013   6.174   8.080  0.0689  0.1043  0.5277
 6588TIP3    H141399   2.921   6.159   8.102 -0.1234 -0.8777 -0.8276
 6588TIP3    H241400   3.060   6.158   8.162 -1.0101  1.3876  1.4437
 6589TIP3   OH241401   4.572   1.847   1.513 -0.7100  0.5229  0.3941
 6589TIP3    H141402   4.510   1.832   1.585  0.7663  1.0668  1.8645
 6589TIP3    H241403   4.618   1.764   1.503 -1.1441  0.3449 -0.1816
 6590TIP3   OH241404   5.086   4.196   7.040 -0.6816 -0.7841  0.4150
 6590TIP3    H141405   4.997   4.163   7.049 -1.1700  0.4032  0.1437
 6590TIP3    H241406   5.082   4.258   6.967  0.0602  0.2434  1.2032
 6591TIP3   OH241407   6.153   0.217   8.502  0.5409  0.1698  0.2373
 6591TIP3    H141408   6.154   0.304   8.461  1.5887 -0.7741 -1.9002
 6591TIP3    H241409   6.099   0.164   8.444 -1.9611 -0.1835  2.6774
 6592TIP3   OH241410   6.043   1.189   0.370 -0.1657  0.5064  0.2424
 6592TIP3    H141411   6.116   1.191   0.431  0.9002 -2.0378 -0.8316
 6592TIP3    H241412   5.977   1.134   0.413  0.1499 -0.3983 -0.4107
 6593TIP3   OH241413   1.925   5.827   7.532 -0.4370 -0.0008 -0.0756
 6593TIP3    H141414   1.900   5.854   7.444  0.5144 -1.6441 -0.8951
 6593TIP3    H241415   1.991   5.891   7.560 -2.0086  1.5653  0.2056
 6594TIP3   OH241416   2.548   2.528   1.778 -0.6243 -0.6169 -0.6587
 6594TIP3    H141417   2.563   2.592   1.708  0.4276  1.0783  1.0404
 6594TIP3    H241418   2.497   2.575   1.843  0.5562 -1.3414  0.8433
 6595TIP3   OH241419   5.889   2.146   8.061 -0.5131  0.5345  0.0931
 6595TIP3    H141420   5.818   2.086   8.037  0.4881 -1.7292  2.2739
 6595TIP3    H241421   5.962   2.118   8.007  0.0362 -0.4909  1.3142
 6596TIP3   OH241422   1.590   5.159   1.367  0.3591  0.3955  0.2170
 6596TIP3    H141423   1.639   5.208   1.301  0.2258  0.5848  0.2573
 6596TIP3    H241424   1.602   5.209   1.448 -1.3556  1.4528 -0.1231
 6597TIP3   OH241425   5.991   3.229   8.499  0.0144  0.0813 -0.5591
 6597TIP3    H141426   5.955   3.217   8.586  0.7629  1.2066 -0.0791
 6597TIP3    H241427   6.049   3.153   8.487  0.0896  0.0429  0.0134
 6598TIP3   OH241428   5.913   3.609   7.634  0.0723 -0.1869 -0.7507
 6598TIP3    H141429   5.944   3.524   7.600  0.8213 -1.4785  2.7363
 6598TIP3    H241430   5.818   3.601   7.635  0.1622 -1.9843  1.5371
 6599TIP3   OH241431   2.015   4.683   0.642  0.0609 -0.1810 -0.6793
 6599TIP3    H141432   2.060   4.600   0.655  1.0868  0.3939 -0.4697
 6599TIP3    H241433   2.015   4.724   0.728  0.7079  0.5985 -1.0458
 6600TIP3   OH241434   2.209   1.771   1.424  0.4447  0.5382 -0.0499
 6600TIP3    H141435   2.223   1.823   1.344  0.6075  1.2079  0.3996
 6600TIP3    H241436   2.122   1.797   1.454  0.3492  0.2232 -0.0529
 6601TIP3   OH241437   4.011   0.180   7.024 -0.8018 -0.3234 -0.4884
 6601TIP3    H141438   4.017   0.273   7.004 -0.0939 -0.5205 -1.2246
 6601TIP3    H241439   4.036   0.135   6.943  0.7894 -1.1385  0.3946
 6602TIP3   OH241440   4.711   4.025   7.765  0.4565  0.1272 -0.1327
 6602TIP3    H141441   4.674   4.113   7.771  0.8233  0.3721 -1.2824
 6602TIP3    H241442   4.746   4.019   7.676 -0.1153 -1.3946 -0.2947
 6603TIP3   OH241443   1.346   2.755   6.525  0.4612 -0.1179 -0.6795
 6603TIP3    H141444   1.257   2.764   6.491 -0.0418 -2.4431 -0.1627
 6603TIP3    H241445   1.336   2.708   6.608  2.1425 -0.1772 -0.4743
 6604TIP3   OH241446   0.355   3.480   1.705 -0.1706  0.0817  0.7562
 6604TIP3    H141447   0.354   3.567   1.663  0.8528 -1.0040 -1.7582
 6604TIP3    H241448   0.442   3.475   1.746 -0.4750  0.4716  1.4585
 6605TIP3   OH241449   4.272   1.634   1.493 -0.4900  0.3839  0.1045
 6605TIP3    H141450   4.332   1.702   1.464 -1.2537  0.2162 -2.0110
 6605TIP3    H241451   4.307   1.553   1.455 -0.7330 -0.0869  0.8574
 6606TIP3   OH241452   4.299   6.109   8.183  0.0187  0.1439 -0.3437
 6606TIP3    H141453   4.211   6.122   8.220 -0.1761 -2.2592  0.2474
 6606TIP3    H241454   4.287   6.042   8.116  0.9758  1.9361 -2.4269
 6607TIP3   OH241455   6.386   0.744   1.701  0.0553 -0.3652  0.0630
 6607TIP3    H141456   6.470   0.722   1.741 -0.0270 -0.6838  0.0658
 6607TIP3    H241457   6.408   0.781   1.616  0.2677  0.9634  0.6701
 6608TIP3   OH241458   5.670   2.013   0.546 -0.2705 -0.4395  0.0676
 6608TIP3    H141459   5.638   2.039   0.632 -0.5941 -0.8602  0.0774
 6608TIP3    H241460   5.661   1.917   0.545  0.1644 -0.4776 -0.2590
 6609TIP3   OH241461   6.474   3.891   0.840  0.4920 -0.2811 -0.4182
 6609TIP3    H141462   6.543   3.952   0.812 -0.5134  0.7907 -0.6644
 6609TIP3    H241463   6.451   3.920   0.928 -2.1829  1.8388 -1.6589
 6610TIP3   OH241464   3.326   5.014   8.232  0.1140  0.3249 -0.0437
 6610TIP3    H141465   3.324   5.110   8.239 -0.1859  0.2289  1.6020
 6610TIP3    H241466   3.271   4.984   8.304  0.5064 -1.1039 -0.3107
 6611TIP3   OH241467   6.450   3.940   8.306 -0.3850  0.4924  0.2737
 6611TIP3    H141468   6.483   4.029   8.319  0.1532  0.0890  1.8689
 6611TIP3    H241469   6.363   3.952   8.268 -0.5577  1.7234  1.0123
 6612TIP3   OH241470   2.816   1.208   7.134  0.0562 -0.0215  0.1808
 6612TIP3    H141471   2.886   1.168   7.082 -0.8156 -1.7761  0.2536
 6612TIP3    H241472   2.847   1.202   7.224  0.0739 -0.2505  0.1614
 6613TIP3   OH241473   6.205   4.330   5.838 -0.1164  0.3778  0.0790
 6613TIP3    H141474   6.158   4.271   5.779 -0.5981  0.5052  0.3326
 6613TIP3    H241475   6.198   4.289   5.924  0.2684  0.3785  0.1125
 6614TIP3   OH241476   6.777   6.234   6.858  0.0511  0.0113  0.0188
 6614TIP3    H141477   6.761   6.165   6.794 -0.7566 -1.1888  1.4635
 6614TIP3    H241478   6.841   6.197   6.919  3.5031  2.3234 -1.8246
 6615TIP3   OH241479   0.498   4.007   0.380 -0.5142  0.7095  0.0808
 6615TIP3    H141480   0.554   3.933   0.356 -2.5184 -0.6040 -0.7629
 6615TIP3    H241481   0.538   4.082   0.337  0.6061 -0.1788 -0.4901
 6616TIP3   OH241482   1.166   1.516   0.572  0.5603  0.0153  0.0950
 6616TIP3    H141483   1.128   1.586   0.519  0.4400 -0.6692 -0.7324
 6616TIP3    H241484   1.255   1.545   0.590  1.5793 -0.9683 -2.8576
 6617TIP3   OH241485   3.863   3.066   6.844 -0.3463  0.5303 -0.4169
 6617TIP3    H141486   3.889   2.977   6.823 -1.4489  0.4951 -1.7672
 6617TIP3    H241487   3.944   3.110   6.869  0.2503 -0.7601  0.0184
 6618TIP3   OH241488   3.224   1.722   0.726 -0.0275 -0.3059 -0.1755
 6618TIP3    H141489   3.129   1.733   0.730  0.0900  0.6769  0.1539
 6618TIP3    H241490   3.258   1.779   0.795  0.9319  1.2521 -1.8739
 6619TIP3   OH241491   2.595   2.164   1.616 -0.3196 -0.0065  0.0193
 6619TIP3    H141492   2.581   2.241   1.670 -2.4432  0.7726 -1.5205
 6619TIP3    H241493   2.530   2.101   1.647 -0.5020 -0.1251 -0.5882
 6620TIP3   OH241494   0.163   4.022   8.616 -0.1665  0.3769  0.0846
 6620TIP3    H141495   0.199   4.075   8.545 -0.1861  0.1532 -0.0947
 6620TIP3    H241496   0.070   4.043   8.618 -0.4077 -0.5352 -0.7810
 6621TIP3   OH241497   0.777   0.032   1.079 -0.6921 -0.7141  0.8262
 6621TIP3    H141498   0.696  -0.018   1.070 -0.2621 -1.0836 -1.8924
 6621TIP3    H241499   0.795   0.064   0.991  1.3033  0.6979  1.6686
 6622TIP3   OH241500   3.649   1.384   0.317  0.0921  0.1978 -0.2114
 6622TIP3    H141501   3.728   1.421   0.278 -0.5626  0.5647 -1.2344
 6622TIP3    H241502   3.617   1.452   0.376 -0.2894  0.6799 -0.9614
 6623TIP3   OH241503   6.287   0.963   7.845  0.3929 -0.2522 -0.1719
 6623TIP3    H141504   6.213   0.922   7.800 -1.4992  1.8279  0.8297
 6623TIP3    H241505   6.345   0.990   7.774 -1.3038  0.7326 -1.2651
 6624TIP3   OH241506   4.172   3.125   8.004 -0.0893  0.7394 -1.2250
 6624TIP3    H141507   4.134   3.213   8.000 -1.8519  0.2289  1.3742
 6624TIP3    H241508   4.161   3.098   8.096  2.4402 -1.3495 -1.4088
 6625TIP3   OH241509   4.992   2.613   7.590 -0.6636  0.9045 -0.6945
 6625TIP3    H141510   4.955   2.613   7.679 -0.2073  0.6455 -0.4949
 6625TIP3    H241511   4.918   2.596   7.533 -0.8156  0.1224 -0.2844
 6626TIP3   OH241512   3.037   3.458   0.004 -0.5457 -0.0993  0.1436
 6626TIP3    H141513   2.986   3.418  -0.066 -0.8124 -0.9367  0.7897
 6626TIP3    H241514   3.048   3.388   0.069  0.7898  0.2790  0.3636
 6627TIP3   OH241515   1.896   5.858   8.037  0.2872  0.4283  0.2595
 6627TIP3    H141516   1.987   5.862   8.009 -0.2198 -0.5639 -1.6354
 6627TIP3    H241517   1.851   5.925   7.985 -0.6121 -1.2237 -1.1666
 6628TIP3   OH241518   3.492   2.476   0.439  0.9777 -0.2310  0.0597
 6628TIP3    H141519   3.579   2.449   0.467  1.2465 -0.3809 -0.8749
 6628TIP3    H241520   3.500   2.487   0.344 -0.0703 -0.4467 -0.0645
 6629TIP3   OH241521   0.945   1.895   6.797 -0.2992 -0.2099 -0.0617
 6629TIP3    H141522   0.946   1.912   6.703  1.3535 -0.0959 -0.0552
 6629TIP3    H241523   0.864   1.934   6.828 -2.2991 -2.5867 -1.8351
 6630TIP3   OH241524   2.621   3.360   7.319  0.0397  0.0161  0.5459
 6630TIP3    H141525   2.609   3.286   7.379 -0.1702 -0.1318  0.3257
 6630TIP3    H241526   2.615   3.437   7.375  1.3404 -0.1599  0.9518
 6631TIP3   OH241527   2.833   2.024   1.555  0.3663  0.2095  0.6596
 6631TIP3    H141528   2.856   1.979   1.637  0.2009  0.3658  0.7927
 6631TIP3    H241529   2.756   2.076   1.577  1.2897  1.5431  0.8419
 6632TIP3   OH241530   1.932   1.949   7.564  0.4387  0.1018  0.6825
 6632TIP3    H141531   1.947   1.990   7.650 -0.7589  0.9003  0.5293
 6632TIP3    H241532   1.895   1.863   7.584 -0.0042  0.3579  0.9576
 6633TIP3   OH241533   3.038   2.418   0.831  0.1176 -0.0897  0.0517
 6633TIP3    H141534   3.104   2.355   0.858  1.8339  0.6233 -2.2067
 6633TIP3    H241535   3.044   2.420   0.735 -3.3331 -0.1251 -0.3113
 6634TIP3   OH241536   4.594   5.448   1.855  0.0694 -0.4842  0.0550
 6634TIP3    H141537   4.499   5.454   1.842  0.0544  2.2460  0.7875
 6634TIP3    H241538   4.631   5.497   1.782  0.9423 -1.4560 -0.1695
 6635TIP3   OH241539   2.280   1.402   0.095 -0.0178 -0.0029  0.0988
 6635TIP3    H141540   2.233   1.486   0.091  0.6882  0.3728 -0.5135
 6635TIP3    H241541   2.367   1.421   0.060  0.4378 -0.8046  0.7646
 6636TIP3   OH241542   3.931   1.155   1.578 -0.0332 -0.4175  0.3679
 6636TIP3    H141543   4.020   1.121   1.586  0.0699 -0.3993 -0.6367
 6636TIP3    H241544   3.943   1.247   1.552 -0.3428 -0.5676 -0.3307
 6637TIP3   OH241545   2.864   4.926   7.246  0.6710 -0.0212  0.1553
 6637TIP3    H141546   2.930   4.983   7.205  0.4506  0.1084 -0.0262
 6637TIP3    H241547   2.810   4.897   7.173  1.2811 -1.1423  0.1335
 6638TIP3   OH241548   3.512   2.303   7.407 -0.0606 -0.0391 -0.0643
 6638TIP3    H141549   3.473   2.274   7.325 -0.7257  1.3115 -0.2598
 6638TIP3    H241550   3.552   2.388   7.386 -1.6269  1.1130  1.3318
 6639TIP3   OH241551   3.539   1.158   0.961  0.0928 -0.3101  0.2113
 6639TIP3    H141552   3.497   1.142   0.877  0.4525  0.4449 -0.1218
 6639TIP3    H241553   3.467   1.166   1.024 -0.2637  0.6589 -0.2976
 6640TIP3   OH241554   4.757   1.855   7.444  0.2393  0.2469 -0.2778
 6640TIP3    H141555   4.834   1.912   7.449  1.1791 -0.9946 -0.1768
 6640TIP3    H241556   4.780   1.789   7.379 -0.3938 -0.6490  0.3926
 6641TIP3   OH241557   4.613   3.391   2.285 -0.3770  0.1310  0.2317
 6641TIP3    H141558   4.599   3.389   2.190 -2.0432 -1.0262  0.4520
 6641TIP3    H241559   4.707   3.376   2.296  0.0446  1.4564 -1.2506
 6642TIP3   OH241560   0.455   3.516   0.498  0.0338 -0.1156  0.0672
 6642TIP3    H141561   0.435   3.432   0.539 -1.0374 -1.0263 -2.1744
 6642TIP3    H241562   0.371   3.548   0.466  0.6215  1.2384 -0.2108
 6643TIP3   OH241563   2.186   4.854   0.886 -0.1601  0.2773  0.1449
 6643TIP3    H141564   2.270   4.827   0.925  0.2223 -2.6475 -2.3806
 6643TIP3    H241565   2.129   4.778   0.898 -0.9673  0.4652 -2.1823
 6644TIP3   OH241566   5.457   0.634   6.204 -0.4085  0.0312 -0.4466
 6644TIP3    H141567   5.422   0.714   6.242  0.2432  0.2862 -0.3686
 6644TIP3    H241568   5.380   0.582   6.181 -0.8210  0.0862  0.7575
 6645TIP3   OH241569   3.399   6.761   0.349 -0.1701 -0.0929 -0.0526
 6645TIP3    H141570   3.428   6.846   0.384 -3.9531  0.5238  2.1696
 6645TIP3    H241571   3.345   6.784   0.274  1.4307 -0.8794 -1.5043
 6646TIP3   OH241572   0.212   6.529   1.010  0.1562 -0.3938 -0.1901
 6646TIP3    H141573   0.272   6.591   0.969  1.0559 -0.7305  0.5916
 6646TIP3    H241574   0.148   6.584   1.056  0.6906 -0.0440  0.1378
 6647TIP3   OH241575   5.872   0.816   2.126 -0.1401  0.1292  0.2317
 6647TIP3    H141576   5.789   0.770   2.140 -0.2081  0.3731  0.6600
 6647TIP3    H241577   5.893   0.802   2.034 -0.2336 -0.6388  0.3227
 6648TIP3   OH241578   5.899   3.200   8.246  0.6822 -0.3057 -0.0707
 6648TIP3    H141579   5.864   3.286   8.226 -2.1938 -1.2030  0.6490
 6648TIP3    H241580   5.935   3.209   8.335  1.6447  0.4403 -0.5174
 6649TIP3   OH241581   2.721   6.639   0.348 -0.1702  0.0926  0.4571
 6649TIP3    H141582   2.810   6.606   0.346 -0.6516 -1.2970 -1.6000
 6649TIP3    H241583   2.717   6.702   0.276 -1.2550 -1.2039 -0.6840
 6650TIP3   OH241584   5.262   0.131   7.020  0.1417 -0.4930  0.0660
 6650TIP3    H141585   5.254   0.092   6.933 -0.0451 -0.0470 -0.1176
 6650TIP3    H241586   5.349   0.171   7.020  0.0713 -0.3427  0.0270
 6651TIP3   OH241587   3.660   2.797   8.049 -0.1721  0.0199  0.0522
 6651TIP3    H141588   3.661   2.790   7.954 -1.2239  1.4218 -0.0884
 6651TIP3    H241589   3.585   2.745   8.076  0.5874 -1.0341  0.2107
 6652TIP3   OH241590   5.669   5.909   0.750  0.4382  0.1863 -0.4084
 6652TIP3    H141591   5.669   5.947   0.838 -0.3214 -1.6947  0.4724
 6652TIP3    H241592   5.658   5.984   0.692 -0.3515  1.3704  1.1708
 6653TIP3   OH241593   5.101   3.351   8.563 -0.1013 -0.0497 -0.0534
 6653TIP3    H141594   5.151   3.377   8.486 -1.3033 -0.3619 -0.9749
 6653TIP3    H241595   5.070   3.263   8.543  0.9430 -0.8039  1.5197
 6654TIP3   OH241596   0.276   5.613   0.307 -0.0677  0.6336  0.2086
 6654TIP3    H141597   0.328   5.678   0.354  0.9513 -0.6288  0.8794
 6654TIP3    H241598   0.340   5.546   0.280 -0.4891  1.4262 -3.3282
 6655TIP3   OH241599   4.544   5.034   0.713 -0.2292 -0.1419 -0.6659
 6655TIP3    H141600   4.612   5.092   0.748 -1.1937  0.6610 -0.0710
 6655TIP3    H241601   4.580   5.003   0.629  1.8047 -1.5067  0.6233
 6656TIP3   OH241602   2.602   3.175   7.557 -0.0240 -0.1872 -0.4486
 6656TIP3    H141603   2.517   3.131   7.551  0.3462 -1.2714  1.5084
 6656TIP3    H241604   2.584   3.258   7.602 -0.1432 -0.0786 -0.6940
 6657TIP3   OH241605   2.852   5.373   0.125  0.2482  0.3430 -0.9044
 6657TIP3    H141606   2.807   5.423   0.056 -0.3568  1.1422  0.0365
 6657TIP3    H241607   2.783   5.355   0.189  1.0102  0.4423 -0.0539
 6658TIP3   OH241608   1.840   6.714   0.513 -0.1605 -0.2575  0.3214
 6658TIP3    H141609   1.754   6.729   0.475 -1.3615 -1.2679  2.4576
 6658TIP3    H241610   1.860   6.622   0.495  0.6390  0.0560 -0.4467
 6659TIP3   OH241611   3.727   0.965   0.735 -0.0257 -0.2518 -0.2411
 6659TIP3    H141612   3.777   1.032   0.688  0.0681 -0.2213 -0.0971
 6659TIP3    H241613   3.753   0.975   0.826 -2.2681  1.5520  0.2907
 6660TIP3   OH241614   0.768   3.268   7.781 -0.2383 -0.5663  0.0968
 6660TIP3    H141615   0.775   3.275   7.876 -0.7113 -1.2468  0.1888
 6660TIP3    H241616   0.803   3.351   7.748 -1.0663  0.1311  0.9070
 6661TIP3   OH241617   5.989   2.431   7.363 -0.3705 -0.2854  0.1491
 6661TIP3    H141618   5.963   2.344   7.394  1.4950 -0.8597  0.2445
 6661TIP3    H241619   5.913   2.486   7.380 -1.6264 -1.8915  0.0517
 6662TIP3   OH241620   4.759   6.147   0.033  0.3229 -0.2598 -0.4305
 6662TIP3    H141621   4.767   6.223   0.091 -2.1262 -0.2566 -0.0204
 6662TIP3    H241622   4.725   6.183  -0.048 -0.4125 -0.8507 -0.3871
 6663TIP3   OH241623   0.994   1.932   8.408 -0.1422 -0.6564  0.0866
 6663TIP3    H141624   1.062   1.926   8.341  0.6595 -2.6981  0.9965
 6663TIP3    H241625   1.038   1.905   8.489 -0.9030  2.3147  1.6443
 6664TIP3   OH241626   4.389   0.504   6.330  0.2858 -0.6103  0.4746
 6664TIP3    H141627   4.468   0.558   6.332 -0.6949  0.8559  0.9146
 6664TIP3    H241628   4.421   0.415   6.314  1.8723  0.2522 -1.5589
 6665TIP3   OH241629   6.327   1.943   0.192  0.2540  0.2766  0.4572
 6665TIP3    H141630   6.333   2.018   0.251 -2.0837 -0.8011  2.2373
 6665TIP3    H241631   6.300   1.870   0.248 -1.3332 -1.0201 -1.8125
 6666TIP3   OH241632   6.672   2.918   6.011 -0.2536  0.2426  0.0324
 6666TIP3    H141633   6.579   2.898   6.023 -0.1341  0.3526  1.2077
 6666TIP3    H241634   6.689   2.992   6.069  0.3204  0.9649 -1.0207
 6667TIP3   OH241635   6.656   1.521   1.012 -0.3201  0.4014  0.2787
 6667TIP3    H141636   6.561   1.508   1.018 -0.2383 -0.8039 -0.6238
 6667TIP3    H241637   6.672   1.542   0.920  0.1584  2.0318  0.7001
 6668TIP3   OH241638   3.038   5.343   7.585  0.6061 -0.1041 -0.4446
 6668TIP3    H141639   3.057   5.369   7.676  0.5496 -1.2510 -0.0940
 6668TIP3    H241640   2.974   5.273   7.593 -0.7010  0.9082 -1.4524
 6669TIP3   OH241641   2.674   3.067   7.853  0.2745 -0.2186 -0.5358
 6669TIP3    H141642   2.652   3.025   7.770 -1.3614 -0.8376  0.1634
 6669TIP3    H241643   2.769   3.082   7.849  0.3843 -1.1684 -2.0714
 6670TIP3   OH241644   5.429   5.028   7.890  0.4517  0.5325  0.8010
 6670TIP3    H141645   5.351   5.009   7.941 -0.4052 -0.2687 -0.7443
 6670TIP3    H241646   5.465   4.942   7.867  0.0892  0.8185 -0.9746
 6671TIP3   OH241647   3.274   0.656   0.818  0.7435 -0.0786 -0.1667
 6671TIP3    H141648   3.265   0.726   0.882 -3.1407  0.6766 -1.2990
 6671TIP3    H241649   3.305   0.581   0.868 -0.6699  0.8932  2.3143
 6672TIP3   OH241650   4.113   0.838   7.014  0.3608 -0.5685 -0.2471
 6672TIP3    H141651   4.043   0.775   7.034 -0.5365  0.5926  0.4078
 6672TIP3    H241652   4.155   0.854   7.099  1.4321 -1.2339 -0.6316
 6673TIP3   OH241653   4.967   2.578   6.855  0.4079 -0.3607 -0.2026
 6673TIP3    H141654   4.925   2.502   6.814  0.9216 -0.6927 -0.1268
 6673TIP3    H241655   4.899   2.645   6.857 -0.0708 -0.8355 -0.2269
 6674TIP3   OH241656   1.074   6.452   1.837 -0.2245 -0.2225 -0.0342
 6674TIP3    H141657   1.095   6.362   1.811  1.1867 -0.2517  1.0596
 6674TIP3    H241658   0.988   6.446   1.877 -0.9644 -0.7409 -1.6262
 6675TIP3   OH241659   2.403   3.397   1.788  0.3835  0.3935 -0.4634
 6675TIP3    H141660   2.371   3.348   1.865 -0.6987 -0.6368 -1.5171
 6675TIP3    H241661   2.368   3.485   1.800 -0.0197  0.1690  0.0943
 6676TIP3   OH241662   1.447   0.290   1.571  0.0805  0.1523 -0.1523
 6676TIP3    H141663   1.375   0.245   1.527  0.1196  1.0649 -1.2191
 6676TIP3    H241664   1.419   0.300   1.662  0.0755 -1.9737  0.1162
 6677TIP3   OH241665   5.435   1.077   7.868 -0.2105 -0.3754 -0.1929
 6677TIP3    H141666   5.526   1.102   7.853  0.4287 -3.4205 -2.3737
 6677TIP3    H241667   5.403   1.052   7.781 -2.4477 -1.4392  0.8641
 6678TIP3   OH241668   4.241   2.619   7.948 -0.6993  0.1138  0.0448
 6678TIP3    H141669   4.283   2.659   8.024  1.1851  1.6331 -1.6699
 6678TIP3    H241670   4.216   2.693   7.893 -1.2896 -0.9724 -1.1918
 6679TIP3   OH241671   2.355   6.643   6.271  0.1951  0.1409  0.3497
 6679TIP3    H141672   2.330   6.557   6.304  0.6107 -0.9803 -2.0681
 6679TIP3    H241673   2.451   6.645   6.278  0.3632 -0.4496 -1.4510
 6680TIP3   OH241674   4.667   4.789   1.750  0.0113  0.0203  0.1124
 6680TIP3    H141675   4.638   4.856   1.812  0.2939 -0.3136  0.6064
 6680TIP3    H241676   4.599   4.790   1.682  0.1392  0.9789 -0.0209
 6681TIP3   OH241677   2.994   1.560   7.145  0.1526  0.3770  0.3915
 6681TIP3    H141678   3.049   1.491   7.109  1.1560  0.5915  1.4237
 6681TIP3    H241679   3.048   1.639   7.139 -1.3376  1.3162 -1.6741
 6682TIP3   OH241680   0.622   4.617   6.412  0.2753 -0.2569 -0.0774
 6682TIP3    H141681   0.570   4.555   6.361 -0.3222  0.6127 -0.5402
 6682TIP3    H241682   0.678   4.660   6.348  0.8728 -0.4844  0.2802
 6683TIP3   OH241683   6.804   5.438   7.403  0.6901  0.1310 -0.4690
 6683TIP3    H141684   6.876   5.375   7.408  1.3156  0.8726  0.1070
 6683TIP3    H241685   6.842   5.513   7.358  0.1320  0.3438 -0.5903
 6684TIP3   OH241686   4.029   3.732   1.448  1.1149 -0.1412  0.0614
 6684TIP3    H141687   3.951   3.777   1.416  1.7867  1.2934  0.3547
 6684TIP3    H241688   4.011   3.639   1.432 -1.0309  0.0470  0.9766
 6685TIP3   OH241689   4.541   5.015   1.305  0.1725 -0.2768 -0.2710
 6685TIP3    H141690   4.608   4.951   1.283  2.6645  1.8671  0.6077
 6685TIP3    H241691   4.563   5.093   1.254  0.0849  1.4089  2.0839
 6686TIP3   OH241692   4.916   2.303   7.672 -0.2582  0.3152 -0.5287
 6686TIP3    H141693   4.917   2.381   7.727  0.7394  0.1384 -0.2662
 6686TIP3    H241694   4.920   2.337   7.582  1.1620  0.5880 -0.4005
 6687TIP3   OH241695   4.576   2.245   7.860 -0.3800 -0.4286 -0.1613
 6687TIP3    H141696   4.592   2.230   7.767 -2.2383 -2.0204 -0.3012
 6687TIP3    H241697   4.502   2.306   7.862  0.6018  0.7778  0.3180
 6688TIP3   OH241698   4.351   3.557   1.364 -0.3307  0.1098 -0.1060
 6688TIP3    H141699   4.338   3.463   1.372  1.8875 -0.3134 -0.8923
 6688TIP3    H241700   4.313   3.579   1.279  0.0416 -0.2641 -0.3711
 6689TIP3   OH241701   0.386   4.641   1.193  0.9428  0.1960 -0.3513
 6689TIP3    H141702   0.301   4.656   1.235  1.7104  1.1790  0.9414
 6689TIP3    H241703   0.365   4.606   1.107 -0.7270 -1.8199  0.7927
 6690TIP3   OH241704   6.584   4.423   0.520 -0.4524  0.4083  0.2511
 6690TIP3    H141705   6.650   4.381   0.465 -0.7721  0.4511 -0.1699
 6690TIP3    H241706   6.566   4.359   0.589 -2.0125 -0.7968 -1.2097
 6691TIP3   OH241707   3.781   2.763   1.799 -0.4272 -0.0849  0.2273
 6691TIP3    H141708   3.741   2.797   1.879 -0.0109 -0.4996  0.6195
 6691TIP3    H241709   3.719   2.697   1.767 -1.3836  1.2218 -0.7020
 6692TIP3   OH241710   1.043   1.856   1.132 -0.3638  0.1435  0.4748
 6692TIP3    H141711   1.033   1.855   1.036  0.2250  0.1449  0.4118
 6692TIP3    H241712   0.963   1.816   1.164 -0.9976  0.9878  0.0161
 6693TIP3   OH241713   0.712   4.468   7.711 -0.0326  0.1989  0.5008
 6693TIP3    H141714   0.719   4.388   7.763 -0.8472  0.4213  0.9662
 6693TIP3    H241715   0.619   4.487   7.708  0.1115  0.8676 -0.0152
 6694TIP3   OH241716   0.557   5.904   2.358  0.0045  0.6045  0.0040
 6694TIP3    H141717   0.614   5.958   2.413 -0.4928  0.3140  0.8330
 6694TIP3    H241718   0.535   5.829   2.414  0.7681 -0.5178 -1.1555
 6695TIP3   OH241719   1.119   6.819   7.506 -0.3374 -0.5327 -0.4702
 6695TIP3    H141720   1.157   6.907   7.510 -3.1165  0.7275  1.4101
 6695TIP3    H241721   1.068   6.819   7.425  1.6170 -1.4234 -1.7959
 6696TIP3   OH241722   5.556   6.415   6.929  0.0857 -0.2093 -0.0520
 6696TIP3    H141723   5.608   6.400   7.008 -0.2559 -1.6935 -0.0656
 6696TIP3    H241724   5.472   6.449   6.961  0.2458 -0.0217  0.1626
 6697TIP3   OH241725   4.478   6.747   0.674 -0.1084 -0.5383 -0.0948
 6697TIP3    H141726   4.486   6.809   0.602 -0.1268 -1.2222 -0.6898
 6697TIP3    H241727   4.384   6.740   0.691 -0.0415  0.7165  0.9737
 6698TIP3   OH241728   6.253   1.442   6.178  0.1986  0.5458 -0.5893
 6698TIP3    H141729   6.342   1.441   6.214  0.5132  0.7620 -1.3375
 6698TIP3    H241730   6.229   1.534   6.176  0.1232  0.5212 -0.7942
 6699TIP3   OH241731   1.986   3.130   0.677 -0.6703  0.1157 -0.0251
 6699TIP3    H141732   2.073   3.113   0.715 -0.8078 -1.0419 -0.2018
 6699TIP3    H241733   1.927   3.133   0.753 -1.2746 -4.1553 -0.0964
 6700TIP3   OH241734   6.597   6.538   8.443 -0.4341 -0.2248 -0.1850
 6700TIP3    H141735   6.592   6.479   8.518  2.3840  0.8997  1.0048
 6700TIP3    H241736   6.585   6.625   8.480  0.4774  0.3109 -1.1116
 6701TIP3   OH241737   5.650   5.840   1.073 -0.3282  0.5389 -0.3805
 6701TIP3    H141738   5.728   5.859   1.021 -0.5033  0.3943 -0.6953
 6701TIP3    H241739   5.634   5.921   1.122 -0.2832  0.7484 -0.7085
 6702TIP3   OH241740   2.358   3.004   7.100  0.3610  0.8683 -0.1738
 6702TIP3    H141741   2.316   3.077   7.145  1.0010 -0.0085  1.9541
 6702TIP3    H241742   2.437   2.986   7.150 -2.3278 -4.7669  3.0377
 6703TIP3   OH241743   5.224   1.671   7.481 -0.2541  0.0328  0.3499
 6703TIP3    H141744   5.315   1.692   7.463 -0.4020  0.7322  0.4217
 6703TIP3    H241745   5.194   1.623   7.404  0.3549 -0.7770  0.5974
 6704TIP3   OH241746   2.853   1.225   6.783 -0.2629 -1.0190 -1.0214
 6704TIP3    H141747   2.896   1.145   6.812 -1.2112 -1.1300  0.1700
 6704TIP3    H241748   2.835   1.211   6.691  1.3509 -1.3580 -1.3167
 6705TIP3   OH241749   3.432   5.121   6.951 -0.0368 -0.4945  0.0218
 6705TIP3    H141750   3.489   5.051   6.917  2.1552 -0.0548  2.4728
 6705TIP3    H241751   3.485   5.164   7.018 -1.8088  2.7007 -0.4426
 6706TIP3   OH241752   3.547   6.120   0.613 -0.6040  0.0833  0.6037
 6706TIP3    H141753   3.493   6.046   0.640  1.1554 -1.5094 -0.0523
 6706TIP3    H241754   3.623   6.080   0.571  0.2982  2.2866  0.0246
 6707TIP3   OH241755   3.940   4.834   2.032  0.4128 -0.8060  0.8769
 6707TIP3    H141756   3.880   4.780   1.981 -0.8487  0.9149  0.4542
 6707TIP3    H241757   3.987   4.886   1.967 -1.8898  2.1077  1.3330
 6708TIP3   OH241758   1.873   5.079   7.305 -0.2313  0.0637  0.1051
 6708TIP3    H141759   1.922   5.161   7.317 -0.8260  0.5648 -0.7919
 6708TIP3    H241760   1.826   5.091   7.223 -2.3805 -0.1551  1.2338
 6709TIP3   OH241761   5.621   0.030   1.362 -0.0282 -0.3655 -0.1149
 6709TIP3    H141762   5.692  -0.018   1.406  2.0012 -0.0853 -2.7781
 6709TIP3    H241763   5.541  -0.015   1.388  1.3734 -2.3965  0.9382
 6710TIP3   OH241764   0.356   0.770   6.854  0.4990  0.0645  0.2109
 6710TIP3    H141765   0.421   0.770   6.784 -0.0084  0.1766 -0.2733
 6710TIP3    H241766   0.354   0.679   6.885 -0.4694 -0.3970 -1.0836
 6711TIP3   OH241767   5.055   2.833   8.424 -0.1013  0.0633 -0.2956
 6711TIP3    H141768   5.089   2.764   8.481  0.8245 -0.2169 -1.1600
 6711TIP3    H241769   5.082   2.808   8.336 -2.1317  0.1080 -0.9857
 6712TIP3   OH241770   4.775   3.831   0.574 -0.2887 -0.1633 -0.1870
 6712TIP3    H141771   4.754   3.887   0.648  0.6573  1.4098 -1.0616
 6712TIP3    H241772   4.727   3.869   0.500  0.2051 -0.6239 -0.7589
 6713TIP3   OH241773   6.441   1.451   1.482  0.3923 -0.0473  0.7388
 6713TIP3    H141774   6.478   1.382   1.426  2.4867 -0.5319  2.5721
 6713TIP3    H241775   6.402   1.403   1.555 -2.4475  0.5741 -0.2299
 6714TIP3   OH241776   0.370   5.329   0.853  0.8351 -0.1662 -0.2217
 6714TIP3    H141777   0.394   5.421   0.848 -0.4925  0.3399  1.7362
 6714TIP3    H241778   0.381   5.306   0.946 -2.1520 -0.9864  0.0387
 6715TIP3   OH241779   2.362   1.791   0.452  0.0654  0.4574  0.6861
 6715TIP3    H141780   2.323   1.859   0.396 -0.0133 -0.1838 -0.0679
 6715TIP3    H241781   2.366   1.830   0.539 -0.2054  1.3355  0.3145
 6716TIP3   OH241782   3.550   0.310   0.249  0.1785  0.2432  0.0397
 6716TIP3    H141783   3.585   0.244   0.190 -2.7318 -0.7843 -0.7072
 6716TIP3    H241784   3.543   0.389   0.195  0.3678  0.1715 -0.0914
 6717TIP3   OH241785   2.093   5.427   8.091  0.6124 -0.7408  0.3766
 6717TIP3    H141786   2.119   5.360   8.027  2.3586  1.4405 -1.4130
 6717TIP3    H241787   2.021   5.474   8.049  0.1251 -0.8145  1.1165
 6718TIP3   OH241788   4.465   5.145   8.251 -0.7341 -0.5291 -0.2427
 6718TIP3    H141789   4.457   5.229   8.206 -4.1619 -1.0400 -0.8131
 6718TIP3    H241790   4.528   5.096   8.198  0.3296  1.1547 -0.6430
 6719TIP3   OH241791   2.726   6.715   6.150  0.1241 -0.5252  0.2737
 6719TIP3    H141792   2.749   6.625   6.173 -0.1256 -0.3831  1.0997
 6719TIP3    H241793   2.691   6.753   6.230  1.3528  0.6849  0.2762
 6720TIP3   OH241794   1.747   1.757   0.336  0.0578  0.2970  0.0601
 6720TIP3    H141795   1.835   1.724   0.355  0.3920  0.7115 -0.7314
 6720TIP3    H241796   1.708   1.690   0.280 -0.1943  0.0375  0.5401
 6721TIP3   OH241797   2.126   0.555   0.506 -0.6550  0.2824  0.1819
 6721TIP3    H141798   2.116   0.555   0.411 -2.0012  1.5341  0.2927
 6721TIP3    H241799   2.182   0.630   0.525  0.1059 -0.3075  0.3697
 6722TIP3   OH241800   4.629   3.642   1.275  0.1342 -0.6045 -0.2059
 6722TIP3    H141801   4.673   3.579   1.331 -0.5263 -2.0935 -1.3174
 6722TIP3    H241802   4.543   3.653   1.315 -0.1186 -1.2000 -0.5808
 6723TIP3   OH241803   5.700   5.559   8.149  0.4474  0.5858 -0.8849
 6723TIP3    H141804   5.746   5.515   8.077  2.0957  1.5083 -0.4421
 6723TIP3    H241805   5.768   5.578   8.213 -0.7060  1.3008  0.1664
 6724TIP3   OH241806   6.796   6.293   8.426 -0.5654  0.1390 -0.8589
 6724TIP3    H141807   6.706   6.321   8.406 -0.0470  1.7502 -1.0871
 6724TIP3    H241808   6.798   6.200   8.404 -2.8575 -0.5897  1.4008
 6725TIP3   OH241809   4.759   5.458   0.098  0.1560  0.5013  0.5074
 6725TIP3    H141810   4.734   5.467   0.190  2.1087  0.9455  1.0349
 6725TIP3    H241811   4.686   5.411   0.058 -0.0521 -1.0930  2.5955
 6726TIP3   OH241812   4.261   6.282   0.220  0.0817  0.3387 -0.8328
 6726TIP3    H141813   4.332   6.219   0.208 -0.4417 -0.5118  0.3785
 6726TIP3    H241814   4.305   6.363   0.246  0.5978 -0.2662  0.2155
 6727TIP3   OH241815   3.213   0.509   0.140 -0.1578  0.0423 -0.2257
 6727TIP3    H141816   3.303   0.519   0.110 -0.1775  0.4165 -0.1706
 6727TIP3    H241817   3.210   0.557   0.222 -0.6798  0.9628 -0.7678
 6728TIP3   OH241818   0.672   0.092   0.492  0.2161 -0.1430 -0.2627
 6728TIP3    H141819   0.632   0.056   0.412 -1.3659  0.4424  0.2378
 6728TIP3    H241820   0.701   0.180   0.467  1.2794 -0.5771 -0.6325
 6729TIP3   OH241821   2.192   6.700   7.929 -0.2086  0.1331 -0.0841
 6729TIP3    H141822   2.206   6.660   8.015  0.3578  0.2633 -0.1161
 6729TIP3    H241823   2.213   6.631   7.867  1.4118  0.6470 -0.1549
 6730TIP3   OH241824   6.752   5.285   5.742  0.2804  0.4106 -0.0789
 6730TIP3    H141825   6.828   5.231   5.725 -0.8809 -1.1151 -0.6580
 6730TIP3    H241826   6.740   5.281   5.837  1.5213  1.5798  0.1657
 6731TIP3   OH241827   2.339   0.616   0.799  0.2595  0.1314 -0.6153
 6731TIP3    H141828   2.375   0.666   0.872 -1.5923  2.2632 -1.0531
 6731TIP3    H241829   2.363   0.667   0.721  1.1943 -1.4925 -1.4503
 6732TIP3   OH241830   1.723   0.974   7.800 -0.0501  0.0159 -0.3980
 6732TIP3    H141831   1.706   1.006   7.888 -0.0962  1.3594 -0.8789
 6732TIP3    H241832   1.743   0.881   7.812 -1.3432 -0.1354  0.8846
 6733TIP3   OH241833   3.256   1.598   8.120 -0.1232 -0.4003  0.2793
 6733TIP3    H141834   3.170   1.598   8.161 -0.7065  0.2079 -0.8807
 6733TIP3    H241835   3.309   1.658   8.173 -0.8552  0.3706  0.1530
 6734TIP3   OH241836   6.272   1.079   1.229 -0.1365 -0.2371 -0.0418
 6734TIP3    H141837   6.215   1.116   1.161 -0.3963 -0.5348  0.0129
 6734TIP3    H241838   6.327   1.016   1.182 -0.7033 -0.8580  0.1178
 6735TIP3   OH241839   1.408   1.346   1.428  0.0914 -0.1682 -0.1926
 6735TIP3    H141840   1.353   1.282   1.382  0.4678 -0.0798 -0.7829
 6735TIP3    H241841   1.426   1.305   1.513 -1.4153  0.0890  0.2786
 6736TIP3   OH241842   0.003   6.332   2.024 -0.1985 -0.2242  0.1898
 6736TIP3    H141843   0.020   6.355   2.116 -1.2311 -0.7895  0.5402
 6736TIP3    H241844  -0.070   6.389   1.999 -0.5863 -0.7856  0.0372
 6737TIP3   OH241845   6.356   1.580   2.329  0.3091  0.1032  0.4853
 6737TIP3    H141846   6.448   1.592   2.307 -0.0266  1.5883 -0.2333
 6737TIP3    H241847   6.329   1.503   2.279  1.1449 -0.3428  0.7039
 6738TIP3   OH241848   6.648   2.802   0.670  0.2578 -0.3577 -0.2376
 6738TIP3    H141849   6.651   2.725   0.728 -1.2426 -1.5934 -1.6846
 6738TIP3    H241850   6.663   2.766   0.582 -0.7848  0.9347 -0.9800
 6739TIP3   OH241851   6.407   5.247   0.151 -0.0704  0.0766  0.1901
 6739TIP3    H141852   6.492   5.204   0.160 -0.1923 -0.3393 -0.5340
 6739TIP3    H241853   6.407   5.282   0.062 -0.5225  0.3710  0.3031
 6740TIP3   OH241854   3.127   2.438   8.644  0.4642 -0.2879  0.0251
 6740TIP3    H141855   3.116   2.474   8.732 -0.9342  1.0763 -0.6542
 6740TIP3    H241856   3.146   2.345   8.658 -0.6959 -0.3066  1.7472
 6741TIP3   OH241857   0.085   1.657   8.383 -0.2197  0.0458 -0.1474
 6741TIP3    H141858   0.146   1.731   8.378  1.4152 -1.2640 -0.1331
 6741TIP3    H241859  -0.001   1.698   8.393  0.5066  1.9743 -1.3521
 6742TIP3   OH241860   3.744   6.217   0.292  0.2201 -0.2560 -0.4004
 6742TIP3    H141861   3.723   6.124   0.300  0.1004 -0.1664  0.3993
 6742TIP3    H241862   3.722   6.238   0.201 -1.0219 -0.7002 -0.2316
 6743TIP3   OH241863   0.899   0.648   8.132  0.1519  0.3233 -0.3736
 6743TIP3    H141864   0.945   0.710   8.076 -0.3161  0.6814 -0.3666
 6743TIP3    H241865   0.812   0.686   8.144  0.8531  1.3512  2.2757
 6744TIP3   OH241866   3.592   1.192   1.372 -0.2198  0.3598 -0.4748
 6744TIP3    H141867   3.534   1.147   1.312 -0.3456 -0.8610  0.5358
 6744TIP3    H241868   3.561   1.168   1.460  0.9532  0.7918  0.0847
 6745TIP3   OH241869   1.803   1.460   0.518 -0.4168  0.4585  0.5513
 6745TIP3    H141870   1.800   1.473   0.613 -1.7767  1.1393  0.4410
 6745TIP3    H241871   1.719   1.419   0.497 -0.1960  0.4690 -0.3815
 6746TIP3   OH241872   2.428   1.415   1.249  0.2105  0.2753 -0.8040
 6746TIP3    H141873   2.515   1.408   1.288  0.4388  2.4555 -0.7734
 6746TIP3    H241874   2.436   1.489   1.188 -1.0608 -0.8609 -2.4495
 6747TIP3   OH241875   6.820   2.207   7.623 -0.2571 -0.5904 -0.6274
 6747TIP3    H141876   6.844   2.237   7.535 -0.6098 -0.9032 -0.8345
 6747TIP3    H241877   6.739   2.157   7.610 -0.7018 -0.0436 -0.0238
 6748TIP3   OH241878   2.085   6.612   7.545 -0.1163 -0.1419  0.5523
 6748TIP3    H141879   1.997   6.593   7.579 -0.1169 -0.8223  0.1817
 6748TIP3    H241880   2.088   6.567   7.461  0.2167  0.7513  0.0674
 6749TIP3   OH241881   2.549   0.320   1.969  0.1714  0.2185 -0.1951
 6749TIP3    H141882   2.555   0.311   1.874  0.3251 -0.5080 -0.1234
 6749TIP3    H241883   2.546   0.230   2.001 -0.1725  0.4624  0.4711
 6750TIP3   OH241884   5.241   3.010   7.233  0.1938  0.0318 -0.1497
 6750TIP3    H141885   5.170   3.045   7.180  1.0618  1.4838 -0.4135
 6750TIP3    H241886   5.223   3.042   7.322 -0.3467 -0.9808  0.1195
 6751TIP3   OH241887   5.799   0.375   6.639 -0.0932 -0.0881 -0.3445
 6751TIP3    H141888   5.830   0.322   6.712  0.6759 -1.5437 -1.6608
 6751TIP3    H241889   5.877   0.393   6.587 -0.6938  0.4724 -1.0852
 6752TIP3   OH241890   0.960   6.090   1.611 -0.8125 -0.1911 -0.5612
 6752TIP3    H141891   0.875   6.079   1.653 -0.1394 -0.8190  0.7059
 6752TIP3    H241892   0.993   6.001   1.598 -0.5195  0.0296 -1.4426
 6753TIP3   OH241893   5.008   2.019   8.396 -0.2508  0.3025 -0.1934
 6753TIP3    H141894   5.044   1.960   8.463 -1.0064  0.6655  0.5451
 6753TIP3    H241895   5.085   2.050   8.348  0.1135 -2.0354 -1.2518
 6754TIP3   OH241896   2.484   4.964   1.040 -0.3460  0.3819  0.0231
 6754TIP3    H141897   2.438   4.886   1.070 -2.3249  0.9234 -1.3470
 6754TIP3    H241898   2.522   4.940   0.956  1.9365 -0.0369  1.1174
 6755TIP3   OH241899   2.776   2.730   7.904 -0.0369 -0.2684 -0.2817
 6755TIP3    H141900   2.757   2.770   7.819 -0.0332 -1.2669 -0.7577
 6755TIP3    H241901   2.802   2.640   7.884  0.0090 -0.5062  0.7739
 6756TIP3   OH241902   2.622   6.573   8.584 -0.1047  0.1652  0.2622
 6756TIP3    H141903   2.691   6.540   8.641  1.7845  2.6771 -0.3973
 6756TIP3    H241904   2.570   6.630   8.640 -2.0632 -2.0665  0.8742
 6757TIP3   OH241905   2.499   4.200   1.291 -0.0716  0.3999  0.3018
 6757TIP3    H141906   2.433   4.184   1.224  0.0755  2.5727 -0.4489
 6757TIP3    H241907   2.557   4.265   1.253  0.5567  1.0229  2.1746
 6758TIP3   OH241908   3.722   6.577   1.395 -0.5309  0.1914 -0.3461
 6758TIP3    H141909   3.772   6.658   1.391  1.7681 -0.5402  4.8448
 6758TIP3    H241910   3.772   6.516   1.340  1.2398  0.8574  0.4414
 6759TIP3   OH241911   1.799   4.194   8.056 -0.3253  0.0195  0.7453
 6759TIP3    H141912   1.803   4.146   7.973 -1.6325  1.3811 -0.1796
 6759TIP3    H241913   1.827   4.131   8.122  0.7865 -1.1037 -0.7264
 6760TIP3   OH241914   2.518   5.757   7.431 -0.9416 -0.6265  0.2246
 6760TIP3    H141915   2.543   5.832   7.485 -0.9581 -1.7420  1.8603
 6760TIP3    H241916   2.586   5.752   7.364  0.1167 -0.2795  1.2355
 6761TIP3   OH241917   2.463   3.358   1.065  0.0645 -0.0595 -0.0935
 6761TIP3    H141918   2.368   3.347   1.076  0.1418 -1.3656 -0.5666
 6761TIP3    H241919   2.498   3.349   1.154 -0.2184 -0.0320  0.0215
 6762TIP3   OH241920   4.865   6.499   7.085  0.5832  0.0672  0.3421
 6762TIP3    H141921   4.843   6.489   6.992  1.8503 -0.4016  0.0796
 6762TIP3    H241922   4.862   6.593   7.100  1.9421  0.2950 -0.6009
 6763TIP3   OH241923   1.329   2.112   1.063  0.3031 -0.1908  0.4218
 6763TIP3    H141924   1.366   2.065   1.138 -1.0840  1.6285  2.3592
 6763TIP3    H241925   1.390   2.184   1.047 -0.3808  0.5589  1.1098
 6764TIP3   OH241926   1.928   1.869   1.429 -0.0301  0.2485 -0.4134
 6764TIP3    H141927   1.854   1.872   1.369 -1.8015  1.6016  1.6877
 6764TIP3    H241928   1.952   1.961   1.443  0.6210 -0.0608  0.6096
 6765TIP3   OH241929   1.156   3.149   0.742 -0.3584  0.2478  0.3431
 6765TIP3    H141930   1.168   3.066   0.697 -1.5602 -0.1447  0.6965
 6765TIP3    H241931   1.238   3.164   0.788 -0.3313 -1.0305  0.7332
 6766TIP3   OH241932   2.986   2.121   8.561 -0.5210  0.0862 -0.0585
 6766TIP3    H141933   2.904   2.146   8.602 -2.0361 -1.3233 -2.0422
 6766TIP3    H241934   2.979   2.026   8.549  2.1166 -0.3439  1.1701
 6767TIP3   OH241935   1.146   4.912   0.221 -0.3608 -0.4777 -0.2441
 6767TIP3    H141936   1.137   4.985   0.282 -1.8910 -0.8344 -0.0036
 6767TIP3    H241937   1.156   4.953   0.135  1.2348  0.0176  0.1534
 6768TIP3   OH241938   3.872   3.488   8.623 -0.2189 -0.3313 -0.3879
 6768TIP3    H141939   3.886   3.467   8.716 -0.0616 -0.5799 -0.4694
 6768TIP3    H241940   3.957   3.475   8.582 -0.0446  0.7022 -0.3973
 6769TIP3   OH241941   5.003   5.759   1.457 -0.4361 -1.2148  0.8606
 6769TIP3    H141942   4.927   5.812   1.478 -1.7596 -2.0959 -1.2959
 6769TIP3    H241943   4.967   5.674   1.433  1.3624 -2.1160  1.2021
 6770TIP3   OH241944   0.596   6.851   0.255  0.2061  0.0442  0.0714
 6770TIP3    H141945   0.589   6.765   0.212 -0.1528  0.3092 -0.4175
 6770TIP3    H241946   0.649   6.903   0.194 -1.9992  1.0523 -1.0960
 6771TIP3   OH241947   5.549   1.058   6.466 -0.1226 -0.5017  0.0821
 6771TIP3    H141948   5.524   1.086   6.378  0.9307 -1.0936 -0.4142
 6771TIP3    H241949   5.533   1.135   6.521 -1.1677 -0.2540 -0.5323
 6772TIP3   OH241950   6.700   2.508   8.528  0.3820  0.0269  0.1123
 6772TIP3    H141951   6.775   2.473   8.480  0.8155 -0.4365  1.1108
 6772TIP3    H241952   6.633   2.522   8.461  1.7182  1.5374 -1.0157
 6773TIP3   OH241953   0.123   6.637   0.051  0.3534  0.2681  0.2766
 6773TIP3    H141954   0.081   6.601  -0.027  2.5746  0.3571 -1.0751
 6773TIP3    H241955   0.051   6.671   0.104 -1.4246 -1.8523 -0.6281
 6774TIP3   OH241956   0.958   6.021   7.816  0.3086  0.1224 -0.2429
 6774TIP3    H141957   0.969   6.011   7.910 -0.5210 -0.9385 -0.2266
 6774TIP3    H241958   0.863   6.025   7.804  0.4043  3.1931 -0.8047
 6775TIP3   OH241959   4.820   3.504   7.926  0.0966  0.0681 -0.0311
 6775TIP3    H141960   4.808   3.512   8.020  0.2798  0.7408 -0.0634
 6775TIP3    H241961   4.731   3.503   7.890  0.0383  0.2188  0.1127
 6776TIP3   OH241962   1.311   6.729   2.057  0.2391  0.2488  0.4068
 6776TIP3    H141963   1.401   6.759   2.051  0.0997  0.7303  0.6246
 6776TIP3    H241964   1.304   6.689   2.143 -0.1149  1.4980  0.9914
 6777TIP3   OH241965   1.673   1.587   0.096 -0.1906  0.7040 -0.5748
 6777TIP3    H141966   1.727   1.649   0.049 -1.2479  3.5871  1.6824
 6777TIP3    H241967   1.585   1.625   0.094 -0.9872 -0.9440  0.5369
 6778TIP3   OH241968   6.355   2.032   6.527 -0.1582 -0.5431  0.0745
 6778TIP3    H141969   6.374   1.992   6.442 -0.8581  0.6987 -0.6897
 6778TIP3    H241970   6.344   2.125   6.509 -0.6596 -0.2959  1.4743
 6779TIP3   OH241971   6.339   2.757   0.567  0.6675  0.0056  0.6090
 6779TIP3    H141972   6.339   2.680   0.511  1.4008 -0.5803  1.4024
 6779TIP3    H241973   6.249   2.791   0.561  0.5648 -0.4193 -0.3952
 6780TIP3   OH241974   6.487   3.249   0.353 -0.4064 -0.0967 -0.5456
 6780TIP3    H141975   6.575   3.268   0.387 -0.7193  1.3395 -0.4679
 6780TIP3    H241976   6.495   3.162   0.313  0.5357 -0.8760  1.2162
 6781TIP3   OH241977   1.418   6.606   7.193  0.1437 -0.4178 -0.1590
 6781TIP3    H141978   1.401   6.539   7.260  0.0354 -0.6654 -0.4317
 6781TIP3    H241979   1.346   6.597   7.131 -1.0945  1.4085  0.9140
 6782TIP3   OH241980   6.376   6.196   8.146 -0.2236 -0.6561 -0.0353
 6782TIP3    H141981   6.441   6.172   8.079  1.0283 -0.8705  1.1974
 6782TIP3    H241982   6.400   6.285   8.171  1.2601 -1.5876  2.2038
 6783TIP3   OH241983   0.334   2.582   0.072 -0.2942 -0.9181  0.4944
 6783TIP3    H141984   0.277   2.640   0.023  0.1571 -0.2889  0.6958
 6783TIP3    H241985   0.290   2.497   0.070 -0.8034 -0.6464 -0.0758
 6784TIP3   OH241986   1.122   4.121   7.385  0.4498 -0.2732 -0.1427
 6784TIP3    H141987   1.081   4.175   7.452  0.9948  0.1462 -0.1378
 6784TIP3    H241988   1.214   4.118   7.410  0.6619 -0.1107 -0.8715
 6785TIP3   OH241989   2.937   0.237   0.150 -0.0492 -0.1428  0.0736
 6785TIP3    H141990   2.898   0.167   0.097  1.2972 -0.3680 -0.6874
 6785TIP3    H241991   2.908   0.318   0.108  1.7216 -0.3161 -1.6588
 6786TIP3   OH241992   5.267   5.817   7.247  0.4375 -0.1089  0.2698
 6786TIP3    H141993   5.254   5.878   7.319 -0.0032 -0.0699  0.1619
 6786TIP3    H241994   5.334   5.756   7.279 -0.9401 -1.1081  1.3799
 6787TIP3   OH241995   2.555   6.097   7.625  0.0452 -0.4101  0.1880
 6787TIP3    H141996   2.532   6.059   7.541 -1.2841 -1.5687  1.0398
 6787TIP3    H241997   2.629   6.155   7.605  0.6301 -1.6500 -1.5375
 6788TIP3   OH241998   0.135   0.128   6.603 -0.6206  0.1326 -0.3815
 6788TIP3    H141999   0.182   0.147   6.523  1.0336 -1.4404  0.1424
 6788TIP3    H242000   0.184   0.172   6.672 -0.2899 -0.9158  0.0850
 6789TIP3   OH242001   4.662   4.991   8.127 -0.1525 -0.3234  0.2663
 6789TIP3    H142002   4.679   4.915   8.071 -1.2407 -0.1673 -0.3057
 6789TIP3    H242003   4.736   5.049   8.112  1.7326 -2.0518  2.1786
 6790TIP3   OH242004   5.074   0.432   7.474  0.1396  0.3984  0.3074
 6790TIP3    H142005   5.089   0.370   7.403 -0.2069  0.3196  0.2992
 6790TIP3    H242006   5.126   0.509   7.452 -2.2809  1.6098 -1.6030
 6791TIP3   OH242007   3.334   1.697   1.667  0.4934  0.0306 -0.2466
 6791TIP3    H142008   3.239   1.692   1.670  0.3891  1.3511 -0.8539
 6791TIP3    H242009   3.363   1.644   1.742 -0.7131 -0.2069  0.0678
 6792TIP3   OH242010   0.326   0.367   0.758 -0.1768 -0.5209 -0.4760
 6792TIP3    H142011   0.371   0.333   0.835  1.1511 -0.6064 -1.2708
 6792TIP3    H242012   0.329   0.462   0.768 -1.6223 -0.5357  0.4565
 6793TIP3   OH242013   2.358   3.846   1.126 -0.5258  0.0184  0.1194
 6793TIP3    H142014   2.389   3.786   1.193 -0.6815  1.2902  1.3907
 6793TIP3    H242015   2.416   3.830   1.051 -0.5927 -1.6959  0.3927
 6794TIP3   OH242016   3.480   6.606   1.238 -0.2734 -0.0538 -0.4243
 6794TIP3    H142017   3.425   6.669   1.284 -2.3659  0.3610 -3.1912
 6794TIP3    H242018   3.569   6.634   1.256 -1.0927  2.4525  0.1325
 6795TIP3   OH242019   2.097   1.462   7.584  0.3109  0.0213 -0.3902
 6795TIP3    H142020   2.130   1.431   7.500  3.3353  1.2810  0.2028
 6795TIP3    H242021   2.044   1.538   7.562  0.2359 -0.2612 -1.2252
 6796TIP3   OH242022   6.171   0.477   7.191  0.2985 -0.1156 -0.3461
 6796TIP3    H142023   6.200   0.390   7.163  1.2501 -0.2506  0.9729
 6796TIP3    H242024   6.126   0.462   7.275 -1.4403  0.4149 -1.1374
 6797TIP3   OH242025   6.138   3.994   6.290  0.2749 -0.5941  0.5466
 6797TIP3    H142026   6.060   4.031   6.249  0.0295 -1.3653  0.2917
 6797TIP3    H242027   6.209   4.054   6.266  0.1575 -1.0804 -1.1153
 6798TIP3   OH242028   6.825   3.188   6.912  0.0007 -0.0810  0.3561
 6798TIP3    H142029   6.794   3.263   6.861 -0.6840 -0.6827 -0.1471
 6798TIP3    H242030   6.855   3.125   6.846 -0.0496 -0.5057  0.7325
 6799TIP3   OH242031   0.314   6.405   7.295 -0.2008  0.5677 -0.4360
 6799TIP3    H142032   0.393   6.363   7.262  0.2927  1.5433 -0.5364
 6799TIP3    H242033   0.282   6.346   7.363 -0.7562 -1.0593 -2.0172
 6800TIP3   OH242034   6.591   6.159   7.950 -0.0795 -0.0050  0.2821
 6800TIP3    H142035   6.648   6.087   7.979 -0.1104 -0.2804 -0.3286
 6800TIP3    H242036   6.635   6.195   7.873  1.0471  2.0244  1.7493
 6801TIP3   OH242037   3.958   4.360   7.779  0.3306 -0.0805 -0.6554
 6801TIP3    H142038   4.020   4.325   7.843  0.7308 -1.1500 -1.5684
 6801TIP3    H242039   3.977   4.453   7.775  1.5592 -0.3042 -0.5404
 6802TIP3   OH242040   3.895   5.033   6.901  0.2202  0.7602 -0.2752
 6802TIP3    H142041   3.981   5.073   6.913 -0.2069  1.7253 -0.2971
 6802TIP3    H242042   3.896   5.000   6.811  1.1042 -0.6404  0.2117
 6803TIP3   OH242043   3.857   3.125   7.487  0.0054  0.2186 -0.0266
 6803TIP3    H142044   3.914   3.070   7.541 -0.3331 -1.2911 -1.1435
 6803TIP3    H242045   3.912   3.199   7.461  0.4263  0.5292  1.6257
 6804TIP3   OH242046   5.212   1.521   0.476  0.3419 -0.1050  0.5968
 6804TIP3    H142047   5.268   1.487   0.406  1.4282 -1.1993  1.9296
 6804TIP3    H242048   5.272   1.569   0.533 -0.5905  1.1076  0.5997
 6805TIP3   OH242049   2.558   6.625   7.224 -0.3214  0.2766  0.2109
 6805TIP3    H142050   2.592   6.544   7.187 -0.5179  0.5202 -0.5216
 6805TIP3    H242051   2.629   6.658   7.279  0.6629  0.8102 -1.3382
 6806TIP3   OH242052   6.757   3.304   0.426 -0.5567  0.3718 -0.2528
 6806TIP3    H142053   6.766   3.398   0.409 -1.7052  1.1731  2.8484
 6806TIP3    H242054   6.837   3.280   0.473  0.5590 -0.7140 -2.5636
 6807TIP3   OH242055   2.694   4.499   7.680 -0.0409  0.0116  0.2889
 6807TIP3    H142056   2.696   4.523   7.587  2.0289  1.1782  0.5650
 6807TIP3    H242057   2.721   4.407   7.681 -0.0505 -0.0049 -0.2817
 6808TIP3   OH242058   4.517   3.390   7.554  0.6698 -0.7937  0.0246
 6808TIP3    H142059   4.584   3.446   7.514  1.3499 -0.3566  1.6661
 6808TIP3    H242060   4.457   3.370   7.483  0.2733  2.2036 -0.6422
 6809TIP3   OH242061   4.229   1.609   1.103  0.2385  0.3747  0.1241
 6809TIP3    H142062   4.175   1.554   1.160  1.1947  0.8782  1.5783
 6809TIP3    H242063   4.182   1.609   1.019  0.4231 -2.9825 -0.1218
 6810TIP3   OH242064   4.010   3.175   0.556 -0.5282 -0.3564 -0.2360
 6810TIP3    H142065   4.011   3.122   0.636 -3.1965  1.3738  1.0828
 6810TIP3    H242066   4.078   3.241   0.571  0.2336 -1.1135 -0.2475
 6811TIP3   OH242067   2.550   0.678   8.374 -0.2200  0.1611  0.1898
 6811TIP3    H142068   2.536   0.765   8.338  5.4137  1.2385 -0.2808
 6811TIP3    H242069   2.515   0.618   8.308 -1.5685  2.0053 -0.8571
 6812TIP3   OH242070   0.075   1.952   0.696  0.1210 -0.0666  0.0228
 6812TIP3    H142071   0.139   1.882   0.684  0.9291  0.5024  0.8170
 6812TIP3    H242072   0.046   1.973   0.607  1.1203 -0.2772 -0.3725
 6813TIP3   OH242073   4.624   1.640   8.233  0.3626  0.1167 -0.3878
 6813TIP3    H142074   4.659   1.623   8.146 -1.0004 -1.6062 -0.6447
 6813TIP3    H242075   4.563   1.713   8.220  1.5791  1.1621 -0.4704
 6814TIP3   OH242076   5.062   5.431   8.507 -0.0750  0.4716  0.5928
 6814TIP3    H142077   5.124   5.460   8.441 -0.5852 -2.8267 -1.5696
 6814TIP3    H242078   5.038   5.511   8.554  3.7521  2.2746 -0.1412
 6815TIP3   OH242079   6.639   4.755   8.334  0.1335 -0.3322  0.2267
 6815TIP3    H142080   6.650   4.662   8.317  0.8633  0.0402 -1.6077
 6815TIP3    H242081   6.715   4.780   8.386 -0.5764 -0.9305  1.5843
 6816TIP3   OH242082   4.728   5.084   8.605  0.1303  0.0948  0.2715
 6816TIP3    H142083   4.788   5.134   8.550 -1.5275  1.5598 -0.3078
 6816TIP3    H242084   4.669   5.040   8.544 -0.2770 -0.1766  0.8400
 6817TIP3   OH242085   3.910   4.915   8.613 -0.0390  0.5912 -0.0400
 6817TIP3    H142086   3.859   4.850   8.660 -0.2744  0.8023 -0.0017
 6817TIP3    H242087   3.997   4.912   8.653 -0.5088  1.4875  1.1166
 6818TIP3   OH242088   1.971   1.415   2.731 -0.0962  0.3502  0.3505
 6818TIP3    H142089   1.875   1.410   2.735 -0.3428  2.3153 -1.6721
 6818TIP3    H242090   1.990   1.506   2.710  2.0132 -0.6984 -3.0204
 6819TIP3   OH242091   3.619   4.549   7.185  0.4169 -0.3166 -0.5702
 6819TIP3    H142092   3.530   4.581   7.195 -0.2501 -2.2009 -0.0188
 6819TIP3    H242093   3.622   4.511   7.097  0.6506 -0.2819 -0.5780
 6820TIP3   OH242094   3.110   2.194   1.600  0.4475 -0.5215 -0.0580
 6820TIP3    H142095   3.063   2.172   1.680  0.9850 -4.3376 -0.5691
 6820TIP3    H242096   3.042   2.193   1.532  0.2560  1.0898  0.0659
 6821TIP3   OH242097   2.153   3.382   6.706 -0.1556  0.7667 -0.4151
 6821TIP3    H142098   2.075   3.334   6.678  0.3736  1.3396 -3.2855
 6821TIP3    H242099   2.224   3.345   6.653  1.2063  1.4414  0.8492
 6822TIP3   OH242100   0.598   0.086   8.023  0.2456  0.0048  0.3773
 6822TIP3    H142101   0.585  -0.005   7.996  0.0279  0.0348  0.3779
 6822TIP3    H242102   0.526   0.133   7.983 -0.2919 -0.0084  1.2969
 6823TIP3   OH242103   6.374   4.322   8.065 -0.4167  0.1691 -0.4367
 6823TIP3    H142104   6.302   4.385   8.060  0.8760  1.6807 -0.5948
 6823TIP3    H242105   6.330   4.237   8.072 -2.2067  1.0826  0.1049
 6824TIP3   OH242106   4.825   5.728   2.189  0.2050 -0.1855  0.3508
 6824TIP3    H142107   4.897   5.773   2.146 -0.0573 -1.2113 -1.2643
 6824TIP3    H242108   4.866   5.677   2.259  0.8239  0.4930  0.4863
 6825TIP3   OH242109   1.252   5.493   6.701  0.2940 -0.1055  0.0605
 6825TIP3    H142110   1.322   5.430   6.680  0.1774 -1.2152  2.6513
 6825TIP3    H242111   1.171   5.443   6.690  0.1089  0.0780  0.5875
 6826TIP3   OH242112   0.729   2.757   0.532  0.0076 -0.4666 -0.2653
 6826TIP3    H142113   0.656   2.707   0.570 -1.0121  0.5877 -0.8071
 6826TIP3    H242114   0.688   2.814   0.467  1.3460  0.0152 -0.7062
 6827TIP3   OH242115   1.078   4.501   1.116  0.1996  0.5427 -0.1379
 6827TIP3    H142116   1.046   4.420   1.076 -0.0281  0.2399  0.6425
 6827TIP3    H242117   1.005   4.562   1.111  0.6173  0.9617 -1.4183
 6828TIP3   OH242118   0.513   6.064   6.408 -0.2752  0.2248  0.4662
 6828TIP3    H142119   0.597   6.028   6.382 -0.3604 -1.4500  2.2770
 6828TIP3    H242120   0.449   6.018   6.355 -0.0996  2.0301 -1.4588
 6829TIP3   OH242121   5.891   0.758   1.838 -0.0502  0.3218  0.0591
 6829TIP3    H142122   5.916   0.675   1.878 -1.6141  0.1853  0.8495
 6829TIP3    H242123   5.970   0.790   1.796  0.8558 -1.0429  0.6723
 6830TIP3   OH242124   5.538   0.400   8.242 -0.4493  0.0101  0.3115
 6830TIP3    H142125   5.562   0.332   8.179 -1.2674  0.2495 -0.2768
 6830TIP3    H242126   5.485   0.462   8.191 -0.9665  0.3051  1.1958
 6831TIP3   OH242127   6.071   2.812   0.522  0.2978  0.8688 -0.4970
 6831TIP3    H142128   6.016   2.890   0.516  0.0883  0.6417 -1.6898
 6831TIP3    H242129   6.009   2.741   0.542  0.1605  0.6519 -1.6148
 6832TIP3   OH242130   4.812   5.914   6.489  0.2081  0.5924  0.7260
 6832TIP3    H142131   4.832   5.931   6.581  4.0019  1.2720 -0.0863
 6832TIP3    H242132   4.809   6.000   6.448  0.6067  0.2243 -0.1189
 6833TIP3   OH242133   6.229   1.853   1.492 -0.3266  0.0962  0.2991
 6833TIP3    H142134   6.309   1.805   1.471 -0.4958 -0.2176  0.3520
 6833TIP3    H242135   6.160   1.804   1.447 -0.4163  0.7021 -0.2221
 6834TIP3   OH242136   1.318   6.018   1.869 -0.0648  0.7237 -0.8157
 6834TIP3    H142137   1.391   5.966   1.904 -0.5963 -1.2724 -2.4779
 6834TIP3    H242138   1.239   5.976   1.903 -0.5072  0.5368 -2.0248
 6835TIP3   OH242139   2.269   6.814   7.490  0.0487 -0.1193  0.0797
 6835TIP3    H142140   2.212   6.737   7.488 -0.3756  0.1715  0.6226
 6835TIP3    H242141   2.230   6.871   7.557  1.0652  0.0225  0.5762
 6836TIP3   OH242142   2.353   2.011   0.726 -0.1889  0.2088 -0.3700
 6836TIP3    H142143   2.424   1.992   0.788  0.1992 -0.5861 -1.0336
 6836TIP3    H242144   2.290   2.063   0.776  0.0777 -0.4730  0.7032
 6837TIP3   OH242145   2.064   3.685   7.179 -0.3137 -0.1844  0.0730
 6837TIP3    H142146   2.138   3.667   7.237  0.9666 -0.0048 -1.4304
 6837TIP3    H242147   2.087   3.766   7.135 -1.9508  0.4747  0.3717
 6838TIP3   OH242148   4.828   6.769   2.126  0.1307 -0.3057  0.6691
 6838TIP3    H142149   4.896   6.813   2.177  0.5345 -1.0162  0.7620
 6838TIP3    H242150   4.867   6.685   2.102 -0.7792 -0.8025  0.8832
 6839TIP3   OH242151   5.505   3.120   7.145 -0.1815 -0.0322  0.4851
 6839TIP3    H142152   5.455   3.045   7.111 -0.8549  1.4718 -2.1077
 6839TIP3    H242153   5.445   3.194   7.137  1.9908  1.6549 -1.7684
 6840TIP3   OH242154   4.585   3.118   7.199 -0.1157  0.0459 -0.3782
 6840TIP3    H142155   4.555   3.111   7.290 -0.0101 -0.4780 -0.3778
 6840TIP3    H242156   4.613   3.029   7.177  1.2133  0.4593 -0.4567
 6841TIP3   OH242157   1.813   0.369   0.164 -0.3301 -0.1484  0.0356
 6841TIP3    H142158   1.832   0.284   0.124  1.0599 -0.2075  0.7761
 6841TIP3    H242159   1.816   0.432   0.092  2.2903 -0.2220  0.0083
 6842TIP3   OH242160   0.836   5.487   7.254  0.0391  0.3545 -0.5225
 6842TIP3    H142161   0.906   5.519   7.309 -0.0285  0.0260 -0.2417
 6842TIP3    H242162   0.783   5.564   7.234 -0.1846  0.4065  0.2314
 6843TIP3   OH242163   4.541   6.001   8.318 -0.1796 -0.4465  0.0445
 6843TIP3    H142164   4.580   6.068   8.373 -0.7733 -0.1721  0.1328
 6843TIP3    H242165   4.464   6.042   8.280  1.3920  0.1659 -2.8021
 6844TIP3   OH242166   0.183   0.861   8.144 -0.0862 -0.2899  0.3306
 6844TIP3    H142167   0.238   0.932   8.179  0.5546 -0.3945 -0.4488
 6844TIP3    H242168   0.098   0.875   8.186 -0.2147  1.4410 -0.4163
 6845TIP3   OH242169   4.572   3.908   2.273  0.0622  0.2711  0.8466
 6845TIP3    H142170   4.494   3.863   2.306  0.4911 -0.2824  1.1106
 6845TIP3    H242171   4.544   4.000   2.264 -0.4762  0.1698  1.3933
 6846TIP3   OH242172   6.769   5.962   0.191  0.1954  0.3583 -0.6523
 6846TIP3    H142173   6.856   5.925   0.176  0.6113  0.9945  0.1259
 6846TIP3    H242174   6.709   5.891   0.170  0.9226 -0.3163 -0.5007
 6847TIP3   OH242175   6.693   2.270   1.074 -0.0651 -0.3766  0.0814
 6847TIP3    H142176   6.626   2.338   1.085 -0.0308 -0.2237 -0.5812
 6847TIP3    H242177   6.743   2.271   1.156  0.7525  1.3074 -0.3949
 6848TIP3   OH242178   6.137   6.487   0.046  0.3626  0.3842  0.1835
 6848TIP3    H142179   6.214   6.544   0.049  0.9742 -0.2976 -1.3192
 6848TIP3    H242180   6.089   6.508   0.125  2.6203  0.0888  1.7421
 6849TIP3   OH242181   1.834   4.187   7.752 -0.8139  0.2274 -0.1580
 6849TIP3    H142182   1.853   4.152   7.665 -0.0475 -0.2597  0.1887
 6849TIP3    H242183   1.864   4.278   7.748  0.0985 -0.0567 -0.1366
 6850TIP3   OH242184   4.160   5.140   7.236 -0.3474 -0.0789  0.0833
 6850TIP3    H142185   4.105   5.061   7.237 -1.0941  0.4026  1.8983
 6850TIP3    H242186   4.249   5.107   7.224 -0.8785 -0.9666 -1.7540
 6851TIP3   OH242187   0.071   6.826   8.466 -0.3030  0.1466  0.1145
 6851TIP3    H142188   0.101   6.825   8.375  0.6724 -0.1417  0.4233
 6851TIP3    H242189  -0.010   6.776   8.466  1.1034 -2.3022 -0.1568
 6852TIP3   OH242190   0.929   5.875   0.908 -0.2518 -0.0453  0.4221
 6852TIP3    H142191   0.842   5.856   0.942 -0.8192 -0.4089 -1.1619
 6852TIP3    H242192   0.915   5.899   0.816  1.3710 -0.8464 -0.0795
 6853TIP3   OH242193   2.654   5.376   6.982  0.1184  0.0283  0.1763
 6853TIP3    H142194   2.602   5.419   6.915  0.7210  0.6473  0.0957
 6853TIP3    H242195   2.740   5.418   6.977  0.6860 -1.0872  0.1880
 6854TIP3   OH242196   4.924   3.477   0.426  0.3877  0.5688 -0.1572
 6854TIP3    H142197   4.963   3.390   0.422  1.9766  1.2046  0.3419
 6854TIP3    H242198   4.877   3.479   0.509  1.4887  0.5916  0.4957
 6855TIP3   OH242199   2.455   5.227   0.523 -0.0981 -0.3176  0.1530
 6855TIP3    H142200   2.516   5.295   0.552  1.1210 -1.3598  0.1047
 6855TIP3    H242201   2.401   5.209   0.600 -0.9140  1.1512 -0.0204
 6856TIP3   OH242202   1.611   2.682   6.757 -0.2162 -0.6399  0.5256
 6856TIP3    H142203   1.643   2.771   6.739 -1.3941 -0.2403  0.3675
 6856TIP3    H242204   1.633   2.632   6.678  0.0421 -0.3796  0.4312
 6857TIP3   OH242205   2.444   2.511   7.133  0.2821 -0.2602 -0.3585
 6857TIP3    H142206   2.363   2.561   7.128  0.3843  0.0315  0.6162
 6857TIP3    H242207   2.416   2.422   7.155  0.2958  0.3695  2.6781
 6858TIP3   OH242208   2.464   5.734   1.414 -0.0641  0.0720  0.7092
 6858TIP3    H142209   2.372   5.727   1.389  0.4368  2.1502 -2.0924
 6858TIP3    H242210   2.466   5.804   1.479 -0.3942  0.5223  0.2416
 6859TIP3   OH242211   6.893   6.535   8.501  0.5080 -0.1743  0.0798
 6859TIP3    H142212   6.799   6.551   8.493  0.5063 -0.1835  0.0795
 6859TIP3    H242213   6.904   6.443   8.477  0.6519  0.1014 -0.9452
 6860TIP3   OH242214   5.557   3.138   8.401  0.1744  0.2665 -0.0206
 6860TIP3    H142215   5.633   3.082   8.387 -0.3100 -0.1761 -0.9760
 6860TIP3    H242216   5.585   3.200   8.469  1.2482 -0.1237 -0.0856
 6861TIP3   OH242217   0.120   3.876   6.853  0.5526  0.2948 -0.0560
 6861TIP3    H142218   0.089   3.787   6.871  0.1000  0.7718  1.7136
 6861TIP3    H242219   0.193   3.865   6.792  0.9358 -1.3347  0.6571
 6862TIP3   OH242220   5.516   4.661   0.536 -0.5826  0.3129 -0.2427
 6862TIP3    H142221   5.596   4.675   0.587 -0.8236  1.0515 -0.0683
 6862TIP3    H242222   5.449   4.640   0.601 -0.7012  0.4277 -0.3281
 6863TIP3   OH242223   5.580   3.557   1.835 -0.1693 -0.3446  0.0104
 6863TIP3    H142224   5.550   3.466   1.844 -1.2408  0.0373  0.4778
 6863TIP3    H242225   5.631   3.557   1.754 -0.3970 -1.2998 -0.1537
 6864TIP3   OH242226   3.286   3.791   2.388  0.8632 -0.6192  0.1517
 6864TIP3    H142227   3.259   3.707   2.350 -0.2912 -1.2843  2.2343
 6864TIP3    H242228   3.204   3.835   2.410  1.4607  0.4140  0.3913
 6865TIP3   OH242229   0.257   6.000   1.642  0.4199 -0.0845  0.1469
 6865TIP3    H142230   0.227   6.063   1.708  0.4533  0.5114 -0.4025
 6865TIP3    H242231   0.332   6.042   1.601 -0.0975 -0.0945 -0.8369
 6866TIP3   OH242232   4.656   3.224   7.703  0.1543 -0.4403 -0.0434
 6866TIP3    H142233   4.568   3.200   7.733 -0.9676  2.1605 -0.9750
 6866TIP3    H242234   4.644   3.307   7.657  3.4636  1.3987  2.0076
 6867TIP3   OH242235   6.218   5.831   8.303  0.5158 -0.4671  0.9356
 6867TIP3    H142236   6.136   5.806   8.345  0.1232 -0.9588 -0.0972
 6867TIP3    H242237   6.191   5.875   8.222  1.2573 -2.3125 -0.3781
 6868TIP3   OH242238   0.910   2.263   6.658  0.7106 -0.1794 -0.3444
 6868TIP3    H142239   0.972   2.208   6.610  0.6778 -1.0658  0.5946
 6868TIP3    H242240   0.888   2.333   6.597 -0.8059 -2.2877 -2.4245
 6869TIP3   OH242241   0.114   1.251   0.071 -0.2833 -0.1508  0.0795
 6869TIP3    H142242   0.150   1.337   0.051  0.9173  0.0050  2.4414
 6869TIP3    H242243   0.031   1.247   0.025 -0.0994  2.0473 -0.5350
 6870TIP3   OH242244   1.575   6.183   2.281 -0.0801 -0.2522 -0.1016
 6870TIP3    H142245   1.577   6.092   2.308  1.0311 -0.4873 -0.8918
 6870TIP3    H242246   1.612   6.231   2.355 -2.9347 -0.0925  1.3499
 6871TIP3   OH242247   0.889   2.070   0.874 -0.1572 -0.0342  0.1575
 6871TIP3    H142248   0.983   2.067   0.890 -0.1506 -1.2254  0.0288
 6871TIP3    H242249   0.880   2.114   0.789  0.3726 -0.8189 -0.3252
 6872TIP3   OH242250   4.692   2.801   0.374  0.5322  0.5196  0.2082
 6872TIP3    H142251   4.678   2.709   0.395  0.9345  0.6279  1.0001
 6872TIP3    H242252   4.662   2.848   0.452 -3.3004  1.3595 -1.5435
 6873TIP3   OH242253   3.585   3.781   0.219  0.1078  0.1286  0.2583
 6873TIP3    H142254   3.503   3.831   0.212  0.8141  1.2366 -0.2827
 6873TIP3    H242255   3.558   3.690   0.203 -0.9057  0.5647 -0.6891
 6874TIP3   OH242256   3.186   1.582   0.220 -0.0001  0.1897  0.3519
 6874TIP3    H142257   3.134   1.578   0.139 -0.3210 -1.3323  0.6013
 6874TIP3    H242258   3.147   1.654   0.270 -0.5419  0.4037 -0.3543
 6875TIP3   OH242259   3.910   2.260   1.773 -0.3610 -0.2353 -0.7074
 6875TIP3    H142260   3.931   2.265   1.866 -1.4165  0.4003 -0.4814
 6875TIP3    H242261   3.978   2.204   1.735  0.9934  0.7992  0.1569
 6876TIP3   OH242262   5.605   2.643   1.390 -0.1226 -0.3817 -0.4752
 6876TIP3    H142263   5.666   2.591   1.338 -0.5927  1.0911 -2.6530
 6876TIP3    H242264   5.588   2.590   1.468  1.8304 -2.0088 -1.0708
 6877TIP3   OH242265   4.085   0.842   6.274 -0.1757 -0.2647  0.1540
 6877TIP3    H142266   4.047   0.754   6.280  0.4925 -0.5584  0.0754
 6877TIP3    H242267   4.141   0.839   6.197  1.5787 -0.4404  1.3822
 6878TIP3   OH242268   6.449   0.554   0.589  0.2959 -0.0748 -0.0644
 6878TIP3    H142269   6.420   0.550   0.498  1.0705  0.5858 -0.3470
 6878TIP3    H242270   6.372   0.527   0.640 -0.2435 -0.1232 -0.8921
 6879TIP3   OH242271   2.325   6.853   2.536 -0.5747  0.1387 -0.0261
 6879TIP3    H142272   2.360   6.943   2.534 -1.8647  0.6486 -0.7899
 6879TIP3    H242273   2.239   6.862   2.576 -0.9139 -0.6908 -0.5496
 6880TIP3   OH242274   0.478   3.850   1.761 -0.7222  0.2238  0.2029
 6880TIP3    H142275   0.553   3.861   1.702 -2.2621  0.0679 -1.9070
 6880TIP3    H242276   0.515   3.807   1.838  1.3137 -0.0684 -0.8450
 6881TIP3   OH242277   0.265   3.878   0.500 -0.6428  0.0356 -0.1730
 6881TIP3    H142278   0.332   3.894   0.434  0.5889  0.1816  1.0561
 6881TIP3    H242279   0.182   3.885   0.453  0.0960  2.2582 -1.3077
 6882TIP3   OH242280   0.553   6.764   1.013  0.0813  0.4869 -0.4340
 6882TIP3    H142281   0.471   6.798   1.048  0.3816  1.3022 -0.4962
 6882TIP3    H242282   0.535   6.745   0.921  0.3607  2.1367 -0.8608
 6883TIP3   OH242283   6.356   6.649   0.049 -0.3695  0.1956  0.0332
 6883TIP3    H142284   6.392   6.680  -0.034  0.1575 -1.1680 -0.2838
 6883TIP3    H242285   6.432   6.648   0.108 -0.6136  0.5834  0.3523
 6884TIP3   OH242286   3.155   1.536   1.291 -0.2665 -0.1304  0.2753
 6884TIP3    H142287   3.146   1.568   1.201  0.8409 -0.8406 -0.1057
 6884TIP3    H242288   3.160   1.441   1.282 -1.3404 -0.2958  1.2022
 6885TIP3   OH242289   2.743   6.810   6.486  0.3642  0.4115  0.7209
 6885TIP3    H142290   2.807   6.819   6.557  1.6400  2.0424 -0.5434
 6885TIP3    H242291   2.729   6.900   6.455  0.8709 -0.3083 -1.9094
 6886TIP3   OH242292   5.937   0.416   1.661  0.2729 -0.1251  0.3719
 6886TIP3    H142293   5.859   0.449   1.707 -0.3471 -0.6866 -0.2482
 6886TIP3    H242294   5.958   0.335   1.706  0.4806  0.0143  0.5234
 6887TIP3   OH242295   6.421   5.859   0.339  0.0310  0.7769  0.1311
 6887TIP3    H142296   6.429   5.855   0.434  1.7745 -2.7437 -0.0084
 6887TIP3    H242297   6.336   5.819   0.320  0.0131  0.7945  0.1735
 6888TIP3   OH242298   6.721   2.353   7.880 -0.0837  0.6425 -0.5444
 6888TIP3    H142299   6.649   2.294   7.905  1.1668 -0.3215  0.9542
 6888TIP3    H242300   6.790   2.294   7.850 -0.0314  1.5874 -2.3801
 6889TIP3   OH242301   3.668   5.241   0.659 -0.3161 -0.5254 -0.0224
 6889TIP3    H142302   3.623   5.242   0.575 -0.8392  0.6421  0.2538
 6889TIP3    H242303   3.756   5.273   0.639 -0.3628 -0.4819 -0.1572
 6890TIP3   OH242304   0.821   3.130   0.609  0.5034  0.3394 -0.2726
 6890TIP3    H142305   0.875   3.051   0.600 -0.6619 -0.4756 -0.4394
 6890TIP3    H242306   0.883   3.201   0.625  1.5528 -0.6932  0.3612
 6891TIP3   OH242307   4.524   0.923   7.781 -0.1220 -0.4350 -0.2458
 6891TIP3    H142308   4.448   0.865   7.784 -0.1910 -0.3161  0.4074
 6891TIP3    H242309   4.599   0.864   7.792 -0.0919 -0.5940 -1.2296
 6892TIP3   OH242310   3.141   6.856   7.174 -0.5302  0.5205  0.2887
 6892TIP3    H142311   3.086   6.925   7.210 -2.2403 -0.9814  0.7033
 6892TIP3    H242312   3.085   6.779   7.172  1.4715 -1.0335  0.3989
 6893TIP3   OH242313   6.521   4.240   5.749 -0.1695  0.0010 -0.0436
 6893TIP3    H142314   6.526   4.204   5.838  2.6991 -1.2518 -0.6066
 6893TIP3    H242315   6.427   4.245   5.731 -0.8197 -0.5279  2.7177
 6894TIP3   OH242316   4.579   5.854   0.944  0.2185 -0.2326 -0.1470
 6894TIP3    H142317   4.570   5.935   0.994 -0.6424 -0.8958  0.8017
 6894TIP3    H242318   4.495   5.843   0.901 -0.0335 -1.1583  0.5615
 6895TIP3   OH242319   4.902   0.246   7.847 -0.2862  0.0194  0.5901
 6895TIP3    H142320   4.992   0.226   7.820 -0.5141 -2.8599  1.6258
 6895TIP3    H242321   4.908   0.260   7.942 -0.6477  2.1649  0.3418
 6896TIP3   OH242322   3.391   3.021   0.515  0.5641  0.2417  0.3561
 6896TIP3    H142323   3.341   3.097   0.544  0.6734  0.7146 -0.6687
 6896TIP3    H242324   3.326   2.961   0.480  0.5873  0.3691  0.0876
 6897TIP3   OH242325   4.296   4.763   6.937  0.1730  0.9727 -0.5615
 6897TIP3    H142326   4.217   4.785   6.986  0.1863 -1.4070  0.6297
 6897TIP3    H242327   4.264   4.717   6.859  0.3623  0.9827 -0.6464
 6898TIP3   OH242328   1.426   3.586   8.182 -0.3679 -0.3149 -0.2331
 6898TIP3    H142329   1.491   3.515   8.187  1.1568  1.0037 -0.5490
 6898TIP3    H242330   1.445   3.630   8.099 -0.4970  1.1923  0.5087
 6899TIP3   OH242331   4.495   4.326   1.644  0.3148  0.2735  0.1586
 6899TIP3    H142332   4.484   4.231   1.633  0.0666 -0.1081  3.0200
 6899TIP3    H242333   4.414   4.355   1.684  1.3460  1.2318  1.6181
 6900TIP3   OH242334   4.838   1.928   1.609 -0.4441  0.2305 -0.2022
 6900TIP3    H142335   4.877   1.845   1.636 -1.1277  0.0770  0.3450
 6900TIP3    H242336   4.763   1.902   1.555  1.2182  0.5257 -2.8252
 6901TIP3   OH242337   2.784   1.568   1.317 -0.0933 -0.5602 -0.6669
 6901TIP3    H142338   2.838   1.594   1.392 -0.9064 -0.5902 -0.0626
 6901TIP3    H242339   2.846   1.562   1.244  0.4164  1.3045 -0.4302
 6902TIP3   OH242340   2.482   5.279   8.448  0.1777  0.3411  0.3053
 6902TIP3    H142341   2.561   5.332   8.438  0.2980  0.0090 -0.6592
 6902TIP3    H242342   2.419   5.321   8.389  0.2546 -0.5245 -0.4220
 6903TIP3   OH242343   1.143   2.817   7.702 -0.0174  0.4221  0.4842
 6903TIP3    H142344   1.232   2.851   7.714 -0.2466  1.2982 -0.2032
 6903TIP3    H242345   1.108   2.809   7.791  0.4026  1.0336  0.7106
 6904TIP3   OH242346   5.194   4.723   6.701 -0.4082  0.4477 -0.0374
 6904TIP3    H142347   5.250   4.693   6.629 -1.0539  1.6524 -1.0874
 6904TIP3    H242348   5.230   4.807   6.726  0.5643 -0.4913  1.9571
 6905TIP3   OH242349   2.264   1.442   0.730 -0.4745 -0.2966  0.4407
 6905TIP3    H142350   2.177   1.452   0.769 -1.1037 -0.2694 -0.9138
 6905TIP3    H242351   2.257   1.483   0.644  1.0783  0.2714  0.5463
 6906TIP3   OH242352   4.677   5.203   1.930 -0.4386 -0.7209  0.4609
 6906TIP3    H142353   4.640   5.285   1.896 -0.8282 -1.3321 -0.6424
 6906TIP3    H242354   4.626   5.135   1.886 -0.2226 -1.5564  1.4871
 6907TIP3   OH242355   0.030   4.351   0.579 -0.1974 -0.0205 -0.1233
 6907TIP3    H142356   0.056   4.272   0.626 -0.7184  0.2727  0.6896
 6907TIP3    H242357   0.099   4.415   0.599 -0.0407 -0.1106 -0.3653
 6908TIP3   OH242358   5.842   4.682   6.784  0.2414 -0.5441  0.0633
 6908TIP3    H142359   5.874   4.739   6.714 -1.1113 -0.6449 -0.6656
 6908TIP3    H242360   5.747   4.699   6.787  0.3324 -0.1212  2.2570
 6909TIP3   OH242361   2.148   3.679   0.643 -0.1354 -0.6301  0.0640
 6909TIP3    H142362   2.085   3.624   0.598 -0.6983 -0.6040  0.8045
 6909TIP3    H242363   2.160   3.754   0.584 -0.2941 -0.9475 -0.3795
 6910TIP3   OH242364   3.643   4.523   6.471 -0.0927 -0.0046  0.5730
 6910TIP3    H142365   3.619   4.458   6.537 -0.7168 -1.6299 -1.1679
 6910TIP3    H242366   3.561   4.567   6.450 -0.4293 -1.2445 -0.8802
 6911TIP3   OH242367   4.208   0.121   1.437 -0.0154  0.6347 -0.1198
 6911TIP3    H142368   4.206   0.170   1.520  3.5304  0.3857  0.2483
 6911TIP3    H242369   4.181   0.185   1.371 -1.0235  1.3803  0.9545
 6912TIP3   OH242370   0.027   6.495   1.711  0.5378  0.5559 -0.3112
 6912TIP3    H142371  -0.010   6.532   1.791  0.6210  0.3201 -0.1629
 6912TIP3    H242372   0.010   6.561   1.644  1.2239  1.1398  0.0755
 6913TIP3   OH242373   3.405   3.482   8.562 -0.2819 -0.1887 -0.3314
 6913TIP3    H142374   3.365   3.486   8.649 -0.0344  1.7079 -0.2485
 6913TIP3    H242375   3.486   3.533   8.571 -0.1652 -0.1181 -1.6191
 6914TIP3   OH242376   1.863   2.389   0.740  0.6552 -0.1488  0.4112
 6914TIP3    H142377   1.838   2.473   0.701 -0.6552 -0.1869  1.0999
 6914TIP3    H242378   1.870   2.407   0.834  0.6630 -0.7466  0.5304
 6915TIP3   OH242379   5.792   6.800   7.573 -0.0541  0.1201  0.2114
 6915TIP3    H142380   5.818   6.712   7.602 -1.8920 -0.3335  0.5585
 6915TIP3    H242381   5.784   6.791   7.478  0.9050  0.2506  0.1023
 6916TIP3   OH242382   5.804   4.361   0.556  0.0290 -0.1601 -0.0023
 6916TIP3    H142383   5.747   4.430   0.589  0.7436 -0.2040  1.4155
 6916TIP3    H242384   5.745   4.292   0.528 -0.6861  0.8713 -1.1350
 6917TIP3   OH242385   1.202   4.063   6.226  0.2184  0.3460 -0.2038
 6917TIP3    H142386   1.190   4.068   6.321 -2.2288  2.0581 -0.5098
 6917TIP3    H242387   1.123   4.021   6.194  2.4790 -3.5390 -1.3642
 6918TIP3   OH242388   1.433   0.706   2.471 -0.4734  0.1715 -0.5865
 6918TIP3    H142389   1.407   0.722   2.561  1.7053  0.5581  0.0279
 6918TIP3    H242390   1.452   0.792   2.434 -3.9131  0.3427 -2.3741
 6919TIP3   OH242391   1.838   3.996   0.066 -0.2950 -0.0686 -0.2311
 6919TIP3    H142392   1.775   4.051   0.112 -0.3047  1.0204 -1.4846
 6919TIP3    H242393   1.808   3.906   0.081  0.7884  0.0185  3.4593
 6920TIP3   OH242394   5.786   4.076   8.473 -0.0187  0.8613 -0.0135
 6920TIP3    H142395   5.734   4.026   8.537  0.4619 -0.5906 -0.7124
 6920TIP3    H242396   5.797   4.015   8.400  4.3072  0.3106  0.8412
 6921TIP3   OH242397   5.451   3.952   6.436  0.6114  0.2153  0.2755
 6921TIP3    H142398   5.520   3.915   6.382  0.1859 -0.4782  0.1933
 6921TIP3    H242399   5.373   3.899   6.416 -0.0181  1.1585  0.1444
 6922TIP3   OH242400   4.604   2.373   1.388 -0.5371  0.5337 -0.6390
 6922TIP3    H142401   4.633   2.425   1.314 -0.1968 -0.6664 -1.3793
 6922TIP3    H242402   4.604   2.283   1.356  1.0438 -0.2007  1.2018
 6923TIP3   OH242403   0.535   3.618   0.803 -0.5652 -0.0027 -0.7286
 6923TIP3    H142404   0.588   3.610   0.883 -0.8390 -0.6185 -0.6033
 6923TIP3    H242405   0.582   3.683   0.750 -0.6467  0.7781  0.1330
 6924TIP3   OH242406   0.784   2.473   6.897  0.2157 -0.2248  0.3194
 6924TIP3    H142407   0.858   2.522   6.933  0.3584 -0.5062  0.4157
 6924TIP3    H242408   0.708   2.530   6.910  0.4321  0.1109  0.1248
 6925TIP3   OH242409   3.184   4.705   1.550 -0.2171 -0.3672  0.1528
 6925TIP3    H142410   3.182   4.763   1.473  1.6176  1.2341  1.2131
 6925TIP3    H242411   3.144   4.757   1.619  1.6437 -0.2105  1.1780
 6926TIP3   OH242412   6.205   4.139   7.307 -0.2522  0.1918 -0.0791
 6926TIP3    H142413   6.215   4.053   7.266 -1.3251  0.6399 -1.3619
 6926TIP3    H242414   6.284   4.186   7.283 -0.9038  0.4741 -1.7879
 6927TIP3   OH242415   2.169   0.454   7.694 -0.6687 -0.4572 -0.1763
 6927TIP3    H142416   2.256   0.461   7.656 -0.6685  1.5014  0.1237
 6927TIP3    H242417   2.184   0.428   7.784 -0.4821 -1.3485 -0.4507
 6928TIP3   OH242418   5.661   5.356   7.044 -0.2279 -0.2628 -0.0293
 6928TIP3    H142419   5.676   5.438   6.997  0.5680 -0.4948 -0.1894
 6928TIP3    H242420   5.646   5.291   6.974 -2.1795 -0.0384  0.1030
 6929TIP3   OH242421   1.956   3.444   1.411 -0.4881 -0.5442  0.4594
 6929TIP3    H142422   1.930   3.434   1.503 -1.0724 -0.3337  0.3227
 6929TIP3    H242423   2.038   3.494   1.414 -1.3352  0.8980  0.8108
 6930TIP3   OH242424   0.748   5.263   6.584 -0.1340  0.3299  0.4321
 6930TIP3    H142425   0.774   5.321   6.512 -0.2731 -1.2180 -0.9141
 6930TIP3    H242426   0.652   5.269   6.585 -0.2958 -1.2998 -1.0102
 6931TIP3   OH242427   6.284   4.598   7.382 -0.1600  0.8807  0.5952
 6931TIP3    H142428   6.226   4.534   7.342  0.7850 -0.1770  0.8485
 6931TIP3    H242429   6.323   4.552   7.456  0.9013  1.5823  0.4977
 6932TIP3   OH242430   1.360   5.275   1.474 -0.3058  0.4358  0.7969
 6932TIP3    H142431   1.279   5.248   1.430 -0.4769  0.2986  1.1934
 6932TIP3    H242432   1.429   5.240   1.418 -0.5173  0.5890  0.4330
 6933TIP3   OH242433   4.760   6.056   7.504 -0.5292  0.1550 -0.1729
 6933TIP3    H142434   4.703   6.060   7.581  1.4552  1.4578  1.3191
 6933TIP3    H242435   4.745   6.140   7.459 -1.0401 -0.2424 -0.7735
 6934TIP3   OH242436   3.393   4.927   1.737  0.0070  0.2316  0.1179
 6934TIP3    H142437   3.448   4.857   1.772 -1.5593 -1.7373 -1.0943
 6934TIP3    H242438   3.453   4.985   1.690  1.5800  0.7093  2.5729
 6935TIP3   OH242439   2.066   3.829   0.396 -0.2405 -0.6267 -0.2661
 6935TIP3    H142440   2.149   3.789   0.370 -0.7968 -0.5904 -2.2764
 6935TIP3    H242441   2.060   3.909   0.343 -1.1712 -0.1888  0.4660
 6936TIP3   OH242442   3.254   6.658   0.579 -0.0584  0.3029  0.5621
 6936TIP3    H142443   3.282   6.658   0.487  0.3647 -0.0403  0.6861
 6936TIP3    H242444   3.335   6.646   0.628 -0.5442 -2.2063  0.8763
 6937TIP3   OH242445   5.762   4.856   0.801 -0.2242 -0.1290 -0.2837
 6937TIP3    H142446   5.856   4.867   0.816 -0.5012 -0.1633  1.7827
 6937TIP3    H242447   5.720   4.907   0.870 -1.6957 -1.3792 -0.1837
 6938TIP3   OH242448   4.181   2.418   6.445  0.6337 -0.2729  0.3284
 6938TIP3    H142449   4.214   2.334   6.411 -3.1046 -1.0148 -2.0216
 6938TIP3    H242450   4.086   2.413   6.433  0.0540  3.5949  1.9126
 6939TIP3   OH242451   2.889   4.163   8.611 -0.2756  0.8341 -0.1710
 6939TIP3    H142452   2.812   4.208   8.647 -0.5021 -0.0623  0.4987
 6939TIP3    H242453   2.853   4.091   8.559  0.0872 -0.6968  1.5956
 6940TIP3   OH242454   2.507   0.546   0.358  0.2081  0.2900 -0.2484
 6940TIP3    H142455   2.543   0.601   0.288 -1.5232 -1.5336 -2.7844
 6940TIP3    H242456   2.520   0.456   0.326 -0.3323 -0.6568  2.0099
 6941TIP3   OH242457   1.133   5.160   0.363 -0.4469  0.2953  0.3179
 6941TIP3    H142458   1.110   5.235   0.417  0.7356  0.3313  0.7857
 6941TIP3    H242459   1.087   5.175   0.280  0.1176  1.7487  0.2581
 6942TIP3   OH242460   6.660   5.423   0.502 -0.5509  0.2506  0.5401
 6942TIP3    H142461   6.592   5.452   0.441 -0.0741  1.2714  0.4675
 6942TIP3    H242462   6.735   5.479   0.482  0.0904 -0.3870  1.0891
 6943TIP3   OH242463   6.104   0.752   0.072  0.1572 -0.6191 -0.6454
 6943TIP3    H142464   6.110   0.716   0.161  2.5018  0.7146 -0.2055
 6943TIP3    H242465   6.019   0.798   0.071  0.2199 -0.4071  1.0003
 6944TIP3   OH242466   5.468   3.173   0.494  0.0207 -0.0435 -0.4343
 6944TIP3    H142467   5.499   3.082   0.498  1.5863  0.5004  1.0115
 6944TIP3    H242468   5.470   3.203   0.585  2.7242  2.4270 -1.1422
 6945TIP3   OH242469   3.006   5.532   0.945  0.1736  0.0913  0.4869
 6945TIP3    H142470   2.951   5.580   1.006  1.4117  0.5793  1.2557
 6945TIP3    H242471   2.947   5.507   0.874 -0.5697  2.4864  0.1897
 6946TIP3   OH242472   0.948   4.093   7.899  0.2057  0.1926 -0.8040
 6946TIP3    H142473   0.868   4.141   7.879 -1.2459 -1.5745  0.4561
 6946TIP3    H242474   0.943   4.077   7.994  1.9275 -0.1648 -0.7458
 6947TIP3   OH242475   2.317   5.648   0.617 -0.2284 -0.0964 -0.1410
 6947TIP3    H142476   2.231   5.606   0.618 -0.2996  0.0345 -0.7910
 6947TIP3    H242477   2.305   5.726   0.672 -0.4852 -0.1491 -0.1171
 6948TIP3   OH242478   4.941   1.459   8.626 -0.4573 -0.4129 -0.1363
 6948TIP3    H142479   4.976   1.516   8.558  0.2457  1.9333  2.0442
 6948TIP3    H242480   4.863   1.504   8.657 -1.3791 -1.9908 -0.0543
 6949TIP3   OH242481   6.145   6.395   6.761 -0.1430  0.2895 -0.0658
 6949TIP3    H142482   6.218   6.352   6.715 -0.8412 -0.5340 -0.4218
 6949TIP3    H242483   6.186   6.432   6.839  0.8263  0.5938 -0.6947
 6950TIP3   OH242484   6.430   5.137   8.485 -0.4859  0.0151  0.1842
 6950TIP3    H142485   6.398   5.227   8.478  0.2217  0.2520 -0.0108
 6950TIP3    H242486   6.495   5.139   8.556 -3.1771 -1.1280  2.9410
 6951TIP3   OH242487   5.452   3.186   0.762  0.2790 -0.2953 -0.3655
 6951TIP3    H142488   5.403   3.134   0.825  0.4641  0.6541  0.6012
 6951TIP3    H242489   5.535   3.205   0.806 -0.2710  1.8515 -0.1274
 6952TIP3   OH242490   0.231   4.413   8.416 -0.4599 -0.5275 -0.1423
 6952TIP3    H142491   0.282   4.490   8.391 -1.2834  0.3508  0.7830
 6952TIP3    H242492   0.219   4.423   8.511 -0.6714 -1.7510 -0.0286
 6953TIP3   OH242493   3.117   3.610   7.936  0.0895 -0.8133 -0.4077
 6953TIP3    H142494   3.025   3.586   7.928 -0.3758  1.1484 -1.5889
 6953TIP3    H242495   3.157   3.535   7.980 -2.2355 -1.2901  1.0911
 6954TIP3   OH242496   2.518   6.427   8.378  0.0248  0.2018  0.6542
 6954TIP3    H142497   2.553   6.480   8.450  0.6507 -0.1388  0.6057
 6954TIP3    H242498   2.430   6.402   8.407 -0.6264  1.9413  0.3396
 6955TIP3   OH242499   6.030   2.295   8.277  0.1146  0.0044 -0.2619
 6955TIP3    H142500   5.960   2.280   8.340 -0.5258  2.3989 -0.3164
 6955TIP3    H242501   5.997   2.256   8.195  0.6458 -2.4622  0.6142
 6956TIP3   OH242502   2.643   4.230   8.422 -0.1854  0.5637 -0.1940
 6956TIP3    H142503   2.688   4.307   8.388  2.8189 -0.8851  0.1317
 6956TIP3    H242504   2.581   4.264   8.487  3.0596  2.6495  2.1015
 6957TIP3   OH242505   0.663   5.867   8.185  0.1517  0.2569  0.5429
 6957TIP3    H142506   0.709   5.785   8.171  1.4061  1.1137 -0.6021
 6957TIP3    H242507   0.726   5.923   8.230 -0.9218  0.3978  1.9633
 6958TIP3   OH242508   1.249   0.157   1.466 -0.5842 -0.4943  0.3531
 6958TIP3    H142509   1.233   0.096   1.538 -0.5649 -0.0487  0.7344
 6958TIP3    H242510   1.273   0.100   1.392 -1.1266 -0.9870  0.5464
 6959TIP3   OH242511   1.562   4.240   7.835 -0.2851 -0.4570 -0.4155
 6959TIP3    H142512   1.655   4.236   7.813 -0.3660 -0.6707 -0.7346
 6959TIP3    H242513   1.541   4.152   7.868 -0.3369 -0.3619 -0.1967
 6960TIP3   OH242514   0.362   0.022   0.626  0.0218 -0.0855 -0.5282
 6960TIP3    H142515   0.426   0.080   0.668 -0.2183  0.3555 -0.7647
 6960TIP3    H242516   0.394  -0.066   0.644 -0.5515  0.0380  1.3865
 6961TIP3   OH242517   6.088   3.193   1.928 -0.0529 -0.2776  0.2920
 6961TIP3    H142518   6.045   3.235   1.853 -0.4106 -0.9031  0.1428
 6961TIP3    H242519   6.036   3.220   2.003  0.6069  0.7734  0.3967
 6962TIP3   OH242520   6.212   3.742   7.983  0.3662 -0.6041 -0.1453
 6962TIP3    H142521   6.228   3.827   8.024  1.3459 -0.9098  0.1447
 6962TIP3    H242522   6.190   3.684   8.055  0.9879 -0.8859 -0.1744
 6963TIP3   OH242523   4.103   2.389   8.511  0.4466  0.9184  0.2100
 6963TIP3    H142524   4.161   2.450   8.556  1.9458 -0.1919 -0.1696
 6963TIP3    H242525   4.144   2.303   8.522 -0.3101  0.3158 -1.3731
 6964TIP3   OH242526   5.687   0.445   1.769  0.1923 -0.1921 -0.2943
 6964TIP3    H142527   5.603   0.435   1.725 -0.1180  0.8203  0.0583
 6964TIP3    H242528   5.664   0.458   1.861  0.7647 -0.5350 -0.0991
 6965TIP3   OH242529   6.232   3.184   0.479 -0.7466 -0.1312 -0.7162
 6965TIP3    H142530   6.260   3.215   0.565 -0.8527  2.4637 -1.5299
 6965TIP3    H242531   6.308   3.198   0.423 -0.8902 -1.1846 -1.1981
 6966TIP3   OH242532   0.329   3.718   1.568  0.4106  0.9532 -0.1036
 6966TIP3    H142533   0.363   3.777   1.636  1.2002  2.0375 -1.3932
 6966TIP3    H242534   0.407   3.690   1.520 -0.1455  0.2904 -0.6316
 6967TIP3   OH242535   4.211   1.476   7.671 -0.2665 -0.2926  0.3649
 6967TIP3    H142536   4.270   1.552   7.677  0.6667 -0.9711  0.0708
 6967TIP3    H242537   4.226   1.442   7.583 -2.5113  0.6076 -0.4350
 6968TIP3   OH242538   6.070   3.785   2.130  0.6551  0.3049 -0.7027
 6968TIP3    H142539   6.065   3.869   2.175 -0.0888  0.3860 -0.9145
 6968TIP3    H242540   6.056   3.720   2.198 -0.0762  0.4127 -0.7372
 6969TIP3   OH242541   5.989   0.117   0.626  1.0394  0.1228  0.1183
 6969TIP3    H142542   5.992   0.165   0.708  0.2064  0.3015  0.0458
 6969TIP3    H242543   6.051   0.163   0.569  2.1730 -0.4358  0.8534
 6970TIP3   OH242544   0.937   1.570   0.383  0.6623 -0.1304 -0.1301
 6970TIP3    H142545   0.908   1.479   0.388  0.5285 -0.1644 -1.2305
 6970TIP3    H242546   0.868   1.614   0.334  0.0953  0.8615  1.4814
 6971TIP3   OH242547   0.071   2.210   7.344 -0.2207  0.1202 -0.5953
 6971TIP3    H142548   0.088   2.302   7.321  0.7182 -0.0783 -0.7331
 6971TIP3    H242549   0.062   2.166   7.259 -0.8082  0.1016 -0.5286
 6972TIP3   OH242550   3.578   6.536   6.566  0.0216  0.2690  0.4822
 6972TIP3    H142551   3.545   6.484   6.639 -0.1107  1.8038  1.5588
 6972TIP3    H242552   3.577   6.476   6.492  0.2998 -1.3919  1.7528
 6973TIP3   OH242553   6.051   1.242   1.473  0.0974  0.3902  0.0391
 6973TIP3    H142554   6.113   1.283   1.532 -1.7104  2.4390  0.6637
 6973TIP3    H242555   6.043   1.304   1.400 -0.0710 -0.5866 -0.8007
 6974TIP3   OH242556   1.919   5.650   0.567 -0.0578 -0.1115  0.2756
 6974TIP3    H142557   1.890   5.740   0.548 -0.5338 -0.1569  0.7938
 6974TIP3    H242558   1.845   5.595   0.541 -0.6467 -0.1964  2.0221
 6975TIP3   OH242559   6.863   2.071   0.455 -0.7438 -0.1959 -0.5657
 6975TIP3    H142560   6.848   1.995   0.399 -0.1686  0.3450 -1.4823
 6975TIP3    H242561   6.777   2.110   0.466 -1.0199 -0.8822 -0.2143
 6976TIP3   OH242562   2.866   5.082   7.591 -0.7044 -0.1322 -0.2059
 6976TIP3    H142563   2.888   4.996   7.554  0.9722 -0.6978  1.9111
 6976TIP3    H242564   2.774   5.095   7.568 -0.1467 -0.9769 -3.3750
 6977TIP3   OH242565   2.716   6.111   8.103 -0.0272  0.2818  0.0864
 6977TIP3    H142566   2.732   6.106   8.009  0.1423  1.8611  0.0103
 6977TIP3    H242567   2.626   6.080   8.114  0.6701 -2.0959 -0.2860
 6978TIP3   OH242568   2.717   2.131   0.023  0.1970  0.5568 -0.0826
 6978TIP3    H142569   2.755   2.199   0.078  0.7182 -0.9347  1.5161
 6978TIP3    H242570   2.641   2.100   0.074  1.6842 -2.0413  0.7362
 6979TIP3   OH242571   2.312   6.732   6.585 -0.2210 -0.3960  0.2704
 6979TIP3    H142572   2.330   6.640   6.564 -1.2243 -0.9352  1.6146
 6979TIP3    H242573   2.265   6.765   6.508 -0.2192 -1.1207 -0.0536
 6980TIP3   OH242574   4.288   0.914   6.805 -0.0564  0.6568 -0.6802
 6980TIP3    H142575   4.239   0.940   6.726  0.2630  1.7826 -0.5215
 6980TIP3    H242576   4.220   0.888   6.867 -0.5159  2.4140 -0.3881
 6981TIP3   OH242577   3.985   0.295   2.011 -0.2419  0.1945 -0.1082
 6981TIP3    H142578   3.951   0.210   2.039 -0.4216  0.1134 -0.5496
 6981TIP3    H242579   3.956   0.302   1.920 -1.6759  1.4705  0.4030
 6982TIP3   OH242580   2.927   0.362   7.447 -0.1113  0.5182 -0.0220
 6982TIP3    H142581   2.968   0.375   7.533  0.8105 -0.2945 -0.3217
 6982TIP3    H242582   2.959   0.436   7.395  0.8181  0.0172 -0.1852
 6983TIP3   OH242583   3.250   0.523   6.910  0.0487  0.1505 -0.3800
 6983TIP3    H142584   3.234   0.469   6.832 -0.6293  0.5117 -0.4985
 6983TIP3    H242585   3.240   0.462   6.983  2.3158 -0.5801 -0.6038
 6984TIP3   OH242586   3.592   0.340   7.391  0.3581 -1.2736 -0.3530
 6984TIP3    H142587   3.612   0.421   7.437 -0.7120 -1.1345 -0.0859
 6984TIP3    H242588   3.611   0.358   7.299 -1.2288 -0.2139 -0.5133
 6985TIP3   OH242589   4.449   0.377   1.658 -0.2796 -0.8106  0.0622
 6985TIP3    H142590   4.466   0.307   1.722 -0.9769 -0.5676  0.5301
 6985TIP3    H242591   4.371   0.348   1.612 -0.2034 -0.6325 -0.1770
 6986TIP3   OH242592   5.350   5.149   6.930 -0.0434  0.1522 -0.0399
 6986TIP3    H142593   5.343   5.079   6.995  0.1383  0.3325  0.1754
 6986TIP3    H242594   5.362   5.229   6.981 -2.4445  0.6716 -0.1810
 6987TIP3   OH242595   1.473   6.393   0.662 -0.1343 -0.0606  0.3006
 6987TIP3    H142596   1.518   6.333   0.602 -1.8300  0.5505 -1.6928
 6987TIP3    H242597   1.529   6.471   0.664  1.7328 -1.3159  2.3757
 6988TIP3   OH242598   0.466   5.754   0.434 -0.0270  0.4736 -0.2799
 6988TIP3    H142599   0.546   5.772   0.386 -0.3233 -0.9005 -1.3172
 6988TIP3    H242600   0.492   5.758   0.526  0.9099  1.4237 -0.5648
 6989TIP3   OH242601   4.549   1.430   7.080 -0.3888 -0.5383  0.2995
 6989TIP3    H142602   4.642   1.437   7.103 -0.5976 -0.0036  0.9849
 6989TIP3    H242603   4.544   1.468   6.992 -0.1454  0.5034  0.7227
 6990TIP3   OH242604   0.899   3.016   1.895  0.7628 -0.5864 -0.2883
 6990TIP3    H142605   0.955   2.940   1.909  1.5136 -0.4181 -2.0681
 6990TIP3    H242606   0.941   3.087   1.944 -0.0727 -1.3099  1.5807
 6991TIP3   OH242607   0.523   6.089   1.007 -0.4922  0.2634 -0.8221
 6991TIP3    H142608   0.463   6.158   1.037 -1.2914 -0.6182 -0.3154
 6991TIP3    H242609   0.523   6.098   0.912 -2.6040 -0.5998 -0.9702
 6992TIP3   OH242610   1.747   5.812   6.870 -0.1683 -0.2992  0.3482
 6992TIP3    H142611   1.825   5.757   6.877  0.0271 -0.2292 -0.9686
 6992TIP3    H242612   1.773   5.897   6.905 -0.7643 -1.2482  3.3596
 6993TIP3   OH242613   3.396   6.624   0.973 -0.1695  0.6013 -0.0428
 6993TIP3    H142614   3.469   6.583   0.925 -1.0463  0.9037 -1.7131
 6993TIP3    H242615   3.421   6.618   1.065  2.3153  1.3902 -0.6057
 6994TIP3   OH242616   1.997   2.274   7.602  0.6606  0.0901 -0.1905
 6994TIP3    H142617   2.017   2.291   7.694 -1.8984 -2.2282  0.9385
 6994TIP3    H242618   2.079   2.240   7.565  1.5576  0.4420  1.3780
 6995TIP3   OH242619   0.677   5.425   1.451 -0.0770  0.1768 -0.4191
 6995TIP3    H142620   0.762   5.463   1.430 -0.1781  0.3735 -0.4724
 6995TIP3    H242621   0.614   5.480   1.404 -0.2283 -0.0040 -0.4265
 6996TIP3   OH242622   0.276   6.621   1.423 -0.1331 -0.5141 -0.8136
 6996TIP3    H142623   0.364   6.652   1.401  0.0637 -0.2744  0.2493
 6996TIP3    H242624   0.289   6.562   1.497 -1.0557  1.1347  0.7345
 6997TIP3   OH242625   2.334   5.035   0.343 -0.6334 -0.7117 -0.0701
 6997TIP3    H142626   2.382   5.093   0.403  0.5636 -1.8862  0.1438
 6997TIP3    H242627   2.242   5.051   0.363 -0.2645 -0.9761  2.0039
 6998TIP3   OH242628   5.384   1.617   8.190 -0.9948  0.0931 -0.1724
 6998TIP3    H142629   5.364   1.546   8.130 -2.5276 -1.2503  1.8195
 6998TIP3    H242630   5.478   1.609   8.206 -1.2381 -1.9039  0.4827
 6999TIP3   OH242631   5.331   0.731   6.943  0.4115 -0.0518 -0.3953
 6999TIP3    H142632   5.261   0.797   6.939  1.4713  1.0802 -0.7654
 6999TIP3    H242633   5.309   0.668   6.874  1.4116  2.0180 -2.7460
 7000TIP3   OH242634   3.392   1.457   7.155  0.1501  0.1446  0.0662
 7000TIP3    H142635   3.320   1.395   7.141  0.4254  0.0583 -1.0584
 7000TIP3    H242636   3.368   1.503   7.236 -2.3836  1.7377 -1.4242
 7001TIP3   OH242637   4.595   1.313   8.239  0.1630 -0.1965  0.2201
 7001TIP3    H142638   4.590   1.409   8.236  3.1494  0.0892  1.0933
 7001TIP3    H242639   4.625   1.288   8.151 -2.1209 -0.5502 -0.5200
 7002TIP3   OH242640   6.657   6.892   6.855  0.8239  0.3386 -0.1993
 7002TIP3    H142641   6.733   6.948   6.867  3.0511 -2.2219 -1.3717
 7002TIP3    H242642   6.668   6.822   6.920  0.9079 -1.4016 -1.9859
 7003TIP3   OH242643   5.297   4.897   7.053 -0.2176 -0.2595 -0.0749
 7003TIP3    H142644   5.360   4.857   6.994 -1.4033 -0.3384 -1.3353
 7003TIP3    H242645   5.212   4.869   7.021 -0.9386  0.3490  1.2023
 7004TIP3   OH242646   0.005   2.580   1.099 -0.1550 -0.6987  0.2219
 7004TIP3    H142647   0.092   2.575   1.137  0.2805  1.5389 -0.3636
 7004TIP3    H242648   0.013   2.643   1.028 -2.1665 -0.7431 -0.1045
 7005TIP3   OH242649   5.234   5.480   7.917 -0.1719 -0.5554  0.0625
 7005TIP3    H142650   5.296   5.472   7.990 -1.9465  1.0944  1.8765
 7005TIP3    H242651   5.149   5.492   7.959 -1.4121 -0.4222 -2.3174
 7006TIP3   OH242652   2.933   6.468   6.257  0.2281 -0.1870  0.0738
 7006TIP3    H142653   2.909   6.377   6.240  1.2414 -0.7875  1.6998
 7006TIP3    H242654   3.003   6.487   6.194  1.0301 -1.0249  0.6897
 7007TIP3   OH242655   4.432   0.525   8.596 -0.6292 -0.4114 -0.3264
 7007TIP3    H142656   4.354   0.517   8.652 -0.2416 -1.6940  0.0683
 7007TIP3    H242657   4.427   0.614   8.561 -1.8228 -0.1804  0.3566
 7008TIP3   OH242658   4.424   4.240   7.237  0.0456 -0.6243  0.0249
 7008TIP3    H142659   4.429   4.158   7.189  2.7450 -1.0608  0.8790
 7008TIP3    H242660   4.479   4.300   7.186 -0.6504  0.2087  0.2386
 7009TIP3   OH242661   5.703   3.213   0.352  0.1776 -0.6223 -0.1043
 7009TIP3    H142662   5.675   3.135   0.305 -0.3544 -0.4612 -0.0581
 7009TIP3    H242663   5.652   3.212   0.433  0.2635 -0.2920 -0.0455
 7010TIP3   OH242664   6.203   0.617   8.295  0.8769 -0.0514  0.1249
 7010TIP3    H142665   6.149   0.696   8.300  1.2274  0.2477 -0.6745
 7010TIP3    H242666   6.261   0.633   8.220  1.7074 -0.5941  0.6481
 7011TIP3   OH242667   0.611   1.087   0.911 -0.2038  0.4093  0.3819
 7011TIP3    H142668   0.583   1.159   0.855 -0.7624  0.9121  1.2728
 7011TIP3    H242669   0.650   1.131   0.987 -0.8534 -0.2141  1.0877
 7012TIP3   OH242670   2.210   1.670   6.149  0.2386  0.7845 -0.1634
 7012TIP3    H142671   2.162   1.716   6.218  0.2709  1.1466 -0.3801
 7012TIP3    H242672   2.226   1.582   6.185 -2.2906 -0.0329 -0.8240
 7013TIP3   OH242673   3.806   3.522   1.537 -0.7605 -0.0611 -0.3442
 7013TIP3    H142674   3.781   3.614   1.527 -0.4140  0.1230  0.4604
 7013TIP3    H242675   3.862   3.504   1.461 -1.1560  0.2700 -0.7233
 7014TIP3   OH242676   1.920   3.450   7.118  0.6724  0.1948  0.2510
 7014TIP3    H142677   1.972   3.522   7.155  0.4622 -0.2729  1.4949
 7014TIP3    H242678   1.983   3.396   7.071  0.7145  1.6122 -1.4201
 7015TIP3   OH242679   0.712   0.517   6.709 -0.1334 -0.0580 -1.0115
 7015TIP3    H142680   0.772   0.561   6.769 -0.3223 -2.6283  1.2333
 7015TIP3    H242681   0.768   0.457   6.659 -0.5773 -1.7646  0.4213
 7016TIP3   OH242682   2.722   6.130   7.246  0.4011  0.2420 -0.0924
 7016TIP3    H142683   2.756   6.067   7.182 -0.9604  0.6164 -1.2509
 7016TIP3    H242684   2.716   6.080   7.327  1.8743 -0.3421 -0.3032
 7017TIP3   OH242685   1.179   1.151   8.115  0.1221 -0.2894  0.3055
 7017TIP3    H142686   1.130   1.111   8.186  1.5203 -2.4401  0.1488
 7017TIP3    H242687   1.112   1.176   8.051 -0.9860 -0.1458  1.4747
 7018TIP3   OH242688   1.022   6.362   1.480 -0.1818 -0.4949  0.6055
 7018TIP3    H142689   1.004   6.271   1.502 -0.8528 -0.5577 -0.1631
 7018TIP3    H242690   1.045   6.360   1.387 -1.0822  0.2157  0.3494
 7019TIP3   OH242691   3.139   4.369   0.726  0.0346 -0.0429  0.0411
 7019TIP3    H142692   3.081   4.409   0.660 -0.3998 -2.0007 -0.8416
 7019TIP3    H242693   3.227   4.376   0.687  0.1456  1.0899  0.4514
 7020TIP3   OH242694   2.151   2.382   8.544 -0.0851 -0.4928  0.4358
 7020TIP3    H142695   2.236   2.425   8.556  0.2190 -0.9234 -0.1243
 7020TIP3    H242696   2.087   2.447   8.574  0.4267 -0.0889  0.6780
 7021TIP3   OH242697   0.091   1.494   1.544  0.0884  0.1675 -0.0157
 7021TIP3    H142698   0.066   1.543   1.466 -0.9854 -1.2993 -0.6318
 7021TIP3    H242699   0.161   1.436   1.514  0.5318  0.4661  0.4235
 7022TIP3   OH242700   4.570   4.364   2.428  0.0118 -0.1493 -0.5484
 7022TIP3    H142701   4.515   4.441   2.444 -0.1517 -0.3353 -0.1808
 7022TIP3    H242702   4.655   4.388   2.465  0.0116 -0.0798 -0.5926
 7023TIP3   OH242703   3.321   2.052   1.514 -0.2514 -0.3379  0.1292
 7023TIP3    H142704   3.249   2.081   1.569  0.6157 -0.1159  1.1818
 7023TIP3    H242705   3.366   1.986   1.566  0.2260 -0.5675 -0.5675
 7024TIP3   OH242706   5.254   4.778   0.474  0.0246 -0.3357  0.1595
 7024TIP3    H142707   5.323   4.734   0.524 -0.2226  1.5060  2.2672
 7024TIP3    H242708   5.173   4.735   0.501 -0.1404  0.8441  1.6706
 7025TIP3   OH242709   5.293   2.521   7.232  0.2152 -0.9310 -0.2825
 7025TIP3    H142710   5.265   2.522   7.324  0.2026 -1.0611 -0.2850
 7025TIP3    H242711   5.219   2.557   7.184  0.3256 -0.6016 -0.2132
 7026TIP3   OH242712   0.918   5.039   7.072  0.6642 -0.1579  0.5108
 7026TIP3    H142713   0.889   5.007   6.986 -0.5895  0.8301  0.5278
 7026TIP3    H242714   0.893   5.131   7.072  0.5722 -0.1688  1.9794
 7027TIP3   OH242715   4.403   3.182   7.862 -1.1394 -0.2135  0.1994
 7027TIP3    H142716   4.354   3.182   7.780 -0.0801 -1.0431 -0.4739
 7027TIP3    H242717   4.345   3.141   7.925 -1.4328 -0.9188 -0.5079
 7028TIP3   OH242718   2.710   6.003   1.590 -0.4223  0.7291 -0.4966
 7028TIP3    H142719   2.616   5.997   1.606 -0.9209  2.9270 -2.0978
 7028TIP3    H242720   2.749   6.009   1.677 -1.7447 -0.2465  0.1922
 7029TIP3   OH242721   1.827   0.878   1.103  0.3051  0.5113  0.0478
 7029TIP3    H142722   1.919   0.857   1.118  0.3760  0.5056 -0.3687
 7029TIP3    H242723   1.825   0.974   1.099  0.1887  0.5366  0.6904
 7030TIP3   OH242724   3.171   4.228   6.021 -0.5781  0.3557 -0.0872
 7030TIP3    H142725   3.250   4.283   6.022  0.1181 -0.5996 -0.5965
 7030TIP3    H242726   3.202   4.143   5.990 -1.3847 -0.7426  1.9885
 7031TIP3   OH242727   5.716   0.492   7.243 -0.1102 -0.3253  0.3698
 7031TIP3    H142728   5.716   0.477   7.149  2.8131 -0.6065  0.3085
 7031TIP3    H242729   5.758   0.578   7.254 -0.1580 -0.4132  1.4177
 7032TIP3   OH242730   0.597   5.431   0.447 -0.3948  0.3734 -0.3581
 7032TIP3    H142731   0.503   5.416   0.437 -0.4875  0.8934 -0.2922
 7032TIP3    H242732   0.608   5.525   0.432  0.2369  0.1633 -1.2694
 7033TIP3   OH242733   3.313   6.307   0.738  0.4072 -0.6562 -0.3638
 7033TIP3    H142734   3.352   6.223   0.762 -0.4335 -0.8202  0.4571
 7033TIP3    H242735   3.219   6.292   0.739  0.1019  0.9138  2.3120
 7034TIP3   OH242736   1.005   3.355   1.845  0.0877  0.2904  0.1800
 7034TIP3    H142737   0.980   3.423   1.907  1.5467 -0.3940  1.5845
 7034TIP3    H242738   0.995   3.273   1.894 -2.7945 -0.7087 -1.8190
 7035TIP3   OH242739   1.201   4.523   0.801 -0.4280  0.4661 -0.5665
 7035TIP3    H142740   1.282   4.498   0.845 -0.7184 -0.3489 -0.4922
 7035TIP3    H242741   1.161   4.588   0.859  0.4531  1.3357 -0.8928
 7036TIP3   OH242742   4.620   1.575   6.651  0.0681  0.2362 -0.4441
 7036TIP3    H142743   4.693   1.555   6.710  0.7976 -1.0678 -1.7479
 7036TIP3    H242744   4.645   1.659   6.611  1.7705 -0.9939 -2.1596
 7037TIP3   OH242745   6.562   5.532   1.891  0.0766  0.0664  0.4899
 7037TIP3    H142746   6.561   5.548   1.985 -2.0933 -2.0016  0.9208
 7037TIP3    H242747   6.469   5.525   1.867  0.6073 -0.5185 -1.5919
 7038TIP3   OH242748   0.096   4.820   8.356 -0.7129 -0.2946  0.0374
 7038TIP3    H142749   0.163   4.810   8.423 -0.6793 -0.7057 -0.0596
 7038TIP3    H242750   0.036   4.747   8.370  0.0263 -1.1889 -1.2263
 7039TIP3   OH242751   1.455   1.847   6.975 -0.1930 -0.2141 -0.0761
 7039TIP3    H142752   1.479   1.833   7.067 -0.7957  1.6899  0.4056
 7039TIP3    H242753   1.528   1.899   6.939 -0.3602 -0.2348 -0.4493
 7040TIP3   OH242754   6.283   6.850   8.415 -0.7600  0.2478  0.1954
 7040TIP3    H142755   6.267   6.942   8.437 -0.3231  0.7182 -1.2856
 7040TIP3    H242756   6.203   6.804   8.442 -0.6924  0.9298  1.6179
 7041TIP3   OH242757   1.838   6.232   1.296  0.1091 -0.4789  0.3786
 7041TIP3    H142758   1.930   6.259   1.290 -0.6420  2.2706  0.0057
 7041TIP3    H242759   1.816   6.245   1.388 -0.5229  1.3284  0.0147
 7042TIP3   OH242760   5.070   4.048   7.803 -0.3196 -0.1162  0.4549
 7042TIP3    H142761   5.023   4.131   7.801 -1.4266 -0.7130  0.7893
 7042TIP3    H242762   5.012   3.987   7.757  0.0068 -0.9318  1.1082
 7043TIP3   OH242763   3.968   3.248   1.029  0.1626 -0.4571  0.6404
 7043TIP3    H142764   3.987   3.305   0.954  1.7534 -1.2268  0.4005
 7043TIP3    H242765   3.918   3.175   0.992  0.1530 -0.3773  0.4974
 7044TIP3   OH242766   6.224   5.266   8.133 -0.0397  0.2995 -0.3394
 7044TIP3    H142767   6.267   5.307   8.207 -1.1425  1.8296 -0.5075
 7044TIP3    H242768   6.238   5.172   8.146 -0.2111  0.5300  1.8043
 7045TIP3   OH242769   0.956   2.059   0.522 -0.3445  0.1813 -1.0981
 7045TIP3    H142770   0.912   1.976   0.538 -0.1947  0.0773 -1.2204
 7045TIP3    H242771   0.895   2.125   0.554  0.0445 -0.0262  0.0967
 7046TIP3   OH242772   4.627   2.092   1.327  0.4051  0.0143  0.2018
 7046TIP3    H142773   4.709   2.112   1.282  0.4023 -0.3041  0.0539
 7046TIP3    H242774   4.638   2.002   1.358 -0.6611 -0.7785 -1.5845
 7047TIP3   OH242775   5.614   5.393   8.350  0.4131 -0.6525 -0.4782
 7047TIP3    H142776   5.652   5.430   8.430 -0.5430 -1.6608  0.4725
 7047TIP3    H242777   5.650   5.447   8.279  0.7852  0.6616  0.6721
 7048TIP3   OH242778   1.163   1.665   6.379  0.2089 -0.7906 -0.8402
 7048TIP3    H142779   1.109   1.735   6.341  1.2195  0.0626 -0.7624
 7048TIP3    H242780   1.147   1.589   6.324  0.2143 -0.0818 -1.8450
 7049TIP3   OH242781   6.487   1.625   7.557 -0.5306 -0.2701  0.4304
 7049TIP3    H142782   6.540   1.546   7.565  1.1800  0.5740 -1.6138
 7049TIP3    H242783   6.545   1.695   7.588 -1.2389  0.4416  0.1667
 7050TIP3   OH242784   4.337   4.403   1.183 -0.3508 -0.3293  0.2339
 7050TIP3    H142785   4.294   4.486   1.164 -3.2351 -1.3015  1.7727
 7050TIP3    H242786   4.333   4.355   1.100 -0.0299  0.5132 -0.2803
 7051TIP3   OH242787   5.920   0.104   1.180 -0.2897 -0.3801  0.1040
 7051TIP3    H142788   5.872   0.183   1.206 -3.1182 -1.9993  0.1852
 7051TIP3    H242789   5.886   0.083   1.092  0.0602 -1.7468  0.2728
 7052TIP3   OH242790   0.180   3.568   0.394 -0.1705 -0.7133 -0.3291
 7052TIP3    H142791   0.191   3.555   0.300 -0.5379  0.3027 -0.5254
 7052TIP3    H242792   0.089   3.545   0.411 -0.2720 -0.3266 -0.3350
 7053TIP3   OH242793   6.651   6.252   0.566 -0.1727  0.1729  0.5129
 7053TIP3    H142794   6.606   6.197   0.502 -0.8722  0.2433  0.9412
 7053TIP3    H242795   6.668   6.194   0.640 -1.8259  0.7433  1.3963
 7054TIP3   OH242796   6.695   0.983   1.316  0.2450 -0.0060  0.6152
 7054TIP3    H142797   6.632   0.933   1.368  1.3010 -0.3320  1.6359
 7054TIP3    H242798   6.759   0.918   1.288  1.5591  0.7047  1.8300
 7055TIP3   OH242799   5.323   0.663   6.604  0.7087 -0.4879  0.0768
 7055TIP3    H142800   5.413   0.695   6.602  0.4036  0.4648  0.4950
 7055TIP3    H242801   5.330   0.570   6.586  1.9223 -0.7220  1.5615
 7056TIP3   OH242802   0.481   6.698   0.466  0.8725 -0.1032 -0.7234
 7056TIP3    H142803   0.559   6.641   0.467  0.9717 -0.0153 -2.0869
 7056TIP3    H242804   0.503   6.768   0.404 -0.2237  0.0215 -0.9939
 7057TIP3   OH242805   2.955   1.863   1.785  0.2866  0.2788 -0.1823
 7057TIP3    H142806   2.943   1.870   1.880 -0.2424  1.5817 -0.3223
 7057TIP3    H242807   3.012   1.787   1.773  2.2088  1.3922  1.3297
 7058TIP3   OH242808   3.314   0.960   1.477 -0.0294 -0.1819 -0.4006
 7058TIP3    H142809   3.380   1.019   1.516 -0.6021 -0.3693  0.8922
 7058TIP3    H242810   3.237   0.972   1.531 -1.3881  0.6812 -2.4063
 7059TIP3   OH242811   4.175   6.050   1.418 -0.2977 -0.3639  0.1146
 7059TIP3    H142812   4.083   6.063   1.444 -0.9830 -1.2581 -1.6809
 7059TIP3    H242813   4.190   6.117   1.351 -0.1680 -1.2495 -0.7615
 7060TIP3   OH242814   2.102   4.917   1.155 -0.0846 -0.3795  0.4029
 7060TIP3    H142815   2.011   4.946   1.150  0.0306 -0.1809 -0.8249
 7060TIP3    H242816   2.133   4.921   1.065  0.2141 -3.3862  0.2666
 7061TIP3   OH242817   5.394   6.396   1.214 -0.2691  0.6147 -0.1043
 7061TIP3    H142818   5.357   6.432   1.134  0.3964  2.1540  0.2484
 7061TIP3    H242819   5.360   6.306   1.218  0.6909  0.0450 -2.7491
 7062TIP3   OH242820   5.989   3.700   2.371 -0.4983 -0.5329 -0.0482
 7062TIP3    H142821   6.044   3.663   2.440  0.6866  1.7519  0.3450
 7062TIP3    H242822   5.924   3.753   2.418 -0.7467 -0.3078 -0.6313
 7063TIP3   OH242823   3.366   3.533   8.084 -0.4367 -0.7319 -0.0035
 7063TIP3    H142824   3.338   3.614   8.128 -1.1505 -1.3182  0.6365
 7063TIP3    H242825   3.411   3.564   8.005 -2.7021  0.2597 -0.9802
 7064TIP3   OH242826   0.793   4.773   0.508 -0.3104 -0.0713 -0.2772
 7064TIP3    H142827   0.763   4.683   0.516 -0.9788  0.2187  0.7397
 7064TIP3    H242828   0.822   4.781   0.417 -0.1630 -1.3233 -0.3626
 7065TIP3   OH242829   0.337   2.145   7.184 -0.1490  0.1752 -0.0379
 7065TIP3    H142830   0.263   2.136   7.124  0.3035 -0.8913 -0.4652
 7065TIP3    H242831   0.347   2.240   7.195 -1.0905  0.3545 -0.5708
 7066TIP3   OH242832   5.856   1.654   6.841  0.4902 -0.3038 -0.0651
 7066TIP3    H142833   5.873   1.615   6.755  2.0918 -1.2213  0.6273
 7066TIP3    H242834   5.886   1.744   6.833  0.1316 -0.2298 -0.6214
 7067TIP3   OH242835   4.512   1.557   1.674  0.0908 -0.0441 -0.1793
 7067TIP3    H142836   4.443   1.611   1.713  1.1145  1.6877 -0.6791
 7067TIP3    H242837   4.577   1.548   1.744  0.6038  0.6312 -0.5670
 7068TIP3   OH242838   0.463   4.599   7.677 -0.4584 -0.2096 -0.5750
 7068TIP3    H142839   0.394   4.566   7.619 -0.8955 -0.2121 -0.0648
 7068TIP3    H242840   0.420   4.606   7.762  0.5012 -1.3988  0.0271
 7069TIP3   OH242841   1.745   0.540   8.472 -0.1931  0.3395 -0.6582
 7069TIP3    H142842   1.691   0.558   8.395 -1.1288  0.6595  0.0472
 7069TIP3    H242843   1.799   0.465   8.447 -1.8680 -0.8161 -0.9826
 7070TIP3   OH242844   2.326   1.661   5.835  0.1231 -0.4271  0.5002
 7070TIP3    H142845   2.284   1.703   5.910  0.3285 -0.5134  0.6629
 7070TIP3    H242846   2.338   1.571   5.862  1.2396 -0.1970  0.8012
 7071TIP3   OH242847   3.629   3.534   8.208  0.1289  0.2043  0.2158
 7071TIP3    H142848   3.533   3.533   8.204  0.1054  1.8532 -0.1012
 7071TIP3    H242849   3.651   3.451   8.251 -1.4083 -0.3829 -0.0396
 7072TIP3   OH242850   4.325   0.613   1.679  0.1780  0.2184 -0.0982
 7072TIP3    H142851   4.232   0.592   1.693  0.7742 -0.1918  5.1784
 7072TIP3    H242852   4.368   0.528   1.674  0.4579  0.4207 -1.9638
 7073TIP3   OH242853   2.858   3.049   7.496  0.2458 -0.2259  0.6629
 7073TIP3    H142854   2.890   3.046   7.406 -1.6649 -0.9609 -0.0507
 7073TIP3    H242855   2.802   3.127   7.497 -0.0982 -0.4805  1.0829
 7074TIP3   OH242856   4.417   2.605   6.267 -0.3206  0.0634 -0.4538
 7074TIP3    H142857   4.390   2.649   6.186  0.6584 -0.2675 -0.9687
 7074TIP3    H242858   4.467   2.529   6.238  0.2986  0.1034  0.4693
 7075TIP3   OH242859   5.739   4.066   0.701  0.3320  0.1736  0.3795
 7075TIP3    H142860   5.772   4.039   0.615 -1.8721  0.6056 -0.6831
 7075TIP3    H242861   5.644   4.071   0.689  0.0246  0.8260  2.6995
 7076TIP3   OH242862   2.800   3.895   7.733  0.0936 -0.0276 -0.1725
 7076TIP3    H142863   2.877   3.883   7.790 -0.0101 -0.0477 -0.0370
 7076TIP3    H242864   2.748   3.962   7.777 -0.5526 -0.8591  0.3432
 7077TIP3   OH242865   3.980   4.657   6.492  0.2358 -0.3246 -0.2697
 7077TIP3    H142866   3.924   4.733   6.510 -0.8343 -1.1081 -0.2012
 7077TIP3    H242867   3.977   4.647   6.397 -0.2534 -0.7474 -0.2103
 7078TIP3   OH242868   1.626   3.479   0.525 -0.7641 -0.1967 -0.2866
 7078TIP3    H142869   1.535   3.485   0.556 -1.0345  0.8016 -1.2418
 7078TIP3    H242870   1.650   3.569   0.503  0.8624 -0.2611  1.0374
 7079TIP3   OH242871   2.484   0.022   7.240 -0.3854  0.2710 -0.5874
 7079TIP3    H142872   2.446  -0.059   7.206 -1.2335  0.8459 -1.0219
 7079TIP3    H242873   2.560  -0.007   7.291  0.3634 -0.6675 -2.1760
 7080TIP3   OH242874   2.599   5.706   7.763  0.4810  0.2570  0.0873
 7080TIP3    H142875   2.693   5.721   7.756  0.9651 -2.4436 -0.2888
 7080TIP3    H242876   2.587   5.615   7.737 -2.0430  0.0430  1.6228
 7081TIP3   OH242877   2.927   1.689   1.045 -0.4494 -0.7648  0.7637
 7081TIP3    H142878   2.917   1.594   1.034 -1.5016 -0.6589  0.7040
 7081TIP3    H242879   3.017   1.700   1.076  0.1109 -1.6808 -0.4304
 7082TIP3   OH242880   6.791   5.641   1.822  0.1514  0.4737  0.2467
 7082TIP3    H142881   6.817   5.594   1.743 -0.3630 -0.1112  0.4195
 7082TIP3    H242882   6.713   5.595   1.853  0.2616  0.7883  1.0179
 7083TIP3   OH242883   1.401   5.591   0.582  0.2949  0.5132 -0.1877
 7083TIP3    H142884   1.319   5.565   0.624  0.6776 -0.9070 -0.2799
 7083TIP3    H242885   1.376   5.612   0.492 -0.0636  0.7286 -0.0408
 7084TIP3   OH242886   3.265   2.277   0.948 -0.1722 -0.4179  0.3281
 7084TIP3    H142887   3.345   2.325   0.968 -0.4910  0.1106  0.3462
 7084TIP3    H242888   3.269   2.200   1.005 -0.3836  0.3430  1.3995
 7085TIP3   OH242889   6.814   0.009   6.242  0.4099 -0.1138  0.0623
 7085TIP3    H142890   6.774   0.063   6.174  3.1861  1.4748 -0.4520
 7085TIP3    H242891   6.787   0.050   6.324  0.5613  0.6239 -0.2507
 7086TIP3   OH242892   3.123   1.649   1.874  0.8056  0.1884 -0.2079
 7086TIP3    H142893   3.164   1.725   1.914  1.4791  1.0581 -2.4466
 7086TIP3    H242894   3.151   1.575   1.929  1.9292  1.2706  0.7303
 7087TIP3   OH242895   6.105   2.489   8.090 -0.1002 -0.3463 -0.3002
 7087TIP3    H142896   6.033   2.537   8.131 -0.9333 -1.1883 -0.7428
 7087TIP3    H242897   6.101   2.401   8.129  2.3595  0.2728  1.6680
 7088TIP3   OH242898   1.562   4.563   8.255 -0.7914 -0.2964  0.3064
 7088TIP3    H142899   1.603   4.528   8.176  1.0905  0.0577  1.0694
 7088TIP3    H242900   1.491   4.502   8.274 -1.4204 -0.2727 -1.7427
 7089TIP3   OH242901   1.566   4.211   8.459  0.3058  0.4426  0.4021
 7089TIP3    H142902   1.585   4.234   8.550  2.6943 -1.2939  0.4435
 7089TIP3    H242903   1.500   4.275   8.431 -0.2471  1.2413  3.2119
 7090TIP3   OH242904   6.193   4.937   0.400 -0.4404  0.3191 -0.4884
 7090TIP3    H142905   6.177   4.893   0.484  1.5197 -1.2469 -0.8601
 7090TIP3    H242906   6.154   5.024   0.411 -2.2220 -0.5970  1.2150
 7091TIP3   OH242907   6.138   3.769   6.427 -0.1727  0.5677  0.0243
 7091TIP3    H142908   6.147   3.851   6.379 -0.0933 -0.4397 -1.7621
 7091TIP3    H242909   6.059   3.729   6.391  1.1079 -1.2436 -0.8765
 7092TIP3   OH242910   1.731   0.539   0.366  1.2355  0.1938 -0.2106
 7092TIP3    H142911   1.773   0.484   0.300  0.5327  0.1882 -0.6553
 7092TIP3    H242912   1.637   0.527   0.352  0.9695 -1.6797  2.2648
 7093TIP3   OH242913   1.425   3.799   1.700 -0.1318  0.1937 -0.1916
 7093TIP3    H142914   1.428   3.801   1.796 -1.6945 -0.8108 -0.0898
 7093TIP3    H242915   1.505   3.844   1.673  1.5597 -1.5262  1.5972
 7094TIP3   OH242916   1.430   1.987   0.703 -0.3040  0.1017 -0.0174
 7094TIP3    H142917   1.474   1.970   0.620 -0.0764  0.8755 -0.0640
 7094TIP3    H242918   1.443   1.907   0.754  1.9541  0.6157  0.3134
 7095TIP3   OH242919   4.426   1.634   6.454 -0.2003 -0.4895  0.3887
 7095TIP3    H142920   4.335   1.629   6.482 -0.3929 -0.0699 -0.1317
 7095TIP3    H242921   4.475   1.588   6.522 -0.4795  1.7478  2.2413
 7096TIP3   OH242922   0.491   2.354   0.359  0.0778  0.6859 -0.4308
 7096TIP3    H142923   0.454   2.425   0.411 -0.0233 -0.1387  0.6638
 7096TIP3    H242924   0.582   2.348   0.388 -0.8388 -2.1208  2.4396
 7097TIP3   OH242925   0.765   2.765   7.863  0.1551  0.2117 -0.4121
 7097TIP3    H142926   0.720   2.760   7.947 -0.9231  0.5865 -0.9441
 7097TIP3    H242927   0.726   2.841   7.819 -0.7182 -1.0729 -2.0127
 7098TIP3   OH242928   5.477   4.488   8.453 -0.3587 -0.1867  0.1776
 7098TIP3    H142929   5.430   4.454   8.529 -0.5854 -1.0804 -0.3520
 7098TIP3    H242930   5.569   4.492   8.481 -0.5012 -0.0804  0.6406
 7099TIP3   OH242931   6.325   5.589   8.170 -0.0943 -0.1715  0.3695
 7099TIP3    H142932   6.323   5.683   8.191 -0.3207 -0.2213  0.5737
 7099TIP3    H242933   6.405   5.578   8.119 -1.0604  0.5182 -1.3845
 7100TIP3   OH242934   2.054   5.349   1.399  0.3872 -0.3404  0.1129
 7100TIP3    H142935   2.123   5.408   1.429 -1.4074  0.6864  2.5788
 7100TIP3    H242936   2.034   5.296   1.476 -2.3574  0.2361 -0.1212
 7101TIP3   OH242937   6.188   4.526   8.054 -0.4343  0.3471  0.1795
 7101TIP3    H142938   6.160   4.541   8.144 -0.9541  0.2940  0.0305
 7101TIP3    H242939   6.107   4.523   8.003 -0.1702 -0.0069 -0.2338
 7102TIP3   OH242940   4.564   3.517   7.831 -0.3575 -0.5646  0.3681
 7102TIP3    H142941   4.580   3.599   7.785 -0.4283 -0.6973  0.1054
 7102TIP3    H242942   4.515   3.463   7.769 -0.7655 -0.6164  0.7227
 7103TIP3   OH242943   6.489   1.955   7.252  0.1128 -0.2003 -0.0565
 7103TIP3    H142944   6.439   2.011   7.312 -0.1912 -1.1371  0.5920
 7103TIP3    H242945   6.481   1.998   7.167  1.3502  1.6836  0.7107
 7104TIP3   OH242946   0.617   1.480   6.884 -0.0437 -0.2764  0.1020
 7104TIP3    H142947   0.547   1.539   6.855 -1.6659 -1.7263  0.8452
 7104TIP3    H242948   0.697   1.517   6.846 -0.7099  3.1748  1.6532
 7105TIP3   OH242949   2.731   5.715   7.238  0.3418  0.2631 -0.3498
 7105TIP3    H142950   2.787   5.726   7.161  0.4352  0.0501 -0.3123
 7105TIP3    H242951   2.711   5.622   7.241 -1.6932  0.5916 -1.5311
 7106TIP3   OH242952   6.197   4.316   1.081  0.2440 -0.1217 -0.0954
 7106TIP3    H142953   6.120   4.372   1.088 -0.3553 -0.9954  0.3794
 7106TIP3    H242954   6.260   4.369   1.032 -0.3153  0.9594  0.3250
 7107TIP3   OH242955   5.737   4.982   7.002  0.2463 -0.2334  0.0141
 7107TIP3    H142956   5.653   4.937   7.011 -0.5362  1.4057  1.6091
 7107TIP3    H242957   5.720   5.053   6.940  0.1273  0.7453  1.1340
 7108TIP3   OH242958   1.599   5.101   7.519  0.0080  0.4802 -0.5117
 7108TIP3    H142959   1.604   5.112   7.424  1.2325  2.3014 -0.2922
 7108TIP3    H242960   1.688   5.079   7.545 -0.1493  0.7605  0.2802
 7109TIP3   OH242961   0.376   6.273   6.861 -0.2937 -0.1003 -0.0967
 7109TIP3    H142962   0.332   6.287   6.777  1.1119 -0.3979 -0.9161
 7109TIP3    H242963   0.316   6.308   6.926 -2.1458 -1.2909 -1.0756
 7110TIP3   OH242964   2.877   2.313   0.128 -0.0415  0.1405 -0.0099
 7110TIP3    H142965   2.925   2.371   0.187 -1.7379 -0.7226  2.4116
 7110TIP3    H242966   2.840   2.371   0.061  0.5232  1.4611  0.7867
 7111TIP3   OH242967   2.553   1.052   8.000  0.1645 -0.6754 -0.3601
 7111TIP3    H142968   2.608   0.975   7.989 -1.0933 -1.3652 -2.3136
 7111TIP3    H242969   2.483   1.024   8.058  0.1060 -0.7928 -0.4864
 7112TIP3   OH242970   5.808   4.777   8.131 -0.1957 -0.2527  0.1894
 7112TIP3    H142971   5.819   4.687   8.161 -0.0905 -0.0732  0.7000
 7112TIP3    H242972   5.721   4.802   8.162  0.6543  0.5684  2.0519
 7113TIP3   OH242973   3.137   1.920   0.950 -0.1172  0.0580  0.0879
 7113TIP3    H142974   3.062   1.963   0.992 -2.1551 -1.3877 -1.8070
 7113TIP3    H242975   3.169   1.985   0.887  0.0002  0.5641  0.6660
 7114TIP3   OH242976   4.631   6.490   0.106  0.1407  0.2347  0.1474
 7114TIP3    H142977   4.540   6.472   0.083  0.4856 -2.0194  0.3378
 7114TIP3    H242978   4.640   6.585   0.095 -1.8192  0.3206 -1.2943
 7115TIP3   OH242979   5.850   3.457   1.164 -0.1037  0.9327  0.6558
 7115TIP3    H142980   5.852   3.466   1.069  0.5257  2.0753  0.7625
 7115TIP3    H242981   5.856   3.363   1.179  1.4467  0.8146 -0.4159
 7116TIP3   OH242982   0.041   3.109   8.449 -0.4279 -0.1899  0.1854
 7116TIP3    H142983  -0.026   3.054   8.407 -0.1262  1.3849 -2.6470
 7116TIP3    H242984   0.106   3.047   8.483 -0.6151 -1.6744 -1.9738
 7117TIP3   OH242985   2.048   6.026   6.989  0.4385 -0.3834 -0.3491
 7117TIP3    H142986   2.054   5.942   7.034  0.0396  0.3484  1.1131
 7117TIP3    H242987   1.954   6.038   6.971  0.2028  0.7084  1.3980
 7118TIP3   OH242988   5.267   3.990   1.565 -0.3368  0.3238  0.8047
 7118TIP3    H142989   5.304   4.017   1.649  1.7936  0.4255 -0.1038
 7118TIP3    H242990   5.226   3.905   1.583  0.6013  0.0664  1.8383
 7119TIP3   OH242991   3.906   3.122   6.174 -0.1068  0.8854  0.3320
 7119TIP3    H142992   3.906   3.160   6.262 -1.9957  1.4985  0.1120
 7119TIP3    H242993   3.998   3.116   6.150  0.3683  3.9307  1.0155
 7120TIP3   OH242994   5.031   3.040   7.464 -0.4847  0.0092 -0.1048
 7120TIP3    H142995   5.016   3.023   7.557 -0.2397 -0.3969 -0.1371
 7120TIP3    H242996   5.003   2.960   7.420 -1.8184  0.6592 -0.5093
 7121TIP3   OH242997   4.747   5.161   7.225 -0.1561 -0.4249  0.2018
 7121TIP3    H142998   4.758   5.157   7.130 -0.2777  2.0890  0.0204
 7121TIP3    H242999   4.750   5.255   7.245 -0.9364 -0.8633  2.5922
 7122TIP3   OH243000   6.069   1.534   2.088  0.2420  0.1350  0.4129
 7122TIP3    H143001   6.124   1.460   2.062  0.3488  0.9229 -1.8058
 7122TIP3    H243002   6.039   1.512   2.176  4.0518 -0.3560  1.7880
 7123TIP3   OH243003   2.010   3.237   1.927  0.1315 -0.0461 -0.0534
 7123TIP3    H143004   1.986   3.276   1.842 -0.1216  1.5255  0.6986
 7123TIP3    H243005   1.934   3.184   1.952 -0.7120  1.2343  0.1817
 7124TIP3   OH243006   5.441   5.577   6.260  0.1827 -0.4303 -0.3629
 7124TIP3    H143007   5.416   5.668   6.243 -0.0638 -0.3497  0.3977
 7124TIP3    H243008   5.367   5.541   6.309  0.0773 -1.1803 -1.0460
 7125TIP3   OH243009   2.563   3.611   0.963 -0.0062  0.2797 -0.5535
 7125TIP3    H143010   2.529   3.542   1.020 -1.7671  2.6700  1.5314
 7125TIP3    H243011   2.503   3.612   0.888  0.9573 -1.3595 -1.4206
 7126TIP3   OH243012   6.164   0.540   8.557 -0.0797  0.3005  0.1561
 7126TIP3    H143013   6.154   0.588   8.475 -0.0041 -0.7137 -0.4676
 7126TIP3    H243014   6.143   0.603   8.625 -1.0363  0.9225 -0.6870
 7127TIP3   OH243015   3.223   1.699   7.672  0.3034 -0.1290  0.2203
 7127TIP3    H143016   3.227   1.729   7.581  3.0608  2.4372  1.0239
 7127TIP3    H243017   3.167   1.763   7.715  1.6390  0.6401  0.8802
 7128TIP3   OH243018   1.155   2.453   5.942 -0.1319  0.1549 -0.2649
 7128TIP3    H143019   1.101   2.443   5.864  2.2686  0.4596 -2.0570
 7128TIP3    H243020   1.102   2.415   6.013 -2.9728  1.1274 -1.7081
 7129TIP3   OH243021   4.405   1.229   6.802  0.1940 -0.4094  0.3151
 7129TIP3    H143022   4.409   1.191   6.714  0.6188 -1.5449  0.8005
 7129TIP3    H243023   4.311   1.237   6.821  0.0887 -1.2569  0.1985
 7130TIP3   OH243024   3.470   1.244   2.225 -0.0256 -0.4434  0.8426
 7130TIP3    H143025   3.445   1.335   2.243 -2.3217 -0.5269 -1.3359
 7130TIP3    H243026   3.552   1.251   2.176  0.0767  0.4346  1.1266
 7131TIP3   OH243027   6.174   3.651   0.520  0.1386 -0.5884 -0.1241
 7131TIP3    H143028   6.246   3.712   0.539  0.5178 -1.1563  0.3473
 7131TIP3    H243029   6.218   3.576   0.480 -0.1570 -1.0382  0.3858
 7132TIP3   OH243030   5.330   1.698   1.857 -0.8562  0.4855  0.1791
 7132TIP3    H143031   5.410   1.665   1.898 -1.3076 -0.8522  0.0283
 7132TIP3    H243032   5.334   1.666   1.767 -1.3318  0.8103  0.0356
 7133TIP3   OH243033   0.243   4.131   8.378 -0.2860 -0.2006  0.0082
 7133TIP3    H143034   0.310   4.070   8.345 -1.1660  1.1799 -5.3037
 7133TIP3    H243035   0.287   4.216   8.378 -1.1408  0.2516 -0.4694
 7134TIP3   OH243036   1.253   4.238   8.091 -0.3200  0.3041 -0.0999
 7134TIP3    H143037   1.346   4.237   8.111 -0.4722  1.4877  0.8353
 7134TIP3    H243038   1.213   4.280   8.168 -1.4916  0.7548 -0.9258
 7135TIP3   OH243039   5.370   2.143   8.017  0.8246 -0.4378  0.3661
 7135TIP3    H143040   5.300   2.112   7.961  0.4926 -1.7672  1.4841
 7135TIP3    H243041   5.386   2.233   7.987 -0.7623 -0.3938 -0.4603
 7136TIP3   OH243042   5.673   5.176   6.797 -0.0428  0.3982  0.1711
 7136TIP3    H143043   5.647   5.268   6.794 -0.2322  0.3242 -0.4706
 7136TIP3    H243044   5.628   5.136   6.723  0.3628 -0.1295  0.2101
 7137TIP3   OH243045   0.125   0.667   6.726  0.1644 -0.1339  0.4422
 7137TIP3    H143046   0.047   0.695   6.772  0.6692  0.2891  1.0606
 7137TIP3    H243047   0.194   0.725   6.758  0.5498  0.1204 -0.7866
 7138TIP3   OH243048   0.320   5.395   1.733 -0.0545  0.0598  0.2160
 7138TIP3    H143049   0.360   5.479   1.710 -0.6170  0.7655  1.6982
 7138TIP3    H243050   0.343   5.381   1.825  1.4804 -2.2823 -0.4327
 7139TIP3   OH243051   1.890   6.601   1.422 -0.9170  0.4666 -0.4754
 7139TIP3    H143052   1.808   6.648   1.415 -0.9940  0.1735 -2.0549
 7139TIP3    H243053   1.870   6.525   1.477 -1.3816  1.0080  0.1170
 7140TIP3   OH243054   6.661   3.769   6.597  0.1674  1.0322 -0.2064
 7140TIP3    H143055   6.745   3.814   6.595  0.5429  0.4014 -2.5827
 7140TIP3    H243056   6.597   3.836   6.622  0.8934  2.5866 -2.2221
 7141TIP3   OH243057   5.505   6.037   6.638  0.2608  0.4626 -0.4304
 7141TIP3    H143058   5.467   5.986   6.566 -0.9923  0.5869  0.1189
 7141TIP3    H243059   5.479   5.990   6.717  2.2958 -0.1134 -0.0532
 7142TIP3   OH243060   0.017   6.081   8.620  0.1628  0.1312 -0.3469
 7142TIP3    H143061  -0.035   6.159   8.599  0.8240  1.1138  1.4899
 7142TIP3    H243062  -0.048   6.012   8.631 -0.7668  1.1980  1.2830
 7143TIP3   OH243063   3.058   5.456   7.849 -0.2363 -0.3084 -0.5010
 7143TIP3    H143064   3.095   5.530   7.898  0.3908  0.9396 -2.6980
 7143TIP3    H243065   3.064   5.382   7.909 -0.2754  1.2676  1.5694
 7144TIP3   OH243066   1.851   1.679   0.695 -0.4554  0.7457 -0.1541
 7144TIP3    H143067   1.861   1.680   0.600 -2.7190 -2.4396 -0.6038
 7144TIP3    H243068   1.792   1.753   0.713 -1.3165  0.4416 -1.4935
 7145TIP3   OH243069   1.234   2.379   1.722 -0.2539  0.3082 -0.1240
 7145TIP3    H143070   1.183   2.362   1.802  1.0226 -2.8725  0.1510
 7145TIP3    H243071   1.192   2.326   1.655 -0.1327  1.4357 -1.1279
 7146TIP3   OH243072   5.785   6.096   8.544  0.3126  0.1093 -0.1770
 7146TIP3    H143073   5.778   6.064   8.454  0.1215  0.4416 -0.2829
 7146TIP3    H243074   5.841   6.173   8.538  0.9165 -0.3028  0.1047
 7147TIP3   OH243075   4.216   1.399   8.241 -0.6395 -0.0945  0.3276
 7147TIP3    H143076   4.247   1.413   8.151  1.2890  1.3284  1.1326
 7147TIP3    H243077   4.198   1.305   8.246  2.6384 -0.9192 -0.6220
 7148TIP3   OH243078   3.982   0.871   1.841  0.1008  0.3877  0.2807
 7148TIP3    H143079   4.032   0.790   1.848  0.7021  0.7893  0.6853
 7148TIP3    H243080   3.899   0.851   1.886  0.3069  0.0440  0.5165
 7149TIP3   OH243081   5.935   6.743   0.686 -0.4060 -0.0194  0.0616
 7149TIP3    H143082   6.008   6.730   0.626 -0.4452 -1.3530  0.2624
 7149TIP3    H243083   5.954   6.825   0.731  0.4245  0.1825 -0.6335
 7150TIP3   OH243084   4.820   0.633   8.223 -0.3877 -0.5104  0.1824
 7150TIP3    H143085   4.912   0.625   8.199 -0.8138 -0.7641 -1.5222
 7150TIP3    H243086   4.778   0.558   8.181 -1.3396 -0.5861  1.2072
 7151TIP3   OH243087   1.545   2.452   8.001  0.5239  0.6945  0.5449
 7151TIP3    H143088   1.511   2.525   7.950 -2.3560  0.9104  2.5486
 7151TIP3    H243089   1.588   2.396   7.936 -0.2885  2.3951 -1.5912
 7152TIP3   OH243090   5.018   5.116   1.131  0.1545 -0.4515 -0.0374
 7152TIP3    H143091   5.004   5.200   1.174  2.1093  0.0692 -0.3448
 7152TIP3    H243092   5.103   5.086   1.163  0.1196 -1.6508 -0.9906
 7153TIP3   OH243093   1.942   5.534   7.831 -0.4495 -0.4689  0.6312
 7153TIP3    H143094   1.898   5.450   7.844 -1.9962  0.0725 -0.7282
 7153TIP3    H243095   1.871   5.598   7.829  0.4295  0.5350 -0.9353
 7154TIP3   OH243096   6.333   3.370   1.602  0.3551  0.0711 -0.3019
 7154TIP3    H143097   6.388   3.293   1.613 -0.2773 -0.3172  0.2092
 7154TIP3    H243098   6.265   3.343   1.540 -0.6023 -0.2180  0.8134
 7155TIP3   OH243099   1.274   2.326   6.508 -0.4491 -0.4014  0.7571
 7155TIP3    H143100   1.210   2.259   6.530 -0.2529 -2.6837 -4.3094
 7155TIP3    H243101   1.359   2.284   6.523 -0.2366  0.1838  1.2332
 7156TIP3   OH243102   5.425   0.750   8.187 -0.0371 -0.3455  1.2906
 7156TIP3    H143103   5.417   0.679   8.124 -0.1279 -0.4929  1.4662
 7156TIP3    H243104   5.480   0.815   8.144 -1.5258  0.3364  0.3718
 7157TIP3   OH243105   4.123   1.579   0.853 -0.2698 -0.4546 -0.5993
 7157TIP3    H143106   4.163   1.523   0.786 -3.4366 -2.5425 -0.9670
 7157TIP3    H243107   4.049   1.619   0.809 -0.9496  0.1361  1.0024
 7158TIP3   OH243108   4.991   3.717   2.059 -0.1495  0.7310  0.4161
 7158TIP3    H143109   5.065   3.695   2.002 -2.6471  0.1760 -2.9185
 7158TIP3    H243110   4.987   3.645   2.122  1.9022  0.6241  0.4967
 7159TIP3   OH243111   6.424   3.235   6.364  0.6956 -0.0062 -0.1012
 7159TIP3    H143112   6.371   3.236   6.444  2.1757  0.0971  0.9295
 7159TIP3    H243113   6.474   3.317   6.368 -0.2695  0.7288 -1.9187
 7160TIP3   OH243114   4.474   3.685   0.703 -0.1246  0.3404  0.3391
 7160TIP3    H143115   4.499   3.671   0.794 -3.1242  2.4022  1.6247
 7160TIP3    H243116   4.421   3.609   0.680 -1.2336  0.8449  1.1390
 7161TIP3   OH243117   1.838   6.056   7.861  0.3218  0.2168 -0.2562
 7161TIP3    H143118   1.908   6.119   7.843 -0.8445  1.4733 -0.6035
 7161TIP3    H243119   1.777   6.104   7.918  0.9196 -1.6514  2.1667
 7162TIP3   OH243120   3.849   6.638   6.528 -0.0146 -0.1797  0.3096
 7162TIP3    H143121   3.863   6.588   6.448 -0.4491 -1.4053  0.9690
 7162TIP3    H243122   3.769   6.602   6.566  0.8315 -0.4807  1.9144
 7163TIP3   OH243123   2.415   6.368   1.407 -0.8864 -0.2674 -0.0590
 7163TIP3    H143124   2.399   6.412   1.490  1.6113  0.1643  0.2768
 7163TIP3    H243125   2.391   6.277   1.424 -0.7367 -0.1232  1.0330
 7164TIP3   OH243126   6.561   1.254   1.312  0.1906  0.1505  0.3617
 7164TIP3    H143127   6.592   1.164   1.323 -2.1677 -0.9708 -1.2649
 7164TIP3    H243128   6.619   1.291   1.246 -0.4757 -1.1469 -1.0015
 7165TIP3   OH243129   0.942   2.469   6.494  0.3377  0.2137  0.4801
 7165TIP3    H143130   0.973   2.559   6.505  1.8167 -0.1595 -0.4088
 7165TIP3    H243131   0.990   2.436   6.418  1.9775 -2.2132  2.3946
 7166TIP3   OH243132   4.551   5.636   7.971 -0.1167 -0.0540  0.7240
 7166TIP3    H143133   4.620   5.691   7.932 -1.8136  1.2501 -0.5763
 7166TIP3    H243134   4.558   5.653   8.065 -0.0806  1.8254  0.4322
 7167TIP3   OH243135   6.057   4.397   0.623  0.6518  0.4211  0.5632
 7167TIP3    H143136   5.961   4.391   0.614  0.7899 -1.1570 -0.1260
 7167TIP3    H243137   6.085   4.443   0.544  0.5285  0.1151  0.3382
 7168TIP3   OH243138   6.809   4.159   0.434  0.4690 -0.6583  0.1763
 7168TIP3    H143139   6.720   4.127   0.440  0.8504 -1.6875  0.4384
 7168TIP3    H243140   6.831   4.187   0.523  0.9085 -1.7991  0.4423
 7169TIP3   OH243141   5.501   1.278   6.613  0.1169  0.3424  0.0458
 7169TIP3    H143142   5.416   1.317   6.630  0.3043  1.0123 -0.4958
 7169TIP3    H243143   5.542   1.269   6.699 -0.3331  0.4101  0.2651
 7170TIP3   OH243144   1.986   1.353   1.386  0.3707 -0.2261 -0.0605
 7170TIP3    H143145   2.060   1.413   1.400 -0.0243  0.7895 -1.9505
 7170TIP3    H243146   1.939   1.390   1.311 -2.6020 -0.3191  1.5738
 7171TIP3   OH243147   5.088   4.575   6.910 -0.1522  0.3915  0.5444
 7171TIP3    H143148   5.136   4.587   6.829 -0.4567  1.6177  0.5217
 7171TIP3    H243149   5.061   4.663   6.935  0.2147  0.0810  2.1471
 7172TIP3   OH243150   0.331   2.841   2.853 -0.3117  0.2849  0.1124
 7172TIP3    H143151   0.256   2.781   2.853 -0.3312  0.3064  0.5873
 7172TIP3    H243152   0.376   2.823   2.770 -0.3915 -0.2988  0.1884
 7173TIP3   OH243153   6.255   1.788   2.138  0.2006 -0.2168  0.1721
 7173TIP3    H143154   6.276   1.854   2.204  2.3102 -0.3693 -0.2876
 7173TIP3    H243155   6.255   1.705   2.186  0.2081 -0.1742  0.2460
 7174TIP3   OH243156   0.209   2.791   1.212 -0.1223 -0.5368 -0.0034
 7174TIP3    H143157   0.221   2.883   1.235 -1.7675 -0.6612  1.5650
 7174TIP3    H243158   0.265   2.743   1.274 -0.0292 -0.6384 -0.1641
 7175TIP3   OH243159   3.211   3.179   7.411 -0.3122 -0.5050  0.4585
 7175TIP3    H143160   3.291   3.176   7.463 -0.8591  1.8395  1.5693
 7175TIP3    H243161   3.178   3.089   7.412  1.5757 -1.2412  1.0781
 7176TIP3   OH243162   5.373   2.392   2.381 -0.0719  0.8612 -0.6689
 7176TIP3    H143163   5.325   2.359   2.457  0.4562 -0.2791 -0.8009
 7176TIP3    H243164   5.304   2.410   2.316 -0.4107  0.1923 -0.5107
 7177TIP3   OH243165   4.793   6.366   8.285 -0.1746 -0.0952  0.2213
 7177TIP3    H143166   4.874   6.375   8.234 -0.4188  0.5380 -0.0564
 7177TIP3    H243167   4.749   6.450   8.275 -0.9945 -0.5271  0.1632
 7178TIP3   OH243168   4.193   0.623   0.500  0.1482 -0.8806  0.0254
 7178TIP3    H143169   4.275   0.630   0.451 -0.8958  1.2027 -1.6007
 7178TIP3    H243170   4.199   0.692   0.567 -0.7249  0.1609 -0.9218
 7179TIP3   OH243171   1.038   3.857   8.605 -0.0669 -0.1746  0.0239
 7179TIP3    H143172   1.099   3.814   8.545  0.6779  0.4111  0.3388
 7179TIP3    H243173   0.951   3.828   8.577  0.3934 -1.7355  0.1159
 7180TIP3   OH243174   6.678   3.494   6.521 -0.4105  0.1613  0.0074
 7180TIP3    H143175   6.669   3.585   6.549 -0.6391 -0.0587  0.6716
 7180TIP3    H243176   6.638   3.491   6.434 -0.3979  0.6951 -0.0153
 7181TIP3   OH243177   1.609   5.638   2.171 -0.9879 -0.4433  0.2694
 7181TIP3    H143178   1.523   5.611   2.203 -1.7816 -1.6542 -2.5294
 7181TIP3    H243179   1.647   5.558   2.133 -0.5083  0.8972 -2.3072
 7182TIP3   OH243180   3.582   6.416   7.045 -0.3333  0.0099 -0.0248
 7182TIP3    H143181   3.495   6.452   7.031 -1.2252 -0.6130  3.0127
 7182TIP3    H243182   3.610   6.454   7.129  2.6326  0.6922 -1.2134
 7183LIG      O43183   1.085   5.444   1.948 -0.4622  0.5218 -0.1106
 7183LIG     C143184   1.211   5.478   2.009  0.5186  0.4936  0.8209
 7183LIG     C243185   1.319   5.424   1.926 -1.1338  0.1049  0.7099
 7183LIG     C343186   1.218   5.634   2.012  0.5133  0.7396 -0.2934
 7183LIG     H143187   1.199   5.433   2.109 -2.1653  0.3343  0.4929
 7183LIG     H243188   1.322   5.313   1.929 -0.4655  0.1173  0.6423
 7183LIG     H343189   1.416   5.451   1.971 -0.1623 -1.9761  0.0176
 7183LIG     H443190   1.332   5.451   1.819  2.8782  1.4146  1.3450
 7183LIG     H543191   1.120   5.670   2.048  0.2338 -0.7306  0.5295
 7183LIG     H643192   1.236   5.673   1.909  1.3343  2.0114  0.3128
 7183LIG     H743193   1.303   5.661   2.079  1.3487 -1.4165 -0.3982
 7183LIG     H843194   1.021   5.464   2.016 -1.3872  0.6991 -1.0085
   6.90147   6.90147   8.67527
